       N       E                     dE             d eps       ncg     rms          rms(c)
DAV:   1     0.910578072068E+04    0.91058E+04   -0.34990E+05 25568   0.111E+03
DAV:   2     0.754179619013E+03   -0.83516E+04   -0.75153E+04 31776   0.303E+02
DAV:   3    -0.939997230668E+03   -0.16942E+04   -0.16713E+04 30208   0.148E+02
DAV:   4    -0.102390812972E+04   -0.83911E+02   -0.83341E+02 34016   0.403E+01
DAV:   5    -0.102720147279E+04   -0.32933E+01   -0.32845E+01 40544   0.627E+00    0.177E+02
RMM:   6    -0.100778197895E+04    0.19419E+02   -0.29102E+03 27936   0.928E+01    0.371E+02
RMM:   7    -0.797510346843E+03    0.21027E+03   -0.32176E+02 25000   0.292E+01    0.236E+02
RMM:   8    -0.875208985825E+03   -0.77699E+02   -0.33136E+02 25099   0.286E+01    0.200E+02
RMM:   9    -0.678616531273E+03    0.19659E+03   -0.16462E+02 25142   0.193E+01    0.153E+02
RMM:  10    -0.559396020136E+03    0.11922E+03   -0.87354E+01 25003   0.155E+01    0.880E+01
RMM:  11    -0.538564642741E+03    0.20831E+02   -0.23190E+01 25015   0.705E+00    0.735E+01
RMM:  12    -0.530121938729E+03    0.84427E+01   -0.18241E+01 25103   0.747E+00    0.726E+01
RMM:  13    -0.521349009577E+03    0.87729E+01   -0.14961E+01 25078   0.619E+00    0.630E+01
RMM:  14    -0.525492752178E+03   -0.41437E+01   -0.11542E+01 25380   0.498E+00    0.555E+01
RMM:  15    -0.519194284327E+03    0.62985E+01   -0.11710E+01 25610   0.505E+00    0.487E+01
RMM:  16    -0.509819479817E+03    0.93748E+01   -0.53061E+00 25112   0.371E+00    0.414E+01
RMM:  17    -0.502210058765E+03    0.76094E+01   -0.26406E+00 25663   0.240E+00    0.383E+01
RMM:  18    -0.494852931238E+03    0.73571E+01   -0.17846E+00 26016   0.204E+00    0.358E+01
RMM:  19    -0.488732859632E+03    0.61201E+01   -0.16186E+00 26017   0.190E+00    0.332E+01
RMM:  20    -0.484720574859E+03    0.40123E+01   -0.90798E-01 26346   0.139E+00    0.313E+01
RMM:  21    -0.482271660145E+03    0.24489E+01   -0.72023E-01 26451   0.121E+00    0.291E+01
RMM:  22    -0.481421609280E+03    0.85005E+00   -0.68965E-01 26681   0.124E+00    0.273E+01
RMM:  23    -0.483593442831E+03   -0.21718E+01   -0.64222E-01 26563   0.114E+00    0.265E+01
RMM:  24    -0.489887392250E+03   -0.62939E+01   -0.95801E-01 28581   0.147E+00    0.261E+01
RMM:  25    -0.502234409460E+03   -0.12347E+02   -0.19355E+00 30910   0.194E+00    0.257E+01
RMM:  26    -0.518488671167E+03   -0.16254E+02   -0.54888E+00 34776   0.307E+00    0.250E+01
RMM:  27    -0.533637388249E+03   -0.15149E+02   -0.56841E+00 35203   0.317E+00    0.243E+01
RMM:  28    -0.553647049108E+03   -0.20010E+02   -0.66816E+00 35129   0.321E+00    0.236E+01
RMM:  29    -0.572133406839E+03   -0.18486E+02   -0.71302E+00 34799   0.314E+00    0.237E+01
RMM:  30    -0.591838083426E+03   -0.19705E+02   -0.76930E+00 35483   0.329E+00    0.236E+01
RMM:  31    -0.617940717939E+03   -0.26103E+02   -0.14498E+01 37999   0.440E+00    0.222E+01
RMM:  32    -0.634589014656E+03   -0.16648E+02   -0.11149E+01 37957   0.386E+00    0.206E+01
RMM:  33    -0.641614640757E+03   -0.70256E+01   -0.29568E+00 34944   0.223E+00    0.177E+01
RMM:  34    -0.645591870809E+03   -0.39772E+01   -0.89678E-01 31053   0.130E+00    0.162E+01
RMM:  35    -0.651381190180E+03   -0.57893E+01   -0.96202E-01 31333   0.130E+00    0.156E+01
RMM:  36    -0.655355672501E+03   -0.39745E+01   -0.73274E-01 30595   0.118E+00    0.144E+01
RMM:  37    -0.658890606073E+03   -0.35349E+01   -0.61702E-01 30060   0.110E+00    0.129E+01
RMM:  38    -0.663588810824E+03   -0.46982E+01   -0.88540E-01 31820   0.121E+00    0.126E+01
RMM:  39    -0.667555291792E+03   -0.39665E+01   -0.11361E+00 32864   0.133E+00    0.137E+01
RMM:  40    -0.669882190207E+03   -0.23269E+01   -0.79250E-01 32049   0.115E+00    0.147E+01
RMM:  41    -0.671208722386E+03   -0.13265E+01   -0.79687E-01 31792   0.110E+00    0.158E+01
RMM:  42    -0.672519485071E+03   -0.13108E+01   -0.12449E+00 33135   0.123E+00    0.178E+01
RMM:  43    -0.674857538791E+03   -0.23381E+01   -0.83356E-01 31916   0.100E+00    0.183E+01
RMM:  44    -0.677986914681E+03   -0.31294E+01   -0.74415E-01 31609   0.999E-01    0.180E+01
RMM:  45    -0.681019074137E+03   -0.30322E+01   -0.75020E-01 31943   0.103E+00    0.167E+01
RMM:  46    -0.683298323974E+03   -0.22792E+01   -0.58484E-01 31125   0.937E-01    0.146E+01
RMM:  47    -0.684804411905E+03   -0.15061E+01   -0.38395E-01 30163   0.766E-01    0.121E+01
RMM:  48    -0.686718446663E+03   -0.19140E+01   -0.34933E-01 30730   0.663E-01    0.915E+00
RMM:  49    -0.687960267214E+03   -0.12418E+01   -0.23290E-01 30292   0.565E-01    0.655E+00
RMM:  50    -0.688273417643E+03   -0.31315E+00   -0.24319E-01 31660   0.640E-01    0.474E+00
RMM:  51    -0.690581261428E+03   -0.23078E+01   -0.28191E-01 30820   0.705E-01    0.399E+00
RMM:  52    -0.691303896233E+03   -0.72263E+00   -0.12068E-01 27693   0.429E-01    0.355E+00
RMM:  53    -0.691329042021E+03   -0.25146E-01   -0.70344E-02 26654   0.325E-01    0.319E+00
RMM:  54    -0.691144146238E+03    0.18490E+00   -0.37189E-02 26370   0.275E-01    0.289E+00
RMM:  55    -0.691128828460E+03    0.15318E-01   -0.41966E-02 27296   0.293E-01    0.270E+00
RMM:  56    -0.691098595788E+03    0.30233E-01   -0.58322E-02 29081   0.324E-01    0.258E+00
RMM:  57    -0.691244278125E+03   -0.14568E+00   -0.36659E-02 27554   0.279E-01    0.206E+00
RMM:  58    -0.691564150429E+03   -0.31987E+00   -0.15922E-02 25454   0.196E-01    0.169E+00
RMM:  59    -0.691713918800E+03   -0.14977E+00   -0.99542E-03 25087   0.144E-01    0.153E+00
RMM:  60    -0.691723059297E+03   -0.91405E-02   -0.70077E-03 25044   0.128E-01    0.136E+00
RMM:  61    -0.691794738172E+03   -0.71679E-01   -0.56024E-03 25192   0.107E-01    0.126E+00
RMM:  62    -0.691916235683E+03   -0.12150E+00   -0.38304E-03 24875   0.946E-02    0.120E+00
RMM:  63    -0.692026262637E+03   -0.11003E+00   -0.38718E-03 25447   0.894E-02    0.115E+00
RMM:  64    -0.692116664547E+03   -0.90402E-01   -0.38908E-03 26019   0.836E-02    0.110E+00
RMM:  65    -0.692178160365E+03   -0.61496E-01   -0.37614E-03 26840   0.768E-02    0.107E+00
RMM:  66    -0.692214543358E+03   -0.36383E-01   -0.28857E-03 25957   0.677E-02    0.103E+00
RMM:  67    -0.692158050132E+03    0.56493E-01   -0.48712E-03 28045   0.808E-02    0.996E-01
RMM:  68    -0.692048718066E+03    0.10933E+00   -0.32573E-03 26296   0.645E-02    0.962E-01
RMM:  69    -0.691956556824E+03    0.92161E-01   -0.30964E-03 27372   0.626E-02    0.927E-01
RMM:  70    -0.691889600052E+03    0.66957E-01   -0.23105E-03 26840   0.565E-02    0.879E-01
RMM:  71    -0.691906724552E+03   -0.17125E-01   -0.22782E-03 27078   0.633E-02    0.878E-01
RMM:  72    -0.691931899980E+03   -0.25175E-01   -0.22990E-03 26514   0.710E-02    0.820E-01
RMM:  73    -0.691957914237E+03   -0.26014E-01   -0.24144E-03 27395   0.729E-02    0.702E-01
RMM:  74    -0.692018861666E+03   -0.60947E-01   -0.24625E-03 27572   0.703E-02    0.609E-01
RMM:  75    -0.692004645355E+03    0.14216E-01   -0.36963E-03 28835   0.723E-02    0.498E-01
RMM:  76    -0.692061915525E+03   -0.57270E-01   -0.34479E-03 28643   0.722E-02    0.484E-01
RMM:  77    -0.692147522910E+03   -0.85607E-01   -0.36843E-03 28630   0.714E-02    0.381E-01
RMM:  78    -0.692246381032E+03   -0.98858E-01   -0.23676E-03 25548   0.521E-02    0.276E-01
RMM:  79    -0.692344328114E+03   -0.97947E-01   -0.16133E-03 24155   0.400E-02    0.218E-01
RMM:  80    -0.692523089726E+03   -0.17876E+00   -0.14504E-03 23526   0.351E-02
   1 F= -.69252309E+03 E0= -.69212009E+03  d E =-.692523E+03  mag=    82.7380
       N       E                     dE             d eps       ncg     rms          rms(c)
DAV:   1    -0.676429315982E+03    0.15915E+02   -0.11794E+03 27904   0.349E+01    0.139E+01
RMM:   2    -0.678852762085E+03   -0.24234E+01   -0.58683E+01 24962   0.711E+00    0.154E+01
RMM:   3    -0.680807955192E+03   -0.19552E+01   -0.11181E+01 25154   0.355E+00    0.125E+01
RMM:   4    -0.680072669618E+03    0.73529E+00   -0.13478E+00 25526   0.158E+00    0.811E+00
RMM:   5    -0.679922121587E+03    0.15055E+00   -0.39035E-01 25589   0.846E-01    0.463E+00
RMM:   6    -0.680091908151E+03   -0.16979E+00   -0.31698E-01 25431   0.688E-01    0.377E+00
RMM:   7    -0.680105138946E+03   -0.13231E-01   -0.16835E-01 25604   0.507E-01    0.253E+00
RMM:   8    -0.680127308228E+03   -0.22169E-01   -0.16438E-01 26088   0.536E-01    0.298E+00
RMM:   9    -0.680113100320E+03    0.14208E-01   -0.73939E-02 25328   0.414E-01    0.184E+00
RMM:  10    -0.680138387490E+03   -0.25287E-01   -0.28114E-02 24728   0.258E-01    0.100E+00
RMM:  11    -0.680171598586E+03   -0.33211E-01   -0.11119E-02 26200   0.136E-01    0.652E-01
RMM:  12    -0.680187468405E+03   -0.15870E-01   -0.58786E-03 25954   0.995E-02    0.337E-01
RMM:  13    -0.680198325597E+03   -0.10857E-01   -0.25201E-03 27968   0.580E-02    0.226E-01
RMM:  14    -0.680203639021E+03   -0.53134E-02   -0.11574E-03 27158   0.382E-02    0.176E-01
RMM:  15    -0.680207467500E+03   -0.38285E-02   -0.71596E-04 24760   0.322E-02    0.130E-01
RMM:  16    -0.680204679554E+03    0.27879E-02   -0.41725E-04 22228   0.237E-02    0.123E-01
RMM:  17    -0.680202807272E+03    0.18723E-02   -0.25226E-04 18252   0.179E-02    0.982E-02
RMM:  18    -0.680201383260E+03    0.14240E-02   -0.19098E-04 16546   0.155E-02    0.921E-02
RMM:  19    -0.680200376685E+03    0.10066E-02   -0.18454E-04 16239   0.159E-02    0.802E-02
RMM:  20    -0.680198600364E+03    0.17763E-02   -0.28481E-04 17678   0.185E-02    0.686E-02
RMM:  21    -0.680197587543E+03    0.10128E-02   -0.13543E-04 15452   0.130E-02    0.609E-02
RMM:  22    -0.680197517010E+03    0.70533E-04   -0.88680E-05 14772   0.103E-02
   2 F= -.68019752E+03 E0= -.67978049E+03  d E =0.123256E+02  mag=    82.7375
       N       E                     dE             d eps       ncg     rms          rms(c)
DAV:   1    -0.692744700937E+03   -0.12547E+02   -0.93710E+02 27904   0.294E+01    0.270E+01
RMM:   2    -0.713024876580E+03   -0.20280E+02   -0.14345E+02 25001   0.690E+00    0.274E+01
RMM:   3    -0.702524239942E+03    0.10501E+02   -0.17481E+01 25233   0.417E+00    0.255E+01
RMM:   4    -0.697523621839E+03    0.50006E+01   -0.24993E+00 25041   0.197E+00    0.158E+01
RMM:   5    -0.695546283450E+03    0.19773E+01   -0.15663E+00 25167   0.128E+00    0.122E+01
RMM:   6    -0.693734892190E+03    0.18114E+01   -0.16649E+00 26079   0.124E+00    0.863E+00
RMM:   7    -0.692721154633E+03    0.10137E+01   -0.13843E+00 26922   0.102E+00    0.518E+00
RMM:   8    -0.692874612609E+03   -0.15346E+00   -0.24231E-01 25048   0.673E-01    0.354E+00
RMM:   9    -0.693138716832E+03   -0.26410E+00   -0.19119E-01 25256   0.504E-01    0.328E+00
RMM:  10    -0.693311722396E+03   -0.17301E+00   -0.25121E-01 26957   0.589E-01    0.262E+00
RMM:  11    -0.693375692197E+03   -0.63970E-01   -0.11086E-01 25908   0.401E-01    0.196E+00
RMM:  12    -0.693412318146E+03   -0.36626E-01   -0.39538E-02 25231   0.264E-01    0.152E+00
RMM:  13    -0.693429713770E+03   -0.17396E-01   -0.16735E-02 24515   0.176E-01    0.131E+00
RMM:  14    -0.693437686549E+03   -0.79728E-02   -0.23094E-02 24951   0.153E-01    0.707E-01
RMM:  15    -0.693449153256E+03   -0.11467E-01   -0.68275E-03 23993   0.120E-01    0.533E-01
RMM:  16    -0.693460820409E+03   -0.11667E-01   -0.33054E-03 23291   0.866E-02    0.429E-01
RMM:  17    -0.693467111876E+03   -0.62915E-02   -0.18079E-03 22651   0.575E-02    0.270E-01
RMM:  18    -0.693472105108E+03   -0.49932E-02   -0.68931E-04 21444   0.373E-02    0.205E-01
RMM:  19    -0.693476488542E+03   -0.43834E-02   -0.42632E-04 20111   0.300E-02    0.209E-01
RMM:  20    -0.693480864603E+03   -0.43761E-02   -0.42144E-04 19531   0.270E-02    0.157E-01
RMM:  21    -0.693485148535E+03   -0.42839E-02   -0.56482E-04 20356   0.287E-02    0.961E-02
RMM:  22    -0.693488290186E+03   -0.31417E-02   -0.39577E-04 19512   0.257E-02    0.728E-02
RMM:  23    -0.693489837868E+03   -0.15477E-02   -0.84331E-05 15163   0.137E-02    0.541E-02
RMM:  24    -0.693491118329E+03   -0.12805E-02   -0.41189E-05 14478   0.952E-03    0.429E-02
RMM:  25    -0.693492419573E+03   -0.13012E-02   -0.29363E-05 13972   0.831E-03    0.391E-02
RMM:  26    -0.693493576016E+03   -0.11564E-02   -0.26523E-05 13569   0.690E-03    0.345E-02
RMM:  27    -0.693495227164E+03   -0.16511E-02   -0.24639E-05 13485   0.667E-03    0.315E-02
RMM:  28    -0.693496722381E+03   -0.14952E-02   -0.13487E-05 12696   0.492E-03    0.276E-02
RMM:  29    -0.693498521759E+03   -0.17994E-02   -0.11452E-05 13153   0.444E-03    0.258E-02
RMM:  30    -0.693500699501E+03   -0.21777E-02   -0.15263E-05 13128   0.438E-03    0.226E-02
RMM:  31    -0.693502937137E+03   -0.22376E-02   -0.19551E-05 13490   0.433E-03    0.212E-02
RMM:  32    -0.693504666730E+03   -0.17296E-02   -0.13890E-05 12620   0.389E-03    0.205E-02
RMM:  33    -0.693506437967E+03   -0.17712E-02   -0.13066E-05 13071   0.398E-03    0.195E-02
RMM:  34    -0.693507736975E+03   -0.12990E-02   -0.13798E-05 12591   0.374E-03    0.174E-02
RMM:  35    -0.693509022809E+03   -0.12858E-02   -0.11479E-05 12078   0.355E-03    0.164E-02
RMM:  36    -0.693510147971E+03   -0.11252E-02   -0.65870E-06 10997   0.320E-03    0.147E-02
RMM:  37    -0.693511427949E+03   -0.12800E-02   -0.50582E-06 10780   0.301E-03    0.143E-02
RMM:  38    -0.693512870515E+03   -0.14426E-02   -0.52222E-06 11347   0.303E-03    0.135E-02
RMM:  39    -0.693514179336E+03   -0.13088E-02   -0.46316E-06 11120   0.291E-03    0.127E-02
RMM:  40    -0.693515434402E+03   -0.12551E-02   -0.40137E-06 10702   0.282E-03    0.124E-02
RMM:  41    -0.693516550968E+03   -0.11166E-02   -0.41833E-06 10674   0.282E-03    0.127E-02
RMM:  42    -0.693517448886E+03   -0.89792E-03   -0.47860E-06 11206   0.299E-03    0.106E-02
RMM:  43    -0.693518252593E+03   -0.80371E-03   -0.41281E-06 10036   0.277E-03    0.102E-02
RMM:  44    -0.693518726547E+03   -0.47395E-03   -0.22895E-06  8811   0.251E-03    0.974E-03
RMM:  45    -0.693519131440E+03   -0.40489E-03   -0.14759E-06  7861   0.233E-03    0.884E-03
RMM:  46    -0.693519747279E+03   -0.61584E-03   -0.15681E-06  7841   0.230E-03    0.826E-03
RMM:  47    -0.693520267966E+03   -0.52069E-03   -0.16291E-06  7988   0.232E-03    0.783E-03
RMM:  48    -0.693520865397E+03   -0.59743E-03   -0.18042E-06  8218   0.233E-03    0.723E-03
RMM:  49    -0.693521552378E+03   -0.68698E-03   -0.12973E-06  7897   0.227E-03    0.690E-03
RMM:  50    -0.693522443425E+03   -0.89105E-03   -0.15931E-06  8076   0.231E-03    0.653E-03
RMM:  51    -0.693523151079E+03   -0.70765E-03   -0.11181E-06  7584   0.225E-03    0.594E-03
RMM:  52    -0.693523681674E+03   -0.53059E-03   -0.73914E-07  7279   0.221E-03    0.578E-03
RMM:  53    -0.693524255411E+03   -0.57374E-03   -0.66469E-07  6977   0.215E-03    0.517E-03
RMM:  54    -0.693524954178E+03   -0.69877E-03   -0.88806E-07  7233   0.217E-03    0.467E-03
RMM:  55    -0.693525539489E+03   -0.58531E-03   -0.56349E-07  6832   0.212E-03    0.435E-03
RMM:  56    -0.693526109542E+03   -0.57005E-03   -0.30705E-07  6319   0.207E-03    0.383E-03
RMM:  57    -0.693526734435E+03   -0.62489E-03   -0.53532E-07  6549   0.210E-03    0.339E-03
RMM:  58    -0.693527254881E+03   -0.52045E-03   -0.55162E-07  6653   0.211E-03    0.276E-03
RMM:  59    -0.693527564892E+03   -0.31001E-03   -0.18635E-07  6120   0.207E-03    0.234E-03
RMM:  60    -0.693527713969E+03   -0.14908E-03   -0.80810E-08  5766   0.204E-03    0.200E-03
RMM:  61    -0.693527803039E+03   -0.89070E-04   -0.83986E-08  5745   0.203E-03
   3 F= -.69352780E+03 E0= -.69312444E+03  d E =-.100471E+01  mag=    82.6019
       N       E                     dE             d eps       ncg     rms          rms(c)
DAV:   1    -0.693599644025E+03   -0.71930E-01   -0.29260E+00 28016   0.175E+00    0.945E-01
RMM:   2    -0.693608465022E+03   -0.88210E-02   -0.12641E-01 24072   0.365E-01    0.146E+00
RMM:   3    -0.693604848060E+03    0.36170E-02   -0.25620E-02 23381   0.235E-01    0.689E-01
RMM:   4    -0.693604240963E+03    0.60710E-03   -0.60717E-03 22401   0.111E-01    0.266E-01
RMM:   5    -0.693604415518E+03   -0.17455E-03   -0.15596E-03 21088   0.511E-02    0.189E-01
RMM:   6    -0.693604510022E+03   -0.94504E-04   -0.54036E-04 19486   0.314E-02    0.159E-01
RMM:   7    -0.693604419714E+03    0.90308E-04   -0.35418E-04 18497   0.256E-02    0.121E-01
RMM:   8    -0.693604262881E+03    0.15683E-03   -0.24573E-04 17370   0.211E-02    0.975E-02
RMM:   9    -0.693604168023E+03    0.94858E-04   -0.97240E-05 14309   0.156E-02
   4 F= -.69360417E+03 E0= -.69320028E+03  d E =-.108108E+01  mag=    82.6022
       N       E                     dE             d eps       ncg     rms          rms(c)
DAV:   1    -0.693608987372E+03   -0.47245E-02   -0.12808E-01 27072   0.366E-01    0.202E-01
RMM:   2    -0.693609279769E+03   -0.29240E-03   -0.57304E-03 21716   0.770E-02    0.321E-01
RMM:   3    -0.693609123795E+03    0.15597E-03   -0.11730E-03 19783   0.515E-02    0.149E-01
RMM:   4    -0.693609145984E+03   -0.22189E-04   -0.26372E-04 16411   0.241E-02    0.614E-02
RMM:   5    -0.693609205266E+03   -0.59281E-04   -0.72849E-05 13851   0.119E-02    0.466E-02
RMM:   6    -0.693609241515E+03   -0.36250E-04   -0.22682E-05 12927   0.700E-03    0.352E-02
RMM:   7    -0.693609276221E+03   -0.34706E-04   -0.15565E-05 12607   0.586E-03    0.230E-02
RMM:   8    -0.693609315107E+03   -0.38886E-04   -0.11270E-05 12481   0.519E-03
   5 F= -.69360932E+03 E0= -.69320550E+03  d E =-.108623E+01  mag=    82.6023
       N       E                     dE             d eps       ncg     rms          rms(c)
DAV:   1    -0.690400812175E+03    0.32085E+01   -0.36536E+02 25744   0.215E+01    0.100E+01
RMM:   2    -0.691456365731E+03   -0.10556E+01   -0.11699E+01 24960   0.441E+00    0.135E+01
RMM:   3    -0.691935238355E+03   -0.47887E+00   -0.34929E+00 25153   0.252E+00    0.786E+00
RMM:   4    -0.691584270945E+03    0.35097E+00   -0.61686E-01 26124   0.116E+00    0.514E+00
RMM:   5    -0.691464516516E+03    0.11975E+00   -0.21335E-01 26539   0.586E-01    0.287E+00
RMM:   6    -0.691540859165E+03   -0.76343E-01   -0.11144E-01 25630   0.360E-01    0.293E+00
RMM:   7    -0.691581095540E+03   -0.40236E-01   -0.48389E-02 25277   0.298E-01    0.170E+00
RMM:   8    -0.691584555401E+03   -0.34599E-02   -0.12279E-01 27479   0.349E-01    0.181E+00
RMM:   9    -0.691543634315E+03    0.40921E-01   -0.32501E-02 25482   0.231E-01    0.106E+00
RMM:  10    -0.691558971998E+03   -0.15338E-01   -0.18240E-02 24968   0.183E-01    0.941E-01
RMM:  11    -0.691588089649E+03   -0.29118E-01   -0.11858E-02 24416   0.135E-01    0.659E-01
RMM:  12    -0.691608936461E+03   -0.20847E-01   -0.49976E-03 23403   0.801E-02    0.268E-01
RMM:  13    -0.691618750168E+03   -0.98137E-02   -0.21109E-03 23139   0.550E-02    0.226E-01
RMM:  14    -0.691622561280E+03   -0.38111E-02   -0.84795E-04 22194   0.356E-02    0.135E-01
RMM:  15    -0.691625532934E+03   -0.29717E-02   -0.49965E-04 20676   0.221E-02    0.117E-01
RMM:  16    -0.691627267825E+03   -0.17349E-02   -0.33486E-04 18804   0.208E-02    0.986E-02
RMM:  17    -0.691627726903E+03   -0.45908E-03   -0.23790E-04 17899   0.188E-02    0.883E-02
RMM:  18    -0.691627815851E+03   -0.88948E-04   -0.13804E-04 16139   0.152E-02
   6 F= -.69162782E+03 E0= -.69121930E+03  d E =0.198150E+01  mag=    82.5819
       N       E                     dE             d eps       ncg     rms          rms(c)
DAV:   1    -0.693520088514E+03   -0.18924E+01   -0.19405E+02 26160   0.153E+01    0.809E+00
RMM:   2    -0.694198038593E+03   -0.67795E+00   -0.67868E+00 24960   0.289E+00    0.970E+00
RMM:   3    -0.694037309944E+03    0.16073E+00   -0.13531E+00 25080   0.166E+00    0.548E+00
RMM:   4    -0.693958832397E+03    0.78478E-01   -0.35788E-01 26021   0.884E-01    0.284E+00
RMM:   5    -0.693948577686E+03    0.10255E-01   -0.15656E-01 25132   0.527E-01    0.197E+00
RMM:   6    -0.693940103867E+03    0.84738E-02   -0.46157E-02 24855   0.308E-01    0.141E+00
RMM:   7    -0.693940046208E+03    0.57659E-04   -0.36450E-02 25068   0.257E-01    0.141E+00
RMM:   8    -0.693933741106E+03    0.63051E-02   -0.18135E-02 24762   0.194E-01    0.900E-01
RMM:   9    -0.693932349227E+03    0.13919E-02   -0.84600E-03 24967   0.126E-01    0.520E-01
RMM:  10    -0.693933901253E+03   -0.15520E-02   -0.35453E-03 25316   0.778E-02    0.277E-01
RMM:  11    -0.693934930550E+03   -0.10293E-02   -0.12018E-03 25302   0.442E-02    0.146E-01
RMM:  12    -0.693936077568E+03   -0.11470E-02   -0.56653E-04 23039   0.260E-02    0.997E-02
RMM:  13    -0.693936938947E+03   -0.86138E-03   -0.28370E-04 20014   0.207E-02    0.928E-02
RMM:  14    -0.693937343727E+03   -0.40478E-03   -0.15963E-04 17518   0.172E-02    0.589E-02
RMM:  15    -0.693937659296E+03   -0.31557E-03   -0.88626E-05 15430   0.122E-02    0.467E-02
RMM:  16    -0.693937922160E+03   -0.26286E-03   -0.46827E-05 14483   0.956E-03    0.341E-02
RMM:  17    -0.693938188054E+03   -0.26589E-03   -0.28176E-05 13941   0.726E-03    0.269E-02
RMM:  18    -0.693938520885E+03   -0.33283E-03   -0.23842E-05 14106   0.658E-03    0.239E-02
RMM:  19    -0.693938760527E+03   -0.23964E-03   -0.18376E-05 13581   0.576E-03    0.190E-02
RMM:  20    -0.693938932301E+03   -0.17177E-03   -0.12143E-05 13147   0.494E-03    0.158E-02
RMM:  21    -0.693939068013E+03   -0.13571E-03   -0.68932E-06 12203   0.392E-03    0.123E-02
RMM:  22    -0.693939255094E+03   -0.18708E-03   -0.56048E-06 12068   0.356E-03    0.114E-02
RMM:  23    -0.693939418726E+03   -0.16363E-03   -0.44380E-06 11511   0.323E-03    0.959E-03
RMM:  24    -0.693939554233E+03   -0.13551E-03   -0.34445E-06 10932   0.297E-03    0.810E-03
RMM:  25    -0.693939653758E+03   -0.99525E-04   -0.16415E-06  8952   0.252E-03
   7 F= -.69393965E+03 E0= -.69353553E+03  d E =-.330339E+00  mag=    82.5780
       N       E                     dE             d eps       ncg     rms          rms(c)
DAV:   1    -0.693500569406E+03    0.43898E+00   -0.73056E+01 26784   0.950E+00    0.472E+00
RMM:   2    -0.693734976193E+03   -0.23441E+00   -0.20356E+00 24961   0.199E+00    0.577E+00
RMM:   3    -0.693774299888E+03   -0.39324E-01   -0.55211E-01 25153   0.108E+00    0.307E+00
RMM:   4    -0.693762758505E+03    0.11541E-01   -0.14528E-01 26208   0.586E-01    0.142E+00
RMM:   5    -0.693761831567E+03    0.92694E-03   -0.40307E-02 25898   0.279E-01    0.964E-01
RMM:   6    -0.693761038691E+03    0.79288E-03   -0.16178E-02 24313   0.174E-01    0.810E-01
RMM:   7    -0.693761244508E+03   -0.20582E-03   -0.13578E-02 24046   0.170E-01    0.712E-01
RMM:   8    -0.693761715836E+03   -0.47133E-03   -0.50298E-03 23097   0.107E-01    0.334E-01
RMM:   9    -0.693762560282E+03   -0.84445E-03   -0.16397E-03 23151   0.567E-02    0.155E-01
RMM:  10    -0.693763107788E+03   -0.54751E-03   -0.66317E-04 21935   0.314E-02    0.111E-01
RMM:  11    -0.693763175109E+03   -0.67322E-04   -0.26556E-04 18540   0.200E-02
   8 F= -.69376318E+03 E0= -.69335589E+03  d E =0.176479E+00  mag=    82.5739
       N       E                     dE             d eps       ncg     rms          rms(c)
DAV:   1    -0.694012270540E+03   -0.24916E+00   -0.29810E+01 26432   0.602E+00    0.299E+00
RMM:   2    -0.694112837617E+03   -0.10057E+00   -0.78945E-01 24960   0.116E+00    0.331E+00
RMM:   3    -0.694116085402E+03   -0.32478E-02   -0.17520E-01 25116   0.596E-01    0.186E+00
RMM:   4    -0.694110182426E+03    0.59030E-02   -0.48124E-02 25615   0.343E-01    0.977E-01
RMM:   5    -0.694108206021E+03    0.19764E-02   -0.15549E-02 24300   0.184E-01    0.638E-01
RMM:   6    -0.694107642923E+03    0.56310E-03   -0.74582E-03 23227   0.125E-01    0.619E-01
RMM:   7    -0.694106920606E+03    0.72232E-03   -0.53477E-03 23124   0.106E-01    0.342E-01
RMM:   8    -0.694106764087E+03    0.15652E-03   -0.16995E-03 22175   0.602E-02    0.168E-01
RMM:   9    -0.694106856094E+03   -0.92006E-04   -0.60021E-04 21404   0.347E-02
   9 F= -.69410686E+03 E0= -.69370203E+03  d E =-.167202E+00  mag=    82.5724
       N       E                     dE             d eps       ncg     rms          rms(c)
DAV:   1    -0.693967539052E+03    0.13923E+00   -0.32226E+01 26000   0.651E+00    0.207E+00
RMM:   2    -0.694058612621E+03   -0.91074E-01   -0.74187E-01 24960   0.119E+00    0.174E+00
RMM:   3    -0.694080384848E+03   -0.21772E-01   -0.11754E-01 25183   0.505E-01    0.136E+00
RMM:   4    -0.694076638311E+03    0.37465E-02   -0.29852E-02 26003   0.286E-01    0.855E-01
RMM:   5    -0.694074852011E+03    0.17863E-02   -0.99698E-03 25687   0.144E-01    0.529E-01
RMM:   6    -0.694074421999E+03    0.43001E-03   -0.37729E-03 24315   0.838E-02    0.442E-01
RMM:   7    -0.694074270754E+03    0.15124E-03   -0.31411E-03 23476   0.781E-02    0.324E-01
RMM:   8    -0.694074238225E+03    0.32529E-04   -0.13884E-03 22811   0.526E-02    0.176E-01
RMM:   9    -0.694074105614E+03    0.13261E-03   -0.45451E-04 20894   0.303E-02    0.103E-01
RMM:  10    -0.694073999531E+03    0.10608E-03   -0.17445E-04 17388   0.189E-02    0.729E-02
RMM:  11    -0.694073893560E+03    0.10597E-03   -0.83122E-05 15502   0.132E-02    0.479E-02
RMM:  12    -0.694073755479E+03    0.13808E-03   -0.62325E-05 15157   0.109E-02    0.442E-02
RMM:  13    -0.694073716281E+03    0.39198E-04   -0.34457E-05 14356   0.874E-03
  10 F= -.69407372E+03 E0= -.69367018E+03  d E =0.331398E-01  mag=    82.5690
       N       E                     dE             d eps       ncg     rms          rms(c)
DAV:   1    -0.694228665354E+03   -0.15491E+00   -0.11528E+01 26528   0.388E+00    0.122E+00
RMM:   2    -0.694259656291E+03   -0.30991E-01   -0.25261E-01 24960   0.702E-01    0.963E-01
RMM:   3    -0.694267659089E+03   -0.80028E-02   -0.39878E-02 25149   0.288E-01    0.725E-01
RMM:   4    -0.694267033816E+03    0.62527E-03   -0.97935E-03 25108   0.163E-01    0.511E-01
RMM:   5    -0.694266421096E+03    0.61272E-03   -0.33457E-03 23672   0.870E-02    0.301E-01
RMM:   6    -0.694266363041E+03    0.58056E-04   -0.14443E-03 22512   0.522E-02    0.247E-01
RMM:   7    -0.694266423649E+03   -0.60609E-04   -0.10593E-03 22285   0.471E-02    0.199E-01
RMM:   8    -0.694266499720E+03   -0.76070E-04   -0.44893E-04 20611   0.309E-02
  11 F= -.69426650E+03 E0= -.69386281E+03  d E =-.159644E+00  mag=    82.5680
       N       E                     dE             d eps       ncg     rms          rms(c)
DAV:   1    -0.694265589346E+03    0.83430E-03   -0.10649E+01 26560   0.362E+00    0.146E+00
RMM:   2    -0.694306683532E+03   -0.41094E-01   -0.35766E-01 24960   0.738E-01    0.199E+00
RMM:   3    -0.694301052090E+03    0.56314E-02   -0.61115E-02 25142   0.350E-01    0.981E-01
RMM:   4    -0.694300002580E+03    0.10495E-02   -0.13927E-02 25105   0.188E-01    0.553E-01
RMM:   5    -0.694299401815E+03    0.60076E-03   -0.46905E-03 23311   0.101E-01    0.391E-01
RMM:   6    -0.694299386243E+03    0.15572E-04   -0.21527E-03 22915   0.625E-02    0.372E-01
RMM:   7    -0.694298942670E+03    0.44357E-03   -0.14641E-03 22618   0.540E-02    0.242E-01
RMM:   8    -0.694298881058E+03    0.61613E-04   -0.65882E-04 21545   0.368E-02
  12 F= -.69429888E+03 E0= -.69389706E+03  d E =-.323813E-01  mag=    82.5653
       N       E                     dE             d eps       ncg     rms          rms(c)
DAV:   1    -0.694330938475E+03   -0.31996E-01   -0.21647E+00 27520   0.164E+00    0.683E-01
RMM:   2    -0.694337690190E+03   -0.67517E-02   -0.72177E-02 24960   0.340E-01    0.979E-01
RMM:   3    -0.694336734640E+03    0.95555E-03   -0.12250E-02 24748   0.164E-01    0.453E-01
RMM:   4    -0.694336590909E+03    0.14373E-03   -0.33958E-03 22719   0.899E-02    0.265E-01
RMM:   5    -0.694336450714E+03    0.14020E-03   -0.97216E-04 21401   0.472E-02    0.166E-01
RMM:   6    -0.694336382448E+03    0.68266E-04   -0.48230E-04 19788   0.312E-02    0.161E-01
RMM:   7    -0.694336279884E+03    0.10256E-03   -0.37009E-04 18884   0.280E-02    0.971E-02
RMM:   8    -0.694336323489E+03   -0.43605E-04   -0.16412E-04 16486   0.184E-02
  13 F= -.69433632E+03 E0= -.69393383E+03  d E =-.698238E-01  mag=    82.5634
       N       E                     dE             d eps       ncg     rms          rms(c)
DAV:   1    -0.694336669385E+03   -0.38950E-03   -0.64110E+00 25792   0.281E+00    0.114E+00
RMM:   2    -0.694360393669E+03   -0.23724E-01   -0.20179E-01 24960   0.561E-01    0.144E+00
RMM:   3    -0.694358815118E+03    0.15786E-02   -0.34149E-02 25135   0.255E-01    0.743E-01
RMM:   4    -0.694358164407E+03    0.65071E-03   -0.78952E-03 24402   0.143E-01    0.420E-01
RMM:   5    -0.694357872318E+03    0.29209E-03   -0.29350E-03 22758   0.805E-02    0.329E-01
RMM:   6    -0.694357707842E+03    0.16448E-03   -0.12335E-03 22103   0.478E-02    0.239E-01
RMM:   7    -0.694357725915E+03   -0.18072E-04   -0.91205E-04 21927   0.445E-02    0.215E-01
RMM:   8    -0.694357598523E+03    0.12739E-03   -0.39706E-04 19973   0.293E-02    0.112E-01
RMM:   9    -0.694357490259E+03    0.10826E-03   -0.15024E-04 16393   0.170E-02    0.639E-02
RMM:  10    -0.694357378139E+03    0.11212E-03   -0.58171E-05 14493   0.116E-02    0.396E-02
RMM:  11    -0.694357256359E+03    0.12178E-03   -0.22826E-05 13439   0.707E-03    0.275E-02
RMM:  12    -0.694357075068E+03    0.18129E-03   -0.16214E-05 13054   0.558E-03    0.266E-02
RMM:  13    -0.694356862378E+03    0.21269E-03   -0.11826E-05 12916   0.520E-03    0.207E-02
RMM:  14    -0.694356757664E+03    0.10471E-03   -0.52108E-06 11740   0.398E-03    0.177E-02
RMM:  15    -0.694356711634E+03    0.46031E-04   -0.18190E-06  9525   0.273E-03
  14 F= -.69435671E+03 E0= -.69395517E+03  d E =-.203881E-01  mag=    82.5575
       N       E                     dE             d eps       ncg     rms          rms(c)
DAV:   1    -0.694379578036E+03   -0.22820E-01   -0.99840E-01 27056   0.111E+00    0.457E-01
RMM:   2    -0.694382137993E+03   -0.25600E-02   -0.30861E-02 24960   0.223E-01    0.585E-01
RMM:   3    -0.694382213763E+03   -0.75770E-04   -0.51941E-03 24098   0.997E-02    0.281E-01
RMM:   4    -0.694382162492E+03    0.51271E-04   -0.12615E-03 21724   0.571E-02    0.170E-01
RMM:   5    -0.694382099060E+03    0.63431E-04   -0.45046E-04 19468   0.329E-02    0.131E-01
RMM:   6    -0.694382038283E+03    0.60777E-04   -0.20275E-04 17098   0.202E-02    0.949E-02
RMM:   7    -0.694382012633E+03    0.25650E-04   -0.15857E-04 16454   0.193E-02    0.808E-02
RMM:   8    -0.694382053333E+03   -0.40701E-04   -0.69516E-05 14343   0.128E-02
  15 F= -.69438205E+03 E0= -.69398012E+03  d E =-.457298E-01  mag=    82.5551
       N       E                     dE             d eps       ncg     rms          rms(c)
DAV:   1    -0.694336371172E+03    0.45641E-01   -0.48280E+00 25520   0.235E+00    0.891E-01
RMM:   2    -0.694352183158E+03   -0.15812E-01   -0.14105E-01 24960   0.475E-01    0.997E-01
RMM:   3    -0.694353483292E+03   -0.13001E-02   -0.23333E-02 24827   0.199E-01    0.622E-01
RMM:   4    -0.694352944446E+03    0.53885E-03   -0.51104E-03 23051   0.116E-01    0.367E-01
RMM:   5    -0.694352740702E+03    0.20374E-03   -0.20348E-03 22209   0.669E-02    0.298E-01
RMM:   6    -0.694352618314E+03    0.12239E-03   -0.10996E-03 21541   0.436E-02    0.217E-01
RMM:   7    -0.694352616493E+03    0.18217E-05   -0.68197E-04 21047   0.394E-02    0.182E-01
RMM:   8    -0.694352526882E+03    0.89611E-04   -0.26974E-04 18387   0.236E-02
  16 F= -.69435253E+03 E0= -.69395099E+03  d E =0.295265E-01  mag=    82.5521
       N       E                     dE             d eps       ncg     rms          rms(c)
DAV:   1    -0.694397593907E+03   -0.44977E-01   -0.20875E+00 26000   0.154E+00    0.603E-01
RMM:   2    -0.694403595368E+03   -0.60015E-02   -0.60834E-02 24960   0.317E-01    0.697E-01
RMM:   3    -0.694404212418E+03   -0.61705E-03   -0.10066E-02 24170   0.133E-01    0.427E-01
RMM:   4    -0.694403925244E+03    0.28717E-03   -0.23475E-03 22300   0.783E-02    0.241E-01
RMM:   5    -0.694403720541E+03    0.20470E-03   -0.84429E-04 21043   0.433E-02    0.195E-01
RMM:   6    -0.694403627373E+03    0.93168E-04   -0.50471E-04 19901   0.291E-02    0.151E-01
RMM:   7    -0.694403664460E+03   -0.37087E-04   -0.30625E-04 18970   0.269E-02    0.117E-01
RMM:   8    -0.694403710695E+03   -0.46235E-04   -0.11550E-04 15325   0.165E-02
  17 F= -.69440371E+03 E0= -.69400201E+03  d E =-.216574E-01  mag=    82.5498
       N       E                     dE             d eps       ncg     rms          rms(c)
DAV:   1    -0.694411821025E+03   -0.81566E-02   -0.11629E+00 26816   0.117E+00    0.492E-01
RMM:   2    -0.694415053396E+03   -0.32324E-02   -0.34124E-02 24807   0.227E-01    0.591E-01
RMM:   3    -0.694415190496E+03   -0.13710E-03   -0.58146E-03 23556   0.109E-01    0.310E-01
RMM:   4    -0.694415142047E+03    0.48449E-04   -0.15329E-03 21816   0.617E-02    0.185E-01
RMM:   5    -0.694415174179E+03   -0.32132E-04   -0.44718E-04 19380   0.317E-02    0.104E-01
RMM:   6    -0.694415221415E+03   -0.47237E-04   -0.17358E-04 16413   0.187E-02    0.945E-02
RMM:   7    -0.694415256912E+03   -0.35496E-04   -0.14479E-04 15803   0.184E-02    0.798E-02
RMM:   8    -0.694415275661E+03   -0.18749E-04   -0.63248E-05 14179   0.122E-02
  18 F= -.69441528E+03 E0= -.69401365E+03  d E =-.115650E-01  mag=    82.5473
       N       E                     dE             d eps       ncg     rms          rms(c)
DAV:   1    -0.694420027798E+03   -0.47709E-02   -0.13940E-01 27680   0.406E-01    0.175E-01
RMM:   2    -0.694420610000E+03   -0.58220E-03   -0.42573E-03 23247   0.815E-02    0.236E-01
RMM:   3    -0.694420501539E+03    0.10846E-03   -0.79201E-04 20304   0.426E-02    0.129E-01
RMM:   4    -0.694420432509E+03    0.69031E-04   -0.22081E-04 16607   0.237E-02    0.685E-02
RMM:   5    -0.694420394454E+03    0.38055E-04   -0.61318E-05 13599   0.122E-02    0.397E-02
RMM:   6    -0.694420378901E+03    0.15553E-04   -0.21607E-05 12493   0.734E-03    0.351E-02
RMM:   7    -0.694420381615E+03   -0.27139E-05   -0.17947E-05 12459   0.672E-03    0.278E-02
RMM:   8    -0.694420389543E+03   -0.79283E-05   -0.87498E-06 12197   0.483E-03
  19 F= -.69442039E+03 E0= -.69401876E+03  d E =-.166788E-01  mag=    82.5450
       N       E                     dE             d eps       ncg     rms          rms(c)
DAV:   1    -0.694428853869E+03   -0.84723E-02   -0.29821E-01 26560   0.619E-01    0.297E-01
RMM:   2    -0.694430065605E+03   -0.12117E-02   -0.85975E-03 24834   0.133E-01    0.310E-01
RMM:   3    -0.694430263790E+03   -0.19819E-03   -0.16914E-03 22610   0.618E-02    0.205E-01
RMM:   4    -0.694430223353E+03    0.40437E-04   -0.52892E-04 19744   0.378E-02    0.103E-01
RMM:   5    -0.694430246505E+03   -0.23152E-04   -0.17197E-04 16542   0.204E-02    0.758E-02
RMM:   6    -0.694430267992E+03   -0.21487E-04   -0.72553E-05 14557   0.129E-02    0.529E-02
RMM:   7    -0.694430282819E+03   -0.14827E-04   -0.48007E-05 13840   0.113E-02    0.488E-02
RMM:   8    -0.694430275260E+03    0.75586E-05   -0.21517E-05 13052   0.782E-03
  20 F= -.69443028E+03 E0= -.69402870E+03  d E =-.988572E-02  mag=    82.5425
       N       E                     dE             d eps       ncg     rms          rms(c)
DAV:   1    -0.694430258571E+03    0.24248E-04   -0.40613E-05 18864   0.137E-02    0.208E-02
RMM:   2    -0.694430236809E+03    0.21762E-04   -0.27639E-05 12216   0.920E-03    0.432E-02
RMM:   3    -0.694430225510E+03    0.11299E-04   -0.11128E-05 11326   0.573E-03    0.144E-02
RMM:   4    -0.694430216064E+03    0.94464E-05   -0.18921E-06  8923   0.283E-03    0.127E-02
RMM:   5    -0.694430207725E+03    0.83391E-05   -0.18975E-07  5514   0.197E-03    0.120E-02
RMM:   6    -0.694430199167E+03    0.85579E-05   -0.51434E-08  5084   0.192E-03    0.114E-02
RMM:   7    -0.694430184018E+03    0.15149E-04   -0.11562E-07  5512   0.201E-03    0.114E-02
RMM:   8    -0.694430162005E+03    0.22013E-04   -0.35398E-07  6329   0.214E-03
  21 F= -.69443016E+03 E0= -.69402858E+03  d E =-.977246E-02  mag=    82.5391
       N       E                     dE             d eps       ncg     rms          rms(c)
DAV:   1    -0.694437936982E+03   -0.77530E-02   -0.12617E-01 27120   0.398E-01    0.190E-01
RMM:   2    -0.694438631563E+03   -0.69458E-03   -0.28950E-03 24723   0.817E-02    0.155E-01
RMM:   3    -0.694438663122E+03   -0.31559E-04   -0.54719E-04 19986   0.347E-02    0.105E-01
RMM:   4    -0.694438660954E+03    0.21681E-05   -0.17446E-04 16563   0.232E-02    0.754E-02
RMM:   5    -0.694438655522E+03    0.54324E-05   -0.62221E-05 14579   0.134E-02    0.442E-02
RMM:   6    -0.694438663001E+03   -0.74795E-05   -0.29017E-05 13954   0.832E-03    0.354E-02
RMM:   7    -0.694438660954E+03    0.20470E-05   -0.15535E-05 13140   0.659E-03    0.268E-02
RMM:   8    -0.694438651452E+03    0.95023E-05   -0.60704E-06 12148   0.455E-03
  22 F= -.69443865E+03 E0= -.69403710E+03  d E =-.848945E-02  mag=    82.5365
       N       E                     dE             d eps       ncg     rms          rms(c)
DAV:   1    -0.694441517546E+03   -0.28566E-02   -0.16510E-01 27424   0.455E-01    0.217E-01
RMM:   2    -0.694442373645E+03   -0.85610E-03   -0.37853E-03 24798   0.933E-02    0.176E-01
RMM:   3    -0.694442408397E+03   -0.34752E-04   -0.70710E-04 21022   0.389E-02    0.110E-01
RMM:   4    -0.694442403601E+03    0.47954E-05   -0.21036E-04 17142   0.252E-02    0.870E-02
RMM:   5    -0.694442380751E+03    0.22851E-04   -0.79751E-05 15150   0.154E-02    0.500E-02
RMM:   6    -0.694442369006E+03    0.11745E-04   -0.39060E-05 14205   0.967E-03    0.412E-02
RMM:   7    -0.694442351198E+03    0.17808E-04   -0.21444E-05 13499   0.768E-03    0.286E-02
RMM:   8    -0.694442330777E+03    0.20421E-04   -0.81570E-06 12400   0.515E-03
  23 F= -.69444233E+03 E0= -.69404080E+03  d E =-.121688E-01  mag=    82.5339
       N       E                     dE             d eps       ncg     rms          rms(c)
DAV:   1    -0.694450109405E+03   -0.77582E-02   -0.94563E-02 27024   0.349E-01    0.176E-01
RMM:   2    -0.694450580901E+03   -0.47150E-03   -0.20763E-03 24512   0.715E-02    0.136E-01
RMM:   3    -0.694450589743E+03   -0.88429E-05   -0.39068E-04 19038   0.293E-02    0.863E-02
RMM:   4    -0.694450582744E+03    0.69998E-05   -0.12157E-04 16004   0.199E-02    0.757E-02
RMM:   5    -0.694450561683E+03    0.21061E-04   -0.47510E-05 14471   0.119E-02    0.416E-02
RMM:   6    -0.694450543977E+03    0.17705E-04   -0.24335E-05 14028   0.785E-03    0.364E-02
RMM:   7    -0.694450521609E+03    0.22369E-04   -0.13909E-05 12935   0.637E-03    0.238E-02
RMM:   8    -0.694450506810E+03    0.14799E-04   -0.47737E-06 11969   0.412E-03
  24 F= -.69445051E+03 E0= -.69404896E+03  d E =-.817603E-02  mag=    82.5312
       N       E                     dE             d eps       ncg     rms          rms(c)
DAV:   1    -0.694455042373E+03   -0.45208E-02   -0.68195E-01 25344   0.936E-01    0.470E-01
RMM:   2    -0.694458215534E+03   -0.31732E-02   -0.15011E-02 24962   0.192E-01    0.367E-01
RMM:   3    -0.694458629707E+03   -0.41417E-03   -0.28294E-03 25066   0.790E-02    0.219E-01
RMM:   4    -0.694458612933E+03    0.16774E-04   -0.87156E-04 21381   0.501E-02    0.195E-01
RMM:   5    -0.694458521320E+03    0.91612E-04   -0.33371E-04 18997   0.307E-02    0.101E-01
RMM:   6    -0.694458502325E+03    0.18995E-04   -0.18502E-04 17063   0.204E-02    0.900E-02
RMM:   7    -0.694458456625E+03    0.45700E-04   -0.10738E-04 15669   0.168E-02    0.571E-02
RMM:   8    -0.694458422676E+03    0.33950E-04   -0.37382E-05 14391   0.104E-02
  25 F= -.69445842E+03 E0= -.69405686E+03  d E =-.160919E-01  mag=    82.5284
       N       E                     dE             d eps       ncg     rms          rms(c)
DAV:   1    -0.694462778946E+03   -0.43223E-02   -0.49786E-02 28336   0.247E-01    0.129E-01
RMM:   2    -0.694463005228E+03   -0.22628E-03   -0.10240E-03 23097   0.510E-02    0.915E-02
RMM:   3    -0.694463031539E+03   -0.26311E-04   -0.20173E-04 16808   0.230E-02    0.976E-02
RMM:   4    -0.694463002353E+03    0.29186E-04   -0.80167E-05 15378   0.166E-02    0.414E-02
RMM:   5    -0.694462994610E+03    0.77430E-05   -0.26210E-05 13905   0.796E-03    0.351E-02
RMM:   6    -0.694462968475E+03    0.26135E-04   -0.14075E-05 13501   0.649E-03    0.264E-02
RMM:   7    -0.694462946476E+03    0.21999E-04   -0.70103E-06 12435   0.482E-03    0.188E-02
RMM:   8    -0.694462929694E+03    0.16782E-04   -0.21557E-06 10706   0.308E-03
  26 F= -.69446293E+03 E0= -.69406138E+03  d E =-.450702E-02  mag=    82.5255
       N       E                     dE             d eps       ncg     rms          rms(c)
DAV:   1    -0.694466893607E+03   -0.39471E-02   -0.20808E-01 27104   0.504E-01    0.262E-01
RMM:   2    -0.694467874167E+03   -0.98056E-03   -0.42177E-03 24935   0.104E-01    0.179E-01
RMM:   3    -0.694468087413E+03   -0.21325E-03   -0.80462E-04 21783   0.459E-02    0.174E-01
RMM:   4    -0.694468019049E+03    0.68365E-04   -0.30894E-04 18273   0.307E-02    0.824E-02
RMM:   5    -0.694468029660E+03   -0.10611E-04   -0.10971E-04 15802   0.167E-02    0.632E-02
RMM:   6    -0.694468011430E+03    0.18230E-04   -0.57377E-05 14923   0.122E-02    0.438E-02
RMM:   7    -0.694467982057E+03    0.29374E-04   -0.26588E-05 14094   0.891E-03    0.319E-02
RMM:   8    -0.694467955493E+03    0.26563E-04   -0.83000E-06 12691   0.531E-03
  27 F= -.69446796E+03 E0= -.69406646E+03  d E =-.953282E-02  mag=    82.5226
       N       E                     dE             d eps       ncg     rms          rms(c)
DAV:   1    -0.694466449630E+03    0.15324E-02   -0.83434E-01 25424   0.101E+00    0.524E-01
RMM:   2    -0.694470260664E+03   -0.38110E-02   -0.16873E-02 24998   0.207E-01    0.359E-01
RMM:   3    -0.694471210213E+03   -0.94955E-03   -0.31809E-03 25046   0.910E-02    0.341E-01
RMM:   4    -0.694470948320E+03    0.26189E-03   -0.12144E-03 21862   0.598E-02    0.168E-01
RMM:   5    -0.694470948285E+03    0.34459E-07   -0.43272E-04 19796   0.321E-02    0.123E-01
RMM:   6    -0.694470908708E+03    0.39577E-04   -0.22359E-04 17644   0.234E-02    0.929E-02
RMM:   7    -0.694470843527E+03    0.65180E-04   -0.11583E-04 15642   0.181E-02    0.613E-02
RMM:   8    -0.694470785508E+03    0.58020E-04   -0.35222E-05 14674   0.102E-02
  28 F= -.69447079E+03 E0= -.69406932E+03  d E =-.123628E-01  mag=    82.5194
       N       E                     dE             d eps       ncg     rms          rms(c)
DAV:   1    -0.694479793434E+03   -0.89499E-02   -0.15401E-01 26848   0.447E-01    0.211E-01
RMM:   2    -0.694480505703E+03   -0.71227E-03   -0.32955E-03 24880   0.891E-02    0.157E-01
RMM:   3    -0.694480575155E+03   -0.69452E-04   -0.63983E-04 21159   0.406E-02    0.146E-01
RMM:   4    -0.694480511280E+03    0.63875E-04   -0.21770E-04 17329   0.267E-02    0.750E-02
RMM:   5    -0.694480469091E+03    0.42189E-04   -0.76086E-05 15354   0.144E-02    0.585E-02
RMM:   6    -0.694480407061E+03    0.62030E-04   -0.36730E-05 14777   0.102E-02    0.484E-02
RMM:   7    -0.694480343991E+03    0.63070E-04   -0.21872E-05 14066   0.800E-03    0.283E-02
RMM:   8    -0.694480301547E+03    0.42444E-04   -0.76689E-06 12876   0.497E-03
  29 F= -.69448030E+03 E0= -.69407889E+03  d E =-.951604E-02  mag=    82.5161
       N       E                     dE             d eps       ncg     rms          rms(c)
DAV:   1    -0.694484568692E+03   -0.42247E-02   -0.94567E-01 25376   0.111E+00    0.518E-01
RMM:   2    -0.694488687272E+03   -0.41186E-02   -0.20074E-02 24961   0.220E-01    0.372E-01
RMM:   3    -0.694489501482E+03   -0.81421E-03   -0.37971E-03 25331   0.975E-02    0.321E-01
RMM:   4    -0.694489305595E+03    0.19589E-03   -0.13137E-03 22177   0.623E-02    0.182E-01
RMM:   5    -0.694489226160E+03    0.79435E-04   -0.45400E-04 19962   0.337E-02    0.119E-01
RMM:   6    -0.694489126480E+03    0.99679E-04   -0.21711E-04 17508   0.228E-02    0.105E-01
RMM:   7    -0.694489020534E+03    0.10595E-03   -0.12851E-04 16006   0.190E-02    0.650E-02
RMM:   8    -0.694488936491E+03    0.84043E-04   -0.43219E-05 14930   0.112E-02
  30 F= -.69448894E+03 E0= -.69408775E+03  d E =-.181510E-01  mag=    82.5123
       N       E                     dE             d eps       ncg     rms          rms(c)
DAV:   1    -0.694489076642E+03   -0.56108E-04   -0.77226E-02 27856   0.317E-01    0.150E-01
RMM:   2    -0.694489145311E+03   -0.68668E-04   -0.16530E-03 24370   0.635E-02    0.113E-01
RMM:   3    -0.694489224995E+03   -0.79684E-04   -0.32457E-04 18047   0.290E-02    0.103E-01
RMM:   4    -0.694489173920E+03    0.51075E-04   -0.12231E-04 16012   0.202E-02    0.546E-02
RMM:   5    -0.694489115870E+03    0.58050E-04   -0.39092E-05 14224   0.103E-02    0.385E-02
RMM:   6    -0.694489080743E+03    0.35127E-04   -0.17700E-05 13445   0.680E-03    0.306E-02
RMM:   7    -0.694489057709E+03    0.23033E-04   -0.10220E-05 12604   0.553E-03    0.239E-02
RMM:   8    -0.694489053434E+03    0.42757E-05   -0.38572E-06 11218   0.374E-03
  31 F= -.69448905E+03 E0= -.69408786E+03  d E =-.182679E-01  mag=    82.5089
       N       E                     dE             d eps       ncg     rms          rms(c)
DAV:   1    -0.694489214264E+03   -0.15655E-03   -0.86736E-03 27744   0.106E-01    0.519E-02
RMM:   2    -0.694489294161E+03   -0.79897E-04   -0.18848E-04 16170   0.213E-02    0.408E-02
RMM:   3    -0.694489292256E+03    0.19055E-05   -0.36898E-05 14794   0.105E-02    0.412E-02
RMM:   4    -0.694489290404E+03    0.18515E-05   -0.13092E-05 12579   0.663E-03    0.223E-02
RMM:   5    -0.694489291884E+03   -0.14799E-05   -0.34081E-06 10959   0.342E-03    0.186E-02
RMM:   6    -0.694489284709E+03    0.71749E-05   -0.13927E-06  8961   0.266E-03    0.164E-02
RMM:   7    -0.694489278254E+03    0.64550E-05   -0.92440E-07  8118   0.256E-03    0.153E-02
RMM:   8    -0.694489273398E+03    0.48559E-05   -0.10765E-07  5684   0.216E-03
  32 F= -.69448927E+03 E0= -.69408809E+03  d E =-.184879E-01  mag=    82.5054
       N       E                     dE             d eps       ncg     rms          rms(c)
DAV:   1    -0.694493664820E+03   -0.43866E-02   -0.46631E-02 27632   0.261E-01    0.901E-02
RMM:   2    -0.694493847349E+03   -0.18253E-03   -0.12531E-03 23662   0.521E-02    0.937E-02
RMM:   3    -0.694493805522E+03    0.41827E-04   -0.21848E-04 16796   0.229E-02    0.692E-02
RMM:   4    -0.694493776855E+03    0.28667E-04   -0.64210E-05 15068   0.146E-02    0.395E-02
RMM:   5    -0.694493736662E+03    0.40193E-04   -0.19851E-05 13130   0.732E-03    0.323E-02
RMM:   6    -0.694493697298E+03    0.39364E-04   -0.85562E-06 12462   0.477E-03    0.244E-02
RMM:   7    -0.694493669752E+03    0.27546E-04   -0.65053E-06 12450   0.454E-03    0.229E-02
RMM:   8    -0.694493658816E+03    0.10936E-04   -0.27855E-06 11165   0.333E-03
  33 F= -.69449366E+03 E0= -.69409251E+03  d E =-.438542E-02  mag=    82.5022
       N       E                     dE             d eps       ncg     rms          rms(c)
DAV:   1    -0.694494848293E+03   -0.11785E-02   -0.40010E-02 28176   0.242E-01    0.833E-02
RMM:   2    -0.694495015070E+03   -0.16678E-03   -0.10742E-03 22998   0.481E-02    0.850E-02
RMM:   3    -0.694494979053E+03    0.36017E-04   -0.18487E-04 16409   0.211E-02    0.624E-02
RMM:   4    -0.694494958426E+03    0.20627E-04   -0.54710E-05 14937   0.135E-02    0.368E-02
RMM:   5    -0.694494927743E+03    0.30683E-04   -0.17333E-05 12932   0.688E-03    0.307E-02
RMM:   6    -0.694494900635E+03    0.27108E-04   -0.75778E-06 12228   0.453E-03    0.230E-02
RMM:   7    -0.694494885318E+03    0.15317E-04   -0.58251E-06 12421   0.427E-03    0.222E-02
RMM:   8    -0.694494883215E+03    0.21029E-05   -0.24625E-06 10908   0.318E-03
  34 F= -.69449488E+03 E0= -.69409379E+03  d E =-.560982E-02  mag=    82.4990
       N       E                     dE             d eps       ncg     rms          rms(c)
DAV:   1    -0.694498565346E+03   -0.36800E-02   -0.39500E-02 28224   0.239E-01    0.954E-02
RMM:   2    -0.694498668097E+03   -0.10275E-03   -0.97464E-04 23129   0.496E-02    0.750E-02
RMM:   3    -0.694498683871E+03   -0.15774E-04   -0.17409E-04 16490   0.201E-02    0.654E-02
RMM:   4    -0.694498664903E+03    0.18967E-04   -0.54833E-05 14906   0.137E-02    0.441E-02
RMM:   5    -0.694498646363E+03    0.18541E-04   -0.21380E-05 13407   0.753E-03    0.364E-02
RMM:   6    -0.694498635628E+03    0.10734E-04   -0.10592E-05 12742   0.541E-03    0.190E-02
RMM:   7    -0.694498656428E+03   -0.20800E-04   -0.59881E-06 12408   0.420E-03    0.223E-02
RMM:   8    -0.694498672442E+03   -0.16013E-04   -0.28302E-06 11078   0.349E-03
  35 F= -.69449867E+03 E0= -.69409760E+03  d E =-.378923E-02  mag=    82.4959
       N       E                     dE             d eps       ncg     rms          rms(c)
DAV:   1    -0.694503142822E+03   -0.44864E-02   -0.35551E-01 26192   0.719E-01    0.285E-01
RMM:   2    -0.694504361193E+03   -0.12184E-02   -0.87737E-03 24940   0.149E-01    0.225E-01
RMM:   3    -0.694504617568E+03   -0.25638E-03   -0.15854E-03 23929   0.606E-02    0.189E-01
RMM:   4    -0.694504478133E+03    0.13943E-03   -0.45082E-04 20149   0.364E-02    0.116E-01
RMM:   5    -0.694504395999E+03    0.82134E-04   -0.20178E-04 17281   0.221E-02    0.105E-01
RMM:   6    -0.694504305548E+03    0.90451E-04   -0.89100E-05 15407   0.149E-02    0.451E-02
RMM:   7    -0.694504322531E+03   -0.16983E-04   -0.51875E-05 14869   0.114E-02    0.545E-02
RMM:   8    -0.694504347226E+03   -0.24695E-04   -0.25197E-05 13492   0.915E-03
  36 F= -.69450435E+03 E0= -.69410336E+03  d E =-.946401E-02  mag=    82.4926
       N       E                     dE             d eps       ncg     rms          rms(c)
DAV:   1    -0.694506624796E+03   -0.23023E-02   -0.90669E-03 28480   0.112E-01    0.457E-02
RMM:   2    -0.694506679589E+03   -0.54793E-04   -0.22756E-04 16721   0.229E-02    0.468E-02
RMM:   3    -0.694506703935E+03   -0.24346E-04   -0.44939E-05 14889   0.109E-02    0.397E-02
RMM:   4    -0.694506716590E+03   -0.12656E-04   -0.12496E-05 12890   0.657E-03    0.244E-02
RMM:   5    -0.694506735743E+03   -0.19153E-04   -0.47147E-06 11509   0.376E-03    0.204E-02
RMM:   6    -0.694506781895E+03   -0.46152E-04   -0.24939E-06 10724   0.313E-03    0.155E-02
RMM:   7    -0.694506822144E+03   -0.40249E-04   -0.16692E-06  9327   0.274E-03    0.145E-02
RMM:   8    -0.694506861124E+03   -0.38981E-04   -0.75562E-07  7582   0.245E-03
  37 F= -.69450686E+03 E0= -.69410587E+03  d E =-.251390E-02  mag=    82.4894
       N       E                     dE             d eps       ncg     rms          rms(c)
DAV:   1    -0.694513968791E+03   -0.71466E-02   -0.81382E-02 27424   0.336E-01    0.129E-01
RMM:   2    -0.694514201813E+03   -0.23302E-03   -0.19189E-03 24142   0.673E-02    0.111E-01
RMM:   3    -0.694514275434E+03   -0.73621E-04   -0.36209E-04 18504   0.281E-02    0.969E-02
RMM:   4    -0.694514246846E+03    0.28589E-04   -0.10908E-04 15667   0.187E-02    0.540E-02
RMM:   5    -0.694514243249E+03    0.35968E-05   -0.46833E-05 14046   0.110E-02    0.489E-02
RMM:   6    -0.694514249603E+03   -0.63544E-05   -0.19948E-05 13316   0.723E-03    0.247E-02
RMM:   7    -0.694514284376E+03   -0.34773E-04   -0.12212E-05 12665   0.575E-03    0.279E-02
RMM:   8    -0.694514319124E+03   -0.34748E-04   -0.58181E-06 11710   0.450E-03
  38 F= -.69451432E+03 E0= -.69411335E+03  d E =-.997190E-02  mag=    82.4863
       N       E                     dE             d eps       ncg     rms          rms(c)
DAV:   1    -0.694524173417E+03   -0.98890E-02   -0.32561E-01 25968   0.672E-01    0.257E-01
RMM:   2    -0.694525192899E+03   -0.10195E-02   -0.76286E-03 24937   0.134E-01    0.220E-01
RMM:   3    -0.694525466583E+03   -0.27368E-03   -0.14365E-03 22902   0.557E-02    0.188E-01
RMM:   4    -0.694525331818E+03    0.13477E-03   -0.40318E-04 19489   0.342E-02    0.102E-01
RMM:   5    -0.694525293509E+03    0.38309E-04   -0.18411E-04 16914   0.209E-02    0.944E-02
RMM:   6    -0.694525245908E+03    0.47601E-04   -0.75885E-05 15146   0.136E-02    0.472E-02
RMM:   7    -0.694525273168E+03   -0.27260E-04   -0.46169E-05 14384   0.108E-02    0.522E-02
RMM:   8    -0.694525310645E+03   -0.37477E-04   -0.21206E-05 13484   0.808E-03
  39 F= -.69452531E+03 E0= -.69412434E+03  d E =-.209634E-01  mag=    82.4832
       N       E                     dE             d eps       ncg     rms          rms(c)
DAV:   1    -0.694525495796E+03   -0.22263E-03   -0.74079E-02 27744   0.321E-01    0.123E-01
RMM:   2    -0.694525733915E+03   -0.23812E-03   -0.17590E-03 24017   0.641E-02    0.109E-01
RMM:   3    -0.694525808346E+03   -0.74430E-04   -0.33429E-04 18365   0.271E-02    0.951E-02
RMM:   4    -0.694525788372E+03    0.19973E-04   -0.10144E-04 15573   0.182E-02    0.525E-02
RMM:   5    -0.694525794671E+03   -0.62985E-05   -0.42925E-05 14020   0.105E-02    0.452E-02
RMM:   6    -0.694525817881E+03   -0.23210E-04   -0.17693E-05 13321   0.687E-03    0.242E-02
RMM:   7    -0.694525860610E+03   -0.42729E-04   -0.11126E-05 12742   0.551E-03    0.264E-02
RMM:   8    -0.694525904279E+03   -0.43669E-04   -0.55158E-06 11872   0.436E-03
  40 F= -.69452590E+03 E0= -.69412492E+03  d E =-.215571E-01  mag=    82.4802
       N       E                     dE             d eps       ncg     rms          rms(c)
DAV:   1    -0.694526181652E+03   -0.32104E-03   -0.11881E-02 28208   0.128E-01    0.498E-02
RMM:   2    -0.694526320145E+03   -0.13849E-03   -0.27419E-04 17133   0.254E-02    0.418E-02
RMM:   3    -0.694526376679E+03   -0.56533E-04   -0.47179E-05 14971   0.106E-02    0.341E-02
RMM:   4    -0.694526412894E+03   -0.36215E-04   -0.13827E-05 12806   0.658E-03    0.258E-02
RMM:   5    -0.694526467197E+03   -0.54303E-04   -0.56331E-06 11828   0.419E-03    0.200E-02
RMM:   6    -0.694526552547E+03   -0.85350E-04   -0.20781E-06  9492   0.280E-03    0.129E-02
RMM:   7    -0.694526614221E+03   -0.61674E-04   -0.10175E-06  8393   0.251E-03    0.134E-02
RMM:   8    -0.694526649722E+03   -0.35501E-04   -0.33924E-07  6804   0.227E-03
  41 F= -.69452665E+03 E0= -.69412568E+03  d E =-.223025E-01  mag=    82.4772
       N       E                     dE             d eps       ncg     rms          rms(c)
DAV:   1    -0.694530893035E+03   -0.42788E-02   -0.20121E-02 27728   0.167E-01    0.465E-02
RMM:   2    -0.694530966007E+03   -0.72972E-04   -0.49387E-04 18820   0.323E-02    0.454E-02
RMM:   3    -0.694531002888E+03   -0.36881E-04   -0.82284E-05 14637   0.145E-02    0.424E-02
RMM:   4    -0.694531019107E+03   -0.16218E-04   -0.21815E-05 12965   0.837E-03    0.217E-02
RMM:   5    -0.694531052792E+03   -0.33685E-04   -0.57233E-06 11487   0.406E-03    0.178E-02
RMM:   6    -0.694531099721E+03   -0.46929E-04   -0.28240E-06 10029   0.301E-03    0.150E-02
RMM:   7    -0.694531154118E+03   -0.54397E-04   -0.17529E-06  9483   0.280E-03    0.134E-02
RMM:   8    -0.694531190771E+03   -0.36653E-04   -0.41112E-07  7041   0.224E-03
  42 F= -.69453119E+03 E0= -.69413021E+03  d E =-.454105E-02  mag=    82.4745
       N       E                     dE             d eps       ncg     rms          rms(c)
DAV:   1    -0.694534441619E+03   -0.32875E-02   -0.14644E-01 26176   0.451E-01    0.122E-01
RMM:   2    -0.694534781161E+03   -0.33954E-03   -0.35777E-03 23809   0.872E-02    0.117E-01
RMM:   3    -0.694534899918E+03   -0.11876E-03   -0.59784E-04 20430   0.370E-02    0.106E-01
RMM:   4    -0.694534891716E+03    0.82022E-05   -0.15075E-04 15978   0.210E-02    0.513E-02
RMM:   5    -0.694534912535E+03   -0.20819E-04   -0.49249E-05 13776   0.114E-02    0.425E-02
RMM:   6    -0.694534943355E+03   -0.30820E-04   -0.21958E-05 12939   0.698E-03    0.288E-02
RMM:   7    -0.694534991619E+03   -0.48264E-04   -0.14839E-05 12630   0.634E-03    0.282E-02
RMM:   8    -0.694535023060E+03   -0.31441E-04   -0.69517E-06 11896   0.483E-03
  43 F= -.69453502E+03 E0= -.69413401E+03  d E =-.837334E-02  mag=    82.4720
       N       E                     dE             d eps       ncg     rms          rms(c)
DAV:   1    -0.694535314064E+03   -0.32244E-03   -0.71021E-03 27328   0.996E-02    0.291E-02
RMM:   2    -0.694535389424E+03   -0.75361E-04   -0.17611E-04 15620   0.195E-02    0.332E-02
RMM:   3    -0.694535412587E+03   -0.23163E-04   -0.29017E-05 13426   0.929E-03    0.253E-02
RMM:   4    -0.694535435872E+03   -0.23285E-04   -0.75461E-06 11935   0.505E-03    0.165E-02
RMM:   5    -0.694535473618E+03   -0.37746E-04   -0.16002E-06  8812   0.275E-03    0.117E-02
RMM:   6    -0.694535526549E+03   -0.52931E-04   -0.46936E-07  6936   0.224E-03    0.111E-02
RMM:   7    -0.694535581738E+03   -0.55189E-04   -0.32363E-07  6409   0.216E-03    0.104E-02
RMM:   8    -0.694535618587E+03   -0.36850E-04   -0.52981E-08  5313   0.201E-03
  44 F= -.69453562E+03 E0= -.69413461E+03  d E =-.896887E-02  mag=    82.4696
       N       E                     dE             d eps       ncg     rms          rms(c)
DAV:   1    -0.694537440091E+03   -0.18584E-02   -0.10108E-02 27632   0.119E-01    0.451E-02
RMM:   2    -0.694537490535E+03   -0.50443E-04   -0.25424E-04 16838   0.233E-02    0.419E-02
RMM:   3    -0.694537527843E+03   -0.37309E-04   -0.45007E-05 14084   0.111E-02    0.327E-02
RMM:   4    -0.694537548683E+03   -0.20839E-04   -0.13687E-05 12514   0.665E-03    0.204E-02
RMM:   5    -0.694537578767E+03   -0.30085E-04   -0.39388E-06 11096   0.372E-03    0.140E-02
RMM:   6    -0.694537620638E+03   -0.41871E-04   -0.11639E-06  8080   0.249E-03    0.111E-02
RMM:   7    -0.694537680279E+03   -0.59641E-04   -0.87013E-07  7941   0.243E-03    0.105E-02
RMM:   8    -0.694537722003E+03   -0.41723E-04   -0.33204E-07  6502   0.224E-03
  45 F= -.69453772E+03 E0= -.69413670E+03  d E =-.210342E-02  mag=    82.4673
       N       E                     dE             d eps       ncg     rms          rms(c)
DAV:   1    -0.694539610314E+03   -0.19300E-02   -0.72092E-02 26880   0.317E-01    0.118E-01
RMM:   2    -0.694539820192E+03   -0.20988E-03   -0.17874E-03 23325   0.623E-02    0.107E-01
RMM:   3    -0.694539905348E+03   -0.85155E-04   -0.31606E-04 18235   0.269E-02    0.783E-02
RMM:   4    -0.694539922040E+03   -0.16692E-04   -0.95276E-05 14993   0.175E-02    0.497E-02
RMM:   5    -0.694539951218E+03   -0.29178E-04   -0.31770E-05 13105   0.946E-03    0.301E-02
RMM:   6    -0.694539995180E+03   -0.43961E-04   -0.12375E-05 12345   0.559E-03    0.217E-02
RMM:   7    -0.694540056332E+03   -0.61153E-04   -0.88152E-06 12348   0.507E-03    0.214E-02
RMM:   8    -0.694540100245E+03   -0.43913E-04   -0.44458E-06 11462   0.400E-03
  46 F= -.69454010E+03 E0= -.69413905E+03  d E =-.448166E-02  mag=    82.4652
       N       E                     dE             d eps       ncg     rms          rms(c)
DAV:   1    -0.694541974993E+03   -0.19187E-02   -0.18342E-02 27696   0.153E-01    0.758E-02
RMM:   2    -0.694542065524E+03   -0.90531E-04   -0.41377E-04 18961   0.316E-02    0.566E-02
RMM:   3    -0.694542124742E+03   -0.59217E-04   -0.81964E-05 15148   0.141E-02    0.481E-02
RMM:   4    -0.694542135862E+03   -0.11120E-04   -0.29923E-05 12987   0.968E-03    0.264E-02
RMM:   5    -0.694542178802E+03   -0.42940E-04   -0.10365E-05 12166   0.543E-03    0.238E-02
RMM:   6    -0.694542235303E+03   -0.56501E-04   -0.55647E-06 11479   0.412E-03    0.165E-02
RMM:   7    -0.694542281256E+03   -0.45953E-04   -0.26553E-06 10723   0.316E-03    0.117E-02
RMM:   8    -0.694542315111E+03   -0.33855E-04   -0.47834E-07  7183   0.233E-03
  47 F= -.69454232E+03 E0= -.69414117E+03  d E =-.221487E-02  mag=    82.4633
       N       E                     dE             d eps       ncg     rms          rms(c)
DAV:   1    -0.694543575971E+03   -0.12947E-02   -0.10089E-01 27328   0.358E-01    0.177E-01
RMM:   2    -0.694543984645E+03   -0.40867E-03   -0.22506E-03 23945   0.736E-02    0.130E-01
RMM:   3    -0.694544154324E+03   -0.16968E-03   -0.44342E-04 19522   0.312E-02    0.106E-01
RMM:   4    -0.694544139185E+03    0.15139E-04   -0.13822E-04 15959   0.206E-02    0.616E-02
RMM:   5    -0.694544182051E+03   -0.42866E-04   -0.53548E-05 14225   0.120E-02    0.537E-02
RMM:   6    -0.694544233913E+03   -0.51862E-04   -0.26934E-05 13535   0.823E-03    0.338E-02
RMM:   7    -0.694544289069E+03   -0.55157E-04   -0.14301E-05 12879   0.620E-03    0.228E-02
RMM:   8    -0.694544330005E+03   -0.40935E-04   -0.56525E-06 12051   0.448E-03
  48 F= -.69454433E+03 E0= -.69414298E+03  d E =-.422976E-02  mag=    82.4617
       N       E                     dE             d eps       ncg     rms          rms(c)
DAV:   1    -0.694545709805E+03   -0.14207E-02   -0.19612E-02 28000   0.156E-01    0.841E-02
RMM:   2    -0.694545830471E+03   -0.12067E-03   -0.41283E-04 19193   0.318E-02    0.588E-02
RMM:   3    -0.694545885158E+03   -0.54687E-04   -0.77904E-05 15142   0.140E-02    0.452E-02
RMM:   4    -0.694545899665E+03   -0.14507E-04   -0.28554E-05 13430   0.967E-03    0.274E-02
RMM:   5    -0.694545941349E+03   -0.41684E-04   -0.10172E-05 12173   0.550E-03    0.214E-02
RMM:   6    -0.694546002634E+03   -0.61285E-04   -0.56254E-06 11581   0.416E-03    0.149E-02
RMM:   7    -0.694546051063E+03   -0.48429E-04   -0.31348E-06 11002   0.346E-03    0.107E-02
RMM:   8    -0.694546087883E+03   -0.36821E-04   -0.68780E-07  7731   0.244E-03
  49 F= -.69454609E+03 E0= -.69414468E+03  d E =-.175788E-02  mag=    82.4602
       N       E                     dE             d eps       ncg     rms          rms(c)
DAV:   1    -0.694546706384E+03   -0.65532E-03   -0.71355E-02 27728   0.296E-01    0.159E-01
RMM:   2    -0.694547040113E+03   -0.33373E-03   -0.14918E-03 23594   0.604E-02    0.112E-01
RMM:   3    -0.694547151295E+03   -0.11118E-03   -0.28606E-04 18031   0.257E-02    0.897E-02
RMM:   4    -0.694547143021E+03    0.82748E-05   -0.98464E-05 15360   0.178E-02    0.528E-02
RMM:   5    -0.694547174053E+03   -0.31033E-04   -0.35895E-05 13765   0.993E-03    0.378E-02
RMM:   6    -0.694547226954E+03   -0.52901E-04   -0.18463E-05 13191   0.686E-03    0.258E-02
RMM:   7    -0.694547275621E+03   -0.48666E-04   -0.94082E-06 12603   0.541E-03    0.194E-02
RMM:   8    -0.694547313056E+03   -0.37435E-04   -0.32164E-06 11694   0.360E-03
  50 F= -.69454731E+03 E0= -.69414583E+03  d E =-.298305E-02  mag=    82.4590
       N       E                     dE             d eps       ncg     rms          rms(c)
DAV:   1    -0.694548229356E+03   -0.95374E-03   -0.99264E-03 28176   0.120E-01    0.556E-02
RMM:   2    -0.694548306949E+03   -0.77592E-04   -0.22561E-04 16991   0.246E-02    0.423E-02
RMM:   3    -0.694548345279E+03   -0.38330E-04   -0.44739E-05 14679   0.118E-02    0.357E-02
RMM:   4    -0.694548360506E+03   -0.15227E-04   -0.15347E-05 13011   0.730E-03    0.199E-02
RMM:   5    -0.694548392304E+03   -0.31798E-04   -0.45392E-06 11753   0.395E-03    0.140E-02
RMM:   6    -0.694548441269E+03   -0.48965E-04   -0.18932E-06 10177   0.290E-03    0.102E-02
RMM:   7    -0.694548492622E+03   -0.51352E-04   -0.11156E-06  9112   0.263E-03    0.721E-03
RMM:   8    -0.694548533522E+03   -0.40900E-04   -0.20670E-07  6224   0.224E-03
  51 F= -.69454853E+03 E0= -.69414706E+03  d E =-.122047E-02  mag=    82.4579
       N       E                     dE             d eps       ncg     rms          rms(c)
DAV:   1    -0.694549108415E+03   -0.61579E-03   -0.33284E-02 27696   0.220E-01    0.101E-01
RMM:   2    -0.694549262321E+03   -0.15391E-03   -0.73590E-04 23016   0.449E-02    0.712E-02
RMM:   3    -0.694549326214E+03   -0.63893E-04   -0.14035E-04 15745   0.188E-02    0.549E-02
RMM:   4    -0.694549336607E+03   -0.10393E-04   -0.47617E-05 14604   0.131E-02    0.358E-02
RMM:   5    -0.694549361463E+03   -0.24856E-04   -0.15150E-05 12896   0.660E-03    0.231E-02
RMM:   6    -0.694549405576E+03   -0.44113E-04   -0.68490E-06 12451   0.455E-03    0.176E-02
RMM:   7    -0.694549453634E+03   -0.48058E-04   -0.44531E-06 12190   0.386E-03    0.137E-02
RMM:   8    -0.694549490731E+03   -0.37097E-04   -0.16716E-06 10349   0.288E-03
  52 F= -.69454949E+03 E0= -.69414804E+03  d E =-.217768E-02  mag=    82.4569
       N       E                     dE             d eps       ncg     rms          rms(c)
DAV:   1    -0.694550428624E+03   -0.97499E-03   -0.12235E-02 27952   0.131E-01    0.646E-02
RMM:   2    -0.694550500848E+03   -0.72224E-04   -0.30137E-04 18081   0.278E-02    0.522E-02
RMM:   3    -0.694550538505E+03   -0.37657E-04   -0.58351E-05 14883   0.128E-02    0.374E-02
RMM:   4    -0.694550551109E+03   -0.12604E-04   -0.20278E-05 13520   0.831E-03    0.248E-02
RMM:   5    -0.694550575337E+03   -0.24228E-04   -0.64343E-06 12084   0.468E-03    0.164E-02
RMM:   6    -0.694550617242E+03   -0.41905E-04   -0.29023E-06 11158   0.333E-03    0.128E-02
RMM:   7    -0.694550656044E+03   -0.38802E-04   -0.17137E-06 10222   0.287E-03    0.695E-03
RMM:   8    -0.694550688346E+03   -0.32302E-04   -0.25838E-07  6408   0.222E-03
  53 F= -.69455069E+03 E0= -.69414923E+03  d E =-.119761E-02  mag=    82.4560
       N       E                     dE             d eps       ncg     rms          rms(c)
DAV:   1    -0.694551194248E+03   -0.53820E-03   -0.43556E-02 27936   0.247E-01    0.121E-01
RMM:   2    -0.694551377387E+03   -0.18314E-03   -0.10524E-03 23674   0.522E-02    0.975E-02
RMM:   3    -0.694551450384E+03   -0.72997E-04   -0.20527E-04 16699   0.219E-02    0.652E-02
RMM:   4    -0.694551457594E+03   -0.72103E-05   -0.67085E-05 14878   0.153E-02    0.486E-02
RMM:   5    -0.694551469788E+03   -0.12194E-04   -0.22938E-05 13570   0.829E-03    0.297E-02
RMM:   6    -0.694551505573E+03   -0.35785E-04   -0.10219E-05 12800   0.558E-03    0.232E-02
RMM:   7    -0.694551544060E+03   -0.38487E-04   -0.68950E-06 12449   0.468E-03    0.134E-02
RMM:   8    -0.694551577730E+03   -0.33670E-04   -0.27146E-06 11304   0.322E-03
  54 F= -.69455158E+03 E0= -.69415010E+03  d E =-.208700E-02  mag=    82.4553
       N       E                     dE             d eps       ncg     rms          rms(c)
DAV:   1    -0.694552313500E+03   -0.76944E-03   -0.13878E-02 27968   0.136E-01    0.721E-02
RMM:   2    -0.694552395340E+03   -0.81840E-04   -0.27933E-04 18175   0.278E-02    0.468E-02
RMM:   3    -0.694552436196E+03   -0.40856E-04   -0.48930E-05 14764   0.121E-02    0.319E-02
RMM:   4    -0.694552449821E+03   -0.13625E-04   -0.18356E-05 13860   0.807E-03    0.251E-02
RMM:   5    -0.694552474901E+03   -0.25080E-04   -0.69487E-06 12087   0.492E-03    0.170E-02
RMM:   6    -0.694552513722E+03   -0.38821E-04   -0.35528E-06 11304   0.359E-03    0.126E-02
RMM:   7    -0.694552541270E+03   -0.27548E-04   -0.17593E-06 10129   0.293E-03    0.679E-03
RMM:   8    -0.694552564375E+03   -0.23105E-04   -0.13822E-07  5923   0.215E-03
  55 F= -.69455256E+03 E0= -.69415113E+03  d E =-.986645E-03  mag=    82.4547
       N       E                     dE             d eps       ncg     rms          rms(c)
DAV:   1    -0.694552622075E+03   -0.80805E-04   -0.12495E-01 27216   0.408E-01    0.216E-01
RMM:   2    -0.694553151171E+03   -0.52910E-03   -0.24549E-03 24722   0.830E-02    0.138E-01
RMM:   3    -0.694553356250E+03   -0.20508E-03   -0.44993E-04 20522   0.333E-02    0.953E-02
RMM:   4    -0.694553349885E+03    0.63647E-05   -0.12965E-04 15836   0.204E-02    0.755E-02
RMM:   5    -0.694553340110E+03    0.97752E-05   -0.58699E-05 14814   0.134E-02    0.542E-02
RMM:   6    -0.694553357221E+03   -0.17111E-04   -0.28984E-05 14556   0.900E-03    0.343E-02
RMM:   7    -0.694553384959E+03   -0.27738E-04   -0.16356E-05 13315   0.693E-03    0.199E-02
RMM:   8    -0.694553410238E+03   -0.25279E-04   -0.57274E-06 12368   0.444E-03
  56 F= -.69455341E+03 E0= -.69415208E+03  d E =-.183251E-02  mag=    82.4542
       N       E                     dE             d eps       ncg     rms          rms(c)
DAV:   1    -0.694553474974E+03   -0.90015E-04   -0.86190E-03 28064   0.107E-01    0.568E-02
RMM:   2    -0.694553556764E+03   -0.81790E-04   -0.17343E-04 16624   0.220E-02    0.380E-02
RMM:   3    -0.694553593772E+03   -0.37009E-04   -0.29797E-05 14781   0.958E-03    0.294E-02
RMM:   4    -0.694553605554E+03   -0.11781E-04   -0.90622E-06 12903   0.573E-03    0.206E-02
RMM:   5    -0.694553634447E+03   -0.28893E-04   -0.39173E-06 11951   0.370E-03    0.147E-02
RMM:   6    -0.694553673000E+03   -0.38553E-04   -0.19478E-06 10624   0.290E-03    0.868E-03
RMM:   7    -0.694553698708E+03   -0.25708E-04   -0.69608E-07  8326   0.246E-03    0.455E-03
RMM:   8    -0.694553715359E+03   -0.16651E-04   -0.64161E-08  5655   0.209E-03
  57 F= -.69455372E+03 E0= -.69415236E+03  d E =-.213763E-02  mag=    82.4537
       N       E                     dE             d eps       ncg     rms          rms(c)
DAV:   1    -0.694554484889E+03   -0.78618E-03   -0.27762E-02 28128   0.196E-01    0.972E-02
RMM:   2    -0.694554607199E+03   -0.12231E-03   -0.57387E-04 22054   0.399E-02    0.627E-02
RMM:   3    -0.694554660985E+03   -0.53787E-04   -0.10200E-04 15282   0.166E-02    0.469E-02
RMM:   4    -0.694554663276E+03   -0.22911E-05   -0.38334E-05 14478   0.119E-02    0.345E-02
RMM:   5    -0.694554674523E+03   -0.11247E-04   -0.12752E-05 12655   0.620E-03    0.211E-02
RMM:   6    -0.694554693297E+03   -0.18774E-04   -0.67372E-06 12349   0.445E-03    0.168E-02
RMM:   7    -0.694554710508E+03   -0.17212E-04   -0.38053E-06 11513   0.375E-03    0.105E-02
RMM:   8    -0.694554724837E+03   -0.14328E-04   -0.77533E-07  8282   0.247E-03
  58 F= -.69455472E+03 E0= -.69415337E+03  d E =-.100948E-02  mag=    82.4533
       N       E                     dE             d eps       ncg     rms          rms(c)
DAV:   1    -0.694554786031E+03   -0.75523E-04   -0.51840E-03 27072   0.847E-02    0.422E-02
RMM:   2    -0.694554821105E+03   -0.35074E-04   -0.11209E-04 15423   0.174E-02    0.269E-02
RMM:   3    -0.694554839361E+03   -0.18257E-04   -0.17965E-05 14462   0.765E-03    0.172E-02
RMM:   4    -0.694554846482E+03   -0.71209E-05   -0.54200E-06 12210   0.449E-03    0.155E-02
RMM:   5    -0.694554860063E+03   -0.13581E-04   -0.21946E-06 11096   0.314E-03    0.978E-03
RMM:   6    -0.694554878035E+03   -0.17972E-04   -0.54940E-07  7086   0.226E-03    0.640E-03
RMM:   7    -0.694554891552E+03   -0.13517E-04   -0.17876E-07  6097   0.214E-03    0.368E-03
RMM:   8    -0.694554902870E+03   -0.11318E-04   -0.12142E-08  4980   0.198E-03
  59 F= -.69455490E+03 E0= -.69415355E+03  d E =-.118751E-02  mag=    82.4530
       N       E                     dE             d eps       ncg     rms          rms(c)
DAV:   1    -0.694555296415E+03   -0.40486E-03   -0.71283E-03 26768   0.104E-01    0.441E-02
RMM:   2    -0.694555337774E+03   -0.41359E-04   -0.17762E-04 15953   0.215E-02    0.364E-02
RMM:   3    -0.694555355579E+03   -0.17805E-04   -0.34402E-05 14614   0.105E-02    0.313E-02
RMM:   4    -0.694555358485E+03   -0.29067E-05   -0.10374E-05 12722   0.618E-03    0.156E-02
RMM:   5    -0.694555369593E+03   -0.11108E-04   -0.29245E-06 11362   0.335E-03    0.109E-02
RMM:   6    -0.694555383716E+03   -0.14123E-04   -0.83050E-07  8340   0.246E-03    0.787E-03
RMM:   7    -0.694555399555E+03   -0.15839E-04   -0.49808E-07  7430   0.236E-03    0.536E-03
RMM:   8    -0.694555411587E+03   -0.12033E-04   -0.42149E-08  5198   0.210E-03
  60 F= -.69455541E+03 E0= -.69415404E+03  d E =-.508717E-03  mag=    82.4527
       N       E                     dE             d eps       ncg     rms          rms(c)
DAV:   1    -0.694555473529E+03   -0.73974E-04   -0.25605E-03 27344   0.626E-02    0.265E-02
RMM:   2    -0.694555495816E+03   -0.22287E-04   -0.66361E-05 14904   0.132E-02    0.225E-02
RMM:   3    -0.694555506337E+03   -0.10520E-04   -0.12454E-05 13803   0.648E-03    0.196E-02
RMM:   4    -0.694555509575E+03   -0.32382E-05   -0.35183E-06 11874   0.382E-03    0.956E-03
RMM:   5    -0.694555518416E+03   -0.88410E-05   -0.37582E-07  6671   0.222E-03    0.634E-03
RMM:   6    -0.694555529256E+03   -0.10841E-04   -0.70264E-08  5423   0.205E-03    0.556E-03
RMM:   7    -0.694555541921E+03   -0.12665E-04   -0.24607E-08  4964   0.200E-03    0.304E-03
RMM:   8    -0.694555551816E+03   -0.98944E-05   -0.15422E-07  5376   0.210E-03
  61 F= -.69455555E+03 E0= -.69415417E+03  d E =-.648946E-03  mag=    82.4524
       N       E                     dE             d eps       ncg     rms          rms(c)
DAV:   1    -0.694555848458E+03   -0.30654E-03   -0.74495E-03 27280   0.106E-01    0.479E-02
RMM:   2    -0.694555890333E+03   -0.41875E-04   -0.17957E-04 16190   0.223E-02    0.341E-02
RMM:   3    -0.694555910244E+03   -0.19911E-04   -0.31535E-05 14747   0.102E-02    0.288E-02
RMM:   4    -0.694555912488E+03   -0.22445E-05   -0.97603E-06 12940   0.602E-03    0.161E-02
RMM:   5    -0.694555923448E+03   -0.10960E-04   -0.32945E-06 11881   0.346E-03    0.126E-02
RMM:   6    -0.694555936226E+03   -0.12778E-04   -0.11960E-06  9556   0.263E-03    0.739E-03
RMM:   7    -0.694555946883E+03   -0.10657E-04   -0.37078E-07  7386   0.236E-03    0.453E-03
RMM:   8    -0.694555955126E+03   -0.82431E-05   -0.29461E-08  5367   0.209E-03
  62 F= -.69455596E+03 E0= -.69415459E+03  d E =-.403310E-03  mag=    82.4521
       N       E                     dE             d eps       ncg     rms          rms(c)
DAV:   1    -0.694555990209E+03   -0.43326E-04   -0.18046E-03 27008   0.522E-02    0.236E-02
RMM:   2    -0.694556007450E+03   -0.17242E-04   -0.45805E-05 14791   0.113E-02    0.181E-02
RMM:   3    -0.694556015542E+03   -0.80913E-05   -0.75279E-06 13491   0.512E-03    0.140E-02
RMM:   4    -0.694556018765E+03   -0.32233E-05   -0.21230E-06 11483   0.307E-03    0.977E-03
RMM:   5    -0.694556025621E+03   -0.68555E-05   -0.11311E-07  5996   0.207E-03    0.627E-03
RMM:   6    -0.694556035050E+03   -0.94296E-05   -0.25844E-08  5341   0.203E-03    0.506E-03
RMM:   7    -0.694556043845E+03   -0.87945E-05   -0.16896E-08  5091   0.194E-03    0.291E-03
RMM:   8    -0.694556050377E+03   -0.65323E-05   -0.73397E-08  5220   0.207E-03
  63 F= -.69455605E+03 E0= -.69415470E+03  d E =-.498561E-03  mag=    82.4519
       N       E                     dE             d eps       ncg     rms          rms(c)
DAV:   1    -0.694556262093E+03   -0.21825E-03   -0.68892E-03 27680   0.986E-02    0.502E-02
RMM:   2    -0.694556300391E+03   -0.38298E-04   -0.15231E-04 16070   0.203E-02    0.338E-02
RMM:   3    -0.694556319762E+03   -0.19372E-04   -0.27609E-05 14752   0.973E-03    0.321E-02
RMM:   4    -0.694556318649E+03    0.11129E-05   -0.89015E-06 12852   0.585E-03    0.150E-02
RMM:   5    -0.694556326248E+03   -0.75987E-05   -0.26322E-06 11519   0.321E-03    0.125E-02
RMM:   6    -0.694556333936E+03   -0.76881E-05   -0.11317E-06  9748   0.264E-03    0.761E-03
RMM:   7    -0.694556341982E+03   -0.80466E-05   -0.20727E-07  6926   0.231E-03    0.403E-03
RMM:   8    -0.694556347385E+03   -0.54026E-05   -0.17620E-08  5232   0.211E-03
  64 F= -.69455635E+03 E0= -.69415496E+03  d E =-.297008E-03  mag=    82.4517
       N       E                     dE             d eps       ncg     rms          rms(c)
DAV:   1    -0.694556394796E+03   -0.52813E-04   -0.51090E-03 27808   0.850E-02    0.434E-02
RMM:   2    -0.694556423443E+03   -0.28647E-04   -0.11492E-04 15538   0.177E-02    0.298E-02
RMM:   3    -0.694556438285E+03   -0.14842E-04   -0.20891E-05 14714   0.856E-03    0.278E-02
RMM:   4    -0.694556437478E+03    0.80653E-06   -0.66039E-06 12404   0.512E-03    0.135E-02
RMM:   5    -0.694556442938E+03   -0.54594E-05   -0.18443E-06 10895   0.291E-03    0.110E-02
RMM:   6    -0.694556448832E+03   -0.58943E-05   -0.69333E-07  8712   0.247E-03    0.660E-03
RMM:   7    -0.694556454930E+03   -0.60983E-05   -0.69245E-08  6150   0.218E-03    0.366E-03
RMM:   8    -0.694556459377E+03   -0.44461E-05   -0.38669E-08  5391   0.209E-03
  65 F= -.69455646E+03 E0= -.69415504E+03  d E =-.409000E-03  mag=    82.4515
       N       E                     dE             d eps       ncg     rms          rms(c)
DAV:   1    -0.694556664700E+03   -0.20977E-03   -0.68706E-03 27744   0.971E-02    0.514E-02
RMM:   2    -0.694556700070E+03   -0.35371E-04   -0.14620E-04 15995   0.199E-02    0.339E-02
RMM:   3    -0.694556720439E+03   -0.20369E-04   -0.25500E-05 14721   0.951E-03    0.316E-02
RMM:   4    -0.694556717709E+03    0.27306E-05   -0.80797E-06 12981   0.566E-03    0.148E-02
RMM:   5    -0.694556721950E+03   -0.42412E-05   -0.25305E-06 11562   0.318E-03    0.132E-02
RMM:   6    -0.694556725592E+03   -0.36424E-05   -0.12801E-06 10029   0.273E-03    0.760E-03
RMM:   7    -0.694556729720E+03   -0.41276E-05   -0.16944E-07  6584   0.225E-03    0.327E-03
RMM:   8    -0.694556732778E+03   -0.30575E-05   -0.15651E-08  5206   0.204E-03
  66 F= -.69455673E+03 E0= -.69415530E+03  d E =-.273401E-03  mag=    82.4513
       N       E                     dE             d eps       ncg     rms          rms(c)
DAV:   1    -0.694556767098E+03   -0.37378E-04   -0.16791E-02 28208   0.152E-01    0.804E-02
RMM:   2    -0.694556843844E+03   -0.76747E-04   -0.34796E-04 19086   0.308E-02    0.520E-02
RMM:   3    -0.694556885782E+03   -0.41937E-04   -0.60360E-05 14884   0.139E-02    0.456E-02
RMM:   4    -0.694556879138E+03    0.66441E-05   -0.21272E-05 14504   0.908E-03    0.236E-02
RMM:   5    -0.694556881865E+03   -0.27269E-05   -0.65193E-06 12516   0.462E-03    0.193E-02
RMM:   6    -0.694556882952E+03   -0.10878E-05   -0.37475E-06 12009   0.377E-03    0.135E-02
RMM:   7    -0.694556885472E+03   -0.25202E-05   -0.20337E-06 11302   0.296E-03    0.711E-03
RMM:   8    -0.694556887668E+03   -0.21951E-05   -0.81856E-08  5985   0.209E-03
  67 F= -.69455689E+03 E0= -.69415543E+03  d E =-.428291E-03  mag=    82.4512
       N       E                     dE             d eps       ncg     rms          rms(c)
DAV:   1    -0.694557024731E+03   -0.13926E-03   -0.54086E-03 27968   0.840E-02    0.483E-02
RMM:   2    -0.694557052510E+03   -0.27779E-04   -0.11302E-04 15554   0.172E-02    0.312E-02
RMM:   3    -0.694557069439E+03   -0.16930E-04   -0.20316E-05 14592   0.854E-03    0.306E-02
RMM:   4    -0.694557066523E+03    0.29169E-05   -0.71108E-06 12288   0.530E-03    0.135E-02
RMM:   5    -0.694557068991E+03   -0.24680E-05   -0.20952E-06 10630   0.297E-03    0.115E-02
RMM:   6    -0.694557070754E+03   -0.17630E-05   -0.82883E-07  8770   0.253E-03    0.663E-03
RMM:   7    -0.694557073063E+03   -0.23097E-05   -0.11675E-07  6175   0.221E-03    0.309E-03
RMM:   8    -0.694557074758E+03   -0.16950E-05   -0.11549E-08  4879   0.206E-03
  68 F= -.69455707E+03 E0= -.69415562E+03  d E =-.187091E-03  mag=    82.4510
       N       E                     dE             d eps       ncg     rms          rms(c)
DAV:   1    -0.694557072467E+03    0.59605E-06   -0.16183E-02 28336   0.145E-01    0.833E-02
RMM:   2    -0.694557148481E+03   -0.76014E-04   -0.32684E-04 18714   0.293E-02    0.533E-02
RMM:   3    -0.694557191180E+03   -0.42699E-04   -0.56227E-05 14862   0.136E-02    0.488E-02
RMM:   4    -0.694557182614E+03    0.85663E-05   -0.20994E-05 14464   0.905E-03    0.229E-02
RMM:   5    -0.694557185289E+03   -0.26748E-05   -0.69952E-06 12479   0.461E-03    0.211E-02
RMM:   6    -0.694557184489E+03    0.79907E-06   -0.40000E-06 12026   0.391E-03    0.132E-02
RMM:   7    -0.694557185899E+03   -0.14091E-05   -0.19161E-06 11071   0.294E-03    0.707E-03
RMM:   8    -0.694557187155E+03   -0.12564E-05   -0.56658E-08  5666   0.207E-03
  69 F= -.69455719E+03 E0= -.69415574E+03  d E =-.299487E-03  mag=    82.4507
       N       E                     dE             d eps       ncg     rms          rms(c)
DAV:   1    -0.694557312628E+03   -0.12673E-03   -0.41724E-03 28016   0.759E-02    0.404E-02
RMM:   2    -0.694557331869E+03   -0.19241E-04   -0.92765E-05 15210   0.157E-02    0.272E-02
RMM:   3    -0.694557341510E+03   -0.96411E-05   -0.15959E-05 14460   0.762E-03    0.244E-02
RMM:   4    -0.694557339486E+03    0.20247E-05   -0.52376E-06 12167   0.460E-03    0.134E-02
RMM:   5    -0.694557340585E+03   -0.10990E-05   -0.11996E-06  9314   0.263E-03    0.950E-03
RMM:   6    -0.694557341539E+03   -0.95461E-06   -0.30617E-07  6819   0.226E-03    0.590E-03
RMM:   7    -0.694557343079E+03   -0.15395E-05   -0.51613E-08  5391   0.211E-03    0.332E-03
RMM:   8    -0.694557344174E+03   -0.10952E-05   -0.42615E-08  4996   0.203E-03
  70 F= -.69455734E+03 E0= -.69415591E+03  d E =-.157019E-03  mag=    82.4505
       N       E                     dE             d eps       ncg     rms          rms(c)
DAV:   1    -0.694557369509E+03   -0.26430E-04   -0.11769E-02 28048   0.127E-01    0.678E-02
RMM:   2    -0.694557421154E+03   -0.51646E-04   -0.25376E-04 17708   0.260E-02    0.450E-02
RMM:   3    -0.694557444999E+03   -0.23845E-04   -0.44591E-05 14743   0.122E-02    0.402E-02
RMM:   4    -0.694557439124E+03    0.58748E-05   -0.16116E-05 14162   0.787E-03    0.206E-02
RMM:   5    -0.694557441565E+03   -0.24410E-05   -0.50792E-06 12142   0.412E-03    0.168E-02
RMM:   6    -0.694557441553E+03    0.12107E-07   -0.25281E-06 11328   0.318E-03    0.115E-02
RMM:   7    -0.694557442571E+03   -0.10179E-05   -0.12508E-06  9893   0.266E-03    0.592E-03
RMM:   8    -0.694557443211E+03   -0.63982E-06   -0.13669E-08  5204   0.199E-03
  71 F= -.69455744E+03 E0= -.69415603E+03  d E =-.256056E-03  mag=    82.4502
       N       E                     dE             d eps       ncg     rms          rms(c)
DAV:   1    -0.694557523752E+03   -0.81181E-04   -0.41722E-03 27776   0.783E-02    0.369E-02
RMM:   2    -0.694557540224E+03   -0.16472E-04   -0.99015E-05 15208   0.163E-02    0.262E-02
RMM:   3    -0.694557551100E+03   -0.10876E-04   -0.17682E-05 14478   0.796E-03    0.278E-02
RMM:   4    -0.694557548149E+03    0.29514E-05   -0.52396E-06 12259   0.460E-03    0.106E-02
RMM:   5    -0.694557549818E+03   -0.16699E-05   -0.13237E-06  9287   0.265E-03    0.106E-02
RMM:   6    -0.694557550524E+03   -0.70594E-06   -0.63901E-07  8243   0.240E-03    0.583E-03
RMM:   7    -0.694557552046E+03   -0.15218E-05   -0.34988E-08  5551   0.208E-03    0.322E-03
RMM:   8    -0.694557553019E+03   -0.97323E-06   -0.30493E-08  5051   0.203E-03
  72 F= -.69455755E+03 E0= -.69415617E+03  d E =-.109809E-03  mag=    82.4499
       N       E                     dE             d eps       ncg     rms          rms(c)
DAV:   1    -0.694557556838E+03   -0.47917E-05   -0.25103E-04 25024   0.194E-02    0.927E-03
RMM:   2    -0.694557559336E+03   -0.24978E-05   -0.72138E-06 13689   0.454E-03    0.777E-03
RMM:   3    -0.694557560169E+03   -0.83353E-06   -0.73569E-07  8072   0.237E-03    0.591E-03
RMM:   4    -0.694557560537E+03   -0.36787E-06   -0.89187E-09  4820   0.180E-03    0.293E-03
RMM:   5    -0.694557561722E+03   -0.11846E-05   -0.44241E-09  4689   0.179E-03    0.309E-03
RMM:   6    -0.694557562828E+03   -0.11064E-05   -0.12819E-09  4749   0.176E-03    0.226E-03
RMM:   7    -0.694557564153E+03   -0.13253E-05   -0.23087E-10  4827   0.179E-03    0.138E-03
RMM:   8    -0.694557564939E+03   -0.78604E-06   -0.29245E-10  4782   0.180E-03
  73 F= -.69455756E+03 E0= -.69415619E+03  d E =-.121729E-03  mag=    82.4496
       N       E                     dE             d eps       ncg     rms          rms(c)
DAV:   1    -0.694557630800E+03   -0.66646E-04   -0.19194E-03 26784   0.535E-02    0.256E-02
RMM:   2    -0.694557640307E+03   -0.95069E-05   -0.48478E-05 14869   0.114E-02    0.196E-02
RMM:   3    -0.694557645547E+03   -0.52406E-05   -0.88377E-06 14171   0.565E-03    0.181E-02
RMM:   4    -0.694557644831E+03    0.71619E-06   -0.24486E-06 11690   0.332E-03    0.824E-03
RMM:   5    -0.694557645999E+03   -0.11679E-05   -0.14316E-07  6135   0.199E-03    0.630E-03
RMM:   6    -0.694557647412E+03   -0.14128E-05   -0.23503E-08  5459   0.189E-03    0.548E-03
RMM:   7    -0.694557649119E+03   -0.17071E-05   -0.13206E-08  5175   0.184E-03    0.295E-03
RMM:   8    -0.694557650509E+03   -0.13905E-05   -0.94641E-08  5604   0.198E-03
  74 F= -.69455765E+03 E0= -.69415627E+03  d E =-.855699E-04  mag=    82.4494
