       N       E                     dE             d eps       ncg     rms          rms(c)
DAV:   1     0.893917291503E+04    0.89392E+04   -0.33928E+05 24864   0.111E+03
DAV:   2     0.767728107462E+03   -0.81714E+04   -0.73586E+04 30960   0.303E+02
DAV:   3    -0.908228515159E+03   -0.16760E+04   -0.16548E+04 29616   0.148E+02
DAV:   4    -0.992153438050E+03   -0.83925E+02   -0.83357E+02 33152   0.407E+01
DAV:   5    -0.995473847653E+03   -0.33204E+01   -0.33115E+01 39808   0.646E+00    0.176E+02
RMM:   6    -0.941733486901E+03    0.53740E+02   -0.27571E+03 26939   0.912E+01    0.354E+02
RMM:   7    -0.724399698207E+03    0.21733E+03   -0.32551E+02 24335   0.303E+01    0.210E+02
RMM:   8    -0.894290855276E+03   -0.16989E+03   -0.30716E+02 24380   0.276E+01    0.213E+02
RMM:   9    -0.655883995787E+03    0.23841E+03   -0.15784E+02 24330   0.202E+01    0.144E+02
RMM:  10    -0.551672031970E+03    0.10421E+03   -0.77201E+01 24350   0.149E+01    0.829E+01
RMM:  11    -0.528980157819E+03    0.22692E+02   -0.25448E+01 24381   0.784E+00    0.766E+01
RMM:  12    -0.527752177409E+03    0.12280E+01   -0.16443E+01 24503   0.677E+00    0.748E+01
RMM:  13    -0.518174442229E+03    0.95777E+01   -0.17369E+01 24522   0.668E+00    0.619E+01
RMM:  14    -0.509446707973E+03    0.87277E+01   -0.12429E+01 24603   0.590E+00    0.516E+01
RMM:  15    -0.494155655905E+03    0.15291E+02   -0.89945E+00 24357   0.470E+00    0.446E+01
RMM:  16    -0.483913049070E+03    0.10243E+02   -0.43574E+00 24530   0.330E+00    0.388E+01
RMM:  17    -0.475432346627E+03    0.84807E+01   -0.26816E+00 24994   0.248E+00    0.363E+01
RMM:  18    -0.466831233365E+03    0.86011E+01   -0.22127E+00 25239   0.227E+00    0.340E+01
RMM:  19    -0.458493262680E+03    0.83380E+01   -0.22368E+00 25412   0.230E+00    0.325E+01
RMM:  20    -0.452314510081E+03    0.61788E+01   -0.18293E+00 25372   0.210E+00    0.307E+01
RMM:  21    -0.449354416046E+03    0.29601E+01   -0.13129E+00 25193   0.185E+00    0.292E+01
RMM:  22    -0.448290089454E+03    0.10643E+01   -0.11746E+00 25476   0.167E+00    0.281E+01
RMM:  23    -0.452787882333E+03   -0.44978E+01   -0.12522E+00 26211   0.174E+00    0.279E+01
RMM:  24    -0.460881903683E+03   -0.80940E+01   -0.17261E+00 27454   0.198E+00    0.269E+01
RMM:  25    -0.474343490198E+03   -0.13462E+02   -0.19817E+00 27508   0.204E+00    0.261E+01
RMM:  26    -0.488790978420E+03   -0.14447E+02   -0.28218E+00 28821   0.228E+00    0.261E+01
RMM:  27    -0.506694783692E+03   -0.17904E+02   -0.40204E+00 30010   0.260E+00    0.252E+01
RMM:  28    -0.533737940683E+03   -0.27043E+02   -0.98274E+00 33239   0.380E+00    0.243E+01
RMM:  29    -0.551069073007E+03   -0.17331E+02   -0.62014E+00 32131   0.303E+00    0.233E+01
RMM:  30    -0.564442054096E+03   -0.13373E+02   -0.44956E+00 31493   0.262E+00    0.234E+01
RMM:  31    -0.575703184099E+03   -0.11261E+02   -0.36864E+00 31800   0.243E+00    0.229E+01
RMM:  32    -0.593147187748E+03   -0.17444E+02   -0.74805E+00 33979   0.343E+00    0.224E+01
RMM:  33    -0.609316203914E+03   -0.16169E+02   -0.96802E+00 35197   0.373E+00    0.211E+01
RMM:  34    -0.617301442270E+03   -0.79852E+01   -0.57193E+00 33881   0.284E+00    0.185E+01
RMM:  35    -0.618665428682E+03   -0.13640E+01   -0.90496E-01 28644   0.128E+00    0.172E+01
RMM:  36    -0.621401855300E+03   -0.27364E+01   -0.53040E-01 27087   0.109E+00    0.163E+01
RMM:  37    -0.624813348303E+03   -0.34115E+01   -0.65511E-01 28060   0.117E+00    0.160E+01
RMM:  38    -0.628446067228E+03   -0.36327E+01   -0.77687E-01 29530   0.123E+00    0.145E+01
RMM:  39    -0.634800078784E+03   -0.63540E+01   -0.13219E+00 31775   0.148E+00    0.135E+01
RMM:  40    -0.640045564974E+03   -0.52455E+01   -0.15302E+00 32486   0.152E+00    0.134E+01
RMM:  41    -0.643965631962E+03   -0.39201E+01   -0.15370E+00 32674   0.143E+00    0.143E+01
RMM:  42    -0.645493617879E+03   -0.15280E+01   -0.10467E+00 31359   0.117E+00    0.150E+01
RMM:  43    -0.646757994370E+03   -0.12644E+01   -0.46350E-01 28604   0.818E-01    0.149E+01
RMM:  44    -0.647621320141E+03   -0.86333E+00   -0.66191E-01 30141   0.947E-01    0.156E+01
RMM:  45    -0.648520774488E+03   -0.89945E+00   -0.81697E-01 31217   0.107E+00    0.164E+01
RMM:  46    -0.650454381433E+03   -0.19336E+01   -0.41628E-01 29447   0.840E-01    0.156E+01
RMM:  47    -0.653093891855E+03   -0.26395E+01   -0.45977E-01 30728   0.870E-01    0.140E+01
RMM:  48    -0.654683048996E+03   -0.15892E+01   -0.45967E-01 30599   0.857E-01    0.120E+01
RMM:  49    -0.657108970304E+03   -0.24259E+01   -0.37848E-01 29929   0.779E-01    0.982E+00
RMM:  50    -0.659397119307E+03   -0.22881E+01   -0.43692E-01 31074   0.806E-01    0.719E+00
RMM:  51    -0.659800904673E+03   -0.40379E+00   -0.33182E-01 31261   0.723E-01    0.507E+00
RMM:  52    -0.662477863422E+03   -0.26770E+01   -0.44937E-01 29922   0.637E-01    0.473E+00
RMM:  53    -0.663993019478E+03   -0.15152E+01   -0.16226E-01 28606   0.493E-01    0.406E+00
RMM:  54    -0.664542105642E+03   -0.54909E+00   -0.99815E-02 26908   0.403E-01    0.354E+00
RMM:  55    -0.664701586318E+03   -0.15948E+00   -0.17661E-01 28775   0.390E-01    0.317E+00
RMM:  56    -0.664737388003E+03   -0.35802E-01   -0.55714E-02 27146   0.316E-01    0.304E+00
RMM:  57    -0.664433823982E+03    0.30356E+00   -0.40826E-02 26070   0.321E-01    0.273E+00
RMM:  58    -0.664428046472E+03    0.57775E-02   -0.39117E-02 26561   0.288E-01    0.237E+00
RMM:  59    -0.664510498005E+03   -0.82452E-01   -0.32522E-02 26821   0.249E-01    0.204E+00
RMM:  60    -0.664899795020E+03   -0.38930E+00   -0.18899E-02 25462   0.193E-01    0.161E+00
RMM:  61    -0.665133033250E+03   -0.23324E+00   -0.18121E-02 26290   0.185E-01    0.150E+00
RMM:  62    -0.665090795612E+03    0.42238E-01   -0.61597E-03 24183   0.131E-01    0.135E+00
RMM:  63    -0.665143297589E+03   -0.52502E-01   -0.56755E-03 24742   0.107E-01    0.126E+00
RMM:  64    -0.665198141666E+03   -0.54844E-01   -0.70678E-03 26159   0.100E-01    0.117E+00
RMM:  65    -0.665294941864E+03   -0.96800E-01   -0.43581E-03 25233   0.815E-02    0.112E+00
RMM:  66    -0.665367592454E+03   -0.72651E-01   -0.34884E-03 24882   0.700E-02    0.109E+00
RMM:  67    -0.665443595203E+03   -0.76003E-01   -0.45824E-03 25719   0.749E-02    0.106E+00
RMM:  68    -0.665433921936E+03    0.96733E-02   -0.53195E-03 27545   0.758E-02    0.101E+00
RMM:  69    -0.665304682528E+03    0.12924E+00   -0.58717E-03 27047   0.740E-02    0.986E-01
RMM:  70    -0.665172897243E+03    0.13179E+00   -0.36994E-03 25750   0.625E-02    0.930E-01
RMM:  71    -0.665023687653E+03    0.14921E+00   -0.46497E-03 28276   0.720E-02    0.902E-01
RMM:  72    -0.664953082674E+03    0.70605E-01   -0.40773E-03 27431   0.685E-02    0.848E-01
RMM:  73    -0.664901493548E+03    0.51589E-01   -0.22495E-03 25986   0.650E-02    0.792E-01
RMM:  74    -0.664938990077E+03   -0.37497E-01   -0.22941E-03 25947   0.644E-02    0.687E-01
RMM:  75    -0.665195007871E+03   -0.25602E+00   -0.43385E-03 29087   0.773E-02    0.632E-01
RMM:  76    -0.665337704740E+03   -0.14270E+00   -0.43562E-03 29079   0.744E-02    0.481E-01
RMM:  77    -0.665486554170E+03   -0.14885E+00   -0.39624E-03 27773   0.671E-02    0.387E-01
RMM:  78    -0.665558444157E+03   -0.71890E-01   -0.27225E-03 25584   0.600E-02    0.300E-01
RMM:  79    -0.665665582905E+03   -0.10714E+00   -0.22492E-03 23962   0.501E-02    0.227E-01
RMM:  80    -0.665899469991E+03   -0.23389E+00   -0.19997E-03 23711   0.440E-02
   1 F= -.66589947E+03 E0= -.66548164E+03  d E =-.665899E+03  mag=    79.9540
       N       E                     dE             d eps       ncg     rms          rms(c)
DAV:   1    -0.664006528057E+03    0.16591E+01   -0.30594E+02 27824   0.174E+01    0.724E+00
RMM:   2    -0.664637673083E+03   -0.63115E+00   -0.10613E+01 24320   0.325E+00    0.969E+00
RMM:   3    -0.665032342408E+03   -0.39467E+00   -0.25748E+00 24418   0.159E+00    0.695E+00
RMM:   4    -0.664652289285E+03    0.38005E+00   -0.25797E-01 24856   0.713E-01    0.519E+00
RMM:   5    -0.664477016610E+03    0.17527E+00   -0.10051E-01 24439   0.392E-01    0.330E+00
RMM:   6    -0.664442002113E+03    0.35014E-01   -0.11198E-01 24346   0.334E-01    0.220E+00
RMM:   7    -0.664533568637E+03   -0.91567E-01   -0.37263E-02 23994   0.258E-01    0.152E+00
RMM:   8    -0.664670898131E+03   -0.13733E+00   -0.50918E-02 25027   0.232E-01    0.131E+00
RMM:   9    -0.664757532830E+03   -0.86635E-01   -0.50479E-02 26181   0.223E-01    0.103E+00
RMM:  10    -0.664789861992E+03   -0.32329E-01   -0.17551E-02 24213   0.169E-01    0.104E+00
RMM:  11    -0.664825302119E+03   -0.35440E-01   -0.74797E-03 23222   0.122E-01    0.798E-01
RMM:  12    -0.664857359179E+03   -0.32057E-01   -0.44112E-03 23004   0.897E-02    0.440E-01
RMM:  13    -0.664873549907E+03   -0.16191E-01   -0.18963E-03 22074   0.542E-02    0.272E-01
RMM:  14    -0.664877900970E+03   -0.43511E-02   -0.77574E-04 20736   0.349E-02    0.190E-01
RMM:  15    -0.664882086639E+03   -0.41857E-02   -0.48213E-04 19267   0.243E-02    0.149E-01
RMM:  16    -0.664891831858E+03   -0.97452E-02   -0.45816E-04 18925   0.229E-02    0.114E-01
RMM:  17    -0.664901351262E+03   -0.95194E-02   -0.23557E-04 17371   0.187E-02    0.771E-02
RMM:  18    -0.664909970132E+03   -0.86189E-02   -0.12525E-04 15135   0.142E-02    0.626E-02
RMM:  19    -0.664917640987E+03   -0.76709E-02   -0.48824E-05 13856   0.102E-02    0.574E-02
RMM:  20    -0.664923829888E+03   -0.61889E-02   -0.30066E-05 13346   0.769E-03    0.517E-02
RMM:  21    -0.664933662447E+03   -0.98326E-02   -0.39653E-05 13807   0.848E-03    0.477E-02
RMM:  22    -0.664943601826E+03   -0.99394E-02   -0.47532E-05 13834   0.848E-03    0.429E-02
RMM:  23    -0.664948807016E+03   -0.52052E-02   -0.29481E-05 13425   0.690E-03    0.392E-02
RMM:  24    -0.664953807711E+03   -0.50007E-02   -0.37668E-05 13512   0.712E-03    0.358E-02
RMM:  25    -0.664957974370E+03   -0.41667E-02   -0.40408E-05 13288   0.668E-03    0.360E-02
RMM:  26    -0.664961364912E+03   -0.33905E-02   -0.30565E-05 13183   0.630E-03    0.324E-02
RMM:  27    -0.664962766666E+03   -0.14018E-02   -0.17137E-05 12524   0.536E-03    0.312E-02
RMM:  28    -0.664966080794E+03   -0.33141E-02   -0.19633E-05 12378   0.500E-03    0.276E-02
RMM:  29    -0.664970168178E+03   -0.40874E-02   -0.28071E-05 12899   0.523E-03    0.272E-02
RMM:  30    -0.664972701190E+03   -0.25330E-02   -0.22456E-05 12319   0.488E-03    0.242E-02
RMM:  31    -0.664975278434E+03   -0.25772E-02   -0.17163E-05 11971   0.460E-03    0.226E-02
RMM:  32    -0.664977470223E+03   -0.21918E-02   -0.10646E-05 11140   0.400E-03    0.200E-02
RMM:  33    -0.664979571579E+03   -0.21014E-02   -0.86274E-06 11864   0.372E-03    0.194E-02
RMM:  34    -0.664982111614E+03   -0.25400E-02   -0.10059E-05 12255   0.384E-03    0.183E-02
RMM:  35    -0.664983871198E+03   -0.17596E-02   -0.69336E-06 11585   0.354E-03    0.173E-02
RMM:  36    -0.664985633567E+03   -0.17624E-02   -0.58626E-06 11672   0.345E-03    0.165E-02
RMM:  37    -0.664987283466E+03   -0.16499E-02   -0.46800E-06 10815   0.315E-03    0.157E-02
RMM:  38    -0.664989448385E+03   -0.21649E-02   -0.52462E-06 11318   0.314E-03    0.147E-02
RMM:  39    -0.664991520168E+03   -0.20718E-02   -0.45068E-06 10730   0.294E-03    0.143E-02
RMM:  40    -0.664993650606E+03   -0.21304E-02   -0.49498E-06 10991   0.299E-03    0.134E-02
RMM:  41    -0.664995726311E+03   -0.20757E-02   -0.49871E-06 10649   0.297E-03    0.127E-02
RMM:  42    -0.664997597354E+03   -0.18710E-02   -0.53234E-06 10801   0.298E-03    0.115E-02
RMM:  43    -0.664999113162E+03   -0.15158E-02   -0.37189E-06  9780   0.273E-03    0.106E-02
RMM:  44    -0.665000401976E+03   -0.12888E-02   -0.29637E-06  9314   0.261E-03    0.982E-03
RMM:  45    -0.665001588072E+03   -0.11861E-02   -0.25947E-06  9357   0.259E-03    0.938E-03
RMM:  46    -0.665002771349E+03   -0.11833E-02   -0.25263E-06  9627   0.262E-03    0.851E-03
RMM:  47    -0.665003927800E+03   -0.11565E-02   -0.17247E-06  8914   0.251E-03    0.787E-03
RMM:  48    -0.665004960658E+03   -0.10329E-02   -0.16160E-06  8619   0.246E-03    0.698E-03
RMM:  49    -0.665006001304E+03   -0.10406E-02   -0.12471E-06  8264   0.242E-03    0.619E-03
RMM:  50    -0.665006764238E+03   -0.76293E-03   -0.74072E-07  7282   0.225E-03    0.528E-03
RMM:  51    -0.665007482077E+03   -0.71784E-03   -0.98324E-07  7538   0.228E-03    0.473E-03
RMM:  52    -0.665007969382E+03   -0.48731E-03   -0.83651E-07  7136   0.218E-03    0.423E-03
RMM:  53    -0.665008458576E+03   -0.48919E-03   -0.12180E-06  7515   0.222E-03    0.395E-03
RMM:  54    -0.665008833518E+03   -0.37494E-03   -0.11738E-06  7270   0.215E-03    0.353E-03
RMM:  55    -0.665009061913E+03   -0.22840E-03   -0.76875E-07  6883   0.209E-03    0.324E-03
RMM:  56    -0.665009353476E+03   -0.29156E-03   -0.16368E-06  7646   0.221E-03    0.283E-03
RMM:  57    -0.665009510538E+03   -0.15706E-03   -0.12199E-06  7294   0.215E-03    0.277E-03
RMM:  58    -0.665009657590E+03   -0.14705E-03   -0.15114E-06  7479   0.218E-03    0.240E-03
RMM:  59    -0.665009762350E+03   -0.10476E-03   -0.13256E-06  7110   0.211E-03    0.225E-03
RMM:  60    -0.665009831933E+03   -0.69583E-04   -0.10849E-06  7011   0.209E-03
   2 F= -.66500983E+03 E0= -.66458535E+03  d E =0.889638E+00  mag=    79.7825
       N       E                     dE             d eps       ncg     rms          rms(c)
DAV:   1    -0.666416691165E+03   -0.14069E+01   -0.10220E+02 27136   0.968E+00    0.644E+00
RMM:   2    -0.666970057846E+03   -0.55337E+00   -0.64226E+00 24320   0.190E+00    0.848E+00
RMM:   3    -0.666637468447E+03    0.33259E+00   -0.91375E-01 24174   0.105E+00    0.482E+00
RMM:   4    -0.666516852049E+03    0.12062E+00   -0.16481E-01 24083   0.523E-01    0.255E+00
RMM:   5    -0.666490518712E+03    0.26333E-01   -0.12179E-01 23549   0.415E-01    0.159E+00
RMM:   6    -0.666494861509E+03   -0.43428E-02   -0.29859E-02 23150   0.208E-01    0.943E-01
RMM:   7    -0.666494739303E+03    0.12221E-03   -0.19219E-02 22914   0.172E-01    0.104E+00
RMM:   8    -0.666493151903E+03    0.15874E-02   -0.12238E-02 22914   0.148E-01    0.757E-01
RMM:   9    -0.666491972537E+03    0.11794E-02   -0.80044E-03 22826   0.108E-01    0.363E-01
RMM:  10    -0.666493044780E+03   -0.10722E-02   -0.22048E-03 22008   0.624E-02    0.270E-01
RMM:  11    -0.666493226081E+03   -0.18130E-03   -0.65770E-04 20900   0.365E-02    0.199E-01
RMM:  12    -0.666493100282E+03    0.12580E-03   -0.29640E-04 17560   0.209E-02    0.128E-01
RMM:  13    -0.666493151505E+03   -0.51222E-04   -0.18479E-04 15452   0.184E-02
   3 F= -.66649315E+03 E0= -.66607140E+03  d E =-.593682E+00  mag=    79.7822
       N       E                     dE             d eps       ncg     rms          rms(c)
DAV:   1    -0.666513666275E+03   -0.20566E-01   -0.13501E+00 27648   0.114E+00    0.705E-01
RMM:   2    -0.666518762301E+03   -0.50960E-02   -0.62017E-02 23134   0.225E-01    0.119E+00
RMM:   3    -0.666514546989E+03    0.42153E-02   -0.98019E-03 22448   0.121E-01    0.355E-01
RMM:   4    -0.666514848454E+03   -0.30146E-03   -0.23672E-03 21122   0.613E-02    0.240E-01
RMM:   5    -0.666514949508E+03   -0.10105E-03   -0.83717E-04 19527   0.387E-02    0.160E-01
RMM:   6    -0.666514913085E+03    0.36423E-04   -0.29158E-04 16835   0.220E-02    0.128E-01
RMM:   7    -0.666514861234E+03    0.51851E-04   -0.21342E-04 15795   0.204E-02    0.102E-01
RMM:   8    -0.666514780417E+03    0.80817E-04   -0.14239E-04 14671   0.163E-02
   4 F= -.66651478E+03 E0= -.66609381E+03  d E =-.615310E+00  mag=    79.7843
       N       E                     dE             d eps       ncg     rms          rms(c)
DAV:   1    -0.666504973129E+03    0.98881E-02   -0.95666E+00 27424   0.305E+00    0.179E+00
RMM:   2    -0.666545529317E+03   -0.40556E-01   -0.43818E-01 24003   0.582E-01    0.292E+00
RMM:   3    -0.666518141596E+03    0.27388E-01   -0.68003E-02 23527   0.312E-01    0.903E-01
RMM:   4    -0.666520044667E+03   -0.19031E-02   -0.13346E-02 22916   0.156E-01    0.611E-01
RMM:   5    -0.666519852080E+03    0.19259E-03   -0.50536E-03 22221   0.986E-02    0.380E-01
RMM:   6    -0.666519788102E+03    0.63978E-04   -0.15424E-03 21257   0.511E-02    0.304E-01
RMM:   7    -0.666519802677E+03   -0.14574E-04   -0.10838E-03 20845   0.445E-02    0.238E-01
RMM:   8    -0.666519816822E+03   -0.14145E-04   -0.77239E-04 20287   0.353E-02
   5 F= -.66651982E+03 E0= -.66609954E+03  d E =-.620347E+00  mag=    79.7865
       N       E                     dE             d eps       ncg     rms          rms(c)
DAV:   1    -0.666538318706E+03   -0.18516E-01   -0.26110E+00 27424   0.162E+00    0.979E-01
RMM:   2    -0.666551759796E+03   -0.13441E-01   -0.11680E-01 23446   0.336E-01    0.167E+00
RMM:   3    -0.666542103253E+03    0.96565E-02   -0.21354E-02 22710   0.182E-01    0.480E-01
RMM:   4    -0.666542560930E+03   -0.45768E-03   -0.45211E-03 21511   0.915E-02    0.320E-01
RMM:   5    -0.666542167922E+03    0.39301E-03   -0.14726E-03 20056   0.521E-02    0.165E-01
RMM:   6    -0.666541805047E+03    0.36288E-03   -0.50903E-04 18206   0.270E-02    0.136E-01
RMM:   7    -0.666541501879E+03    0.30317E-03   -0.32165E-04 17640   0.260E-02    0.149E-01
RMM:   8    -0.666541091725E+03    0.41015E-03   -0.19320E-04 15773   0.185E-02    0.858E-02
RMM:   9    -0.666540905838E+03    0.18589E-03   -0.60115E-05 13509   0.110E-02    0.445E-02
RMM:  10    -0.666540856731E+03    0.49107E-04   -0.21472E-05 12385   0.759E-03
   6 F= -.66654086E+03 E0= -.66612100E+03  d E =-.641387E+00  mag=    79.7892
       N       E                     dE             d eps       ncg     rms          rms(c)
DAV:   1    -0.663901918213E+03    0.26390E+01   -0.20239E+02 25136   0.155E+01    0.720E+00
RMM:   2    -0.664428859801E+03   -0.52694E+00   -0.78168E+00 24320   0.324E+00    0.105E+01
RMM:   3    -0.664607775941E+03   -0.17892E+00   -0.20455E+00 24400   0.150E+00    0.667E+00
RMM:   4    -0.664295666710E+03    0.31211E+00   -0.22613E-01 24966   0.667E-01    0.546E+00
RMM:   5    -0.664120396411E+03    0.17527E+00   -0.95477E-02 24320   0.408E-01    0.359E+00
RMM:   6    -0.664030079101E+03    0.90317E-01   -0.85128E-02 24369   0.308E-01    0.247E+00
RMM:   7    -0.664052711738E+03   -0.22633E-01   -0.41209E-02 24309   0.257E-01    0.168E+00
RMM:   8    -0.664135658421E+03   -0.82947E-01   -0.34372E-02 24453   0.211E-01    0.126E+00
RMM:   9    -0.664205620938E+03   -0.69963E-01   -0.31686E-02 24921   0.185E-01    0.105E+00
RMM:  10    -0.664231983990E+03   -0.26363E-01   -0.15635E-02 24080   0.141E-01    0.939E-01
RMM:  11    -0.664241715902E+03   -0.97319E-02   -0.91927E-03 23870   0.115E-01    0.818E-01
RMM:  12    -0.664250128725E+03   -0.84128E-02   -0.66134E-03 23544   0.109E-01    0.594E-01
RMM:  13    -0.664260867829E+03   -0.10739E-01   -0.32214E-03 22359   0.752E-02    0.418E-01
RMM:  14    -0.664265877522E+03   -0.50097E-02   -0.84122E-04 20700   0.411E-02    0.203E-01
RMM:  15    -0.664271778394E+03   -0.59009E-02   -0.60317E-04 19674   0.277E-02    0.171E-01
RMM:  16    -0.664276045662E+03   -0.42673E-02   -0.45051E-04 19012   0.244E-02    0.129E-01
RMM:  17    -0.664279261395E+03   -0.32157E-02   -0.34543E-04 17921   0.211E-02    0.821E-02
RMM:  18    -0.664280529024E+03   -0.12676E-02   -0.12671E-04 15132   0.154E-02    0.660E-02
RMM:  19    -0.664281360606E+03   -0.83158E-03   -0.61093E-05 14353   0.116E-02    0.439E-02
RMM:  20    -0.664282056369E+03   -0.69576E-03   -0.43023E-05 13828   0.876E-03    0.373E-02
RMM:  21    -0.664282665730E+03   -0.60936E-03   -0.34648E-05 13790   0.806E-03    0.290E-02
RMM:  22    -0.664282981135E+03   -0.31540E-03   -0.21019E-05 13105   0.664E-03    0.249E-02
RMM:  23    -0.664283223534E+03   -0.24240E-03   -0.17104E-05 13075   0.601E-03    0.191E-02
RMM:  24    -0.664283408423E+03   -0.18489E-03   -0.13288E-05 12534   0.495E-03    0.174E-02
RMM:  25    -0.664283599369E+03   -0.19095E-03   -0.11515E-05 12540   0.458E-03    0.121E-02
RMM:  26    -0.664283797574E+03   -0.19821E-03   -0.72978E-06 11628   0.371E-03    0.960E-03
RMM:  27    -0.664283951877E+03   -0.15430E-03   -0.26448E-06  9697   0.282E-03    0.760E-03
RMM:  28    -0.664284165487E+03   -0.21361E-03   -0.13629E-06  8211   0.240E-03    0.640E-03
RMM:  29    -0.664284509679E+03   -0.34419E-03   -0.23222E-06  8963   0.249E-03    0.598E-03
RMM:  30    -0.664284786372E+03   -0.27669E-03   -0.19372E-06  8293   0.237E-03    0.525E-03
RMM:  31    -0.664285090876E+03   -0.30450E-03   -0.20374E-06  8077   0.230E-03    0.485E-03
RMM:  32    -0.664285270920E+03   -0.18004E-03   -0.10864E-06  7076   0.219E-03    0.451E-03
RMM:  33    -0.664285511973E+03   -0.24105E-03   -0.30642E-06  8443   0.240E-03    0.430E-03
RMM:  34    -0.664285742651E+03   -0.23068E-03   -0.29293E-06  8297   0.239E-03    0.387E-03
RMM:  35    -0.664285880591E+03   -0.13794E-03   -0.17708E-06  7404   0.225E-03    0.355E-03
RMM:  36    -0.664285996471E+03   -0.11588E-03   -0.11016E-06  6722   0.215E-03    0.338E-03
RMM:  37    -0.664286133561E+03   -0.13709E-03   -0.10034E-06  6554   0.215E-03    0.328E-03
RMM:  38    -0.664286314687E+03   -0.18113E-03   -0.10247E-06  6630   0.218E-03    0.323E-03
RMM:  39    -0.664286434696E+03   -0.12001E-03   -0.75382E-07  6207   0.213E-03    0.292E-03
RMM:  40    -0.664286549876E+03   -0.11518E-03   -0.57061E-07  5966   0.211E-03    0.282E-03
RMM:  41    -0.664286694458E+03   -0.14458E-03   -0.38408E-07  5740   0.211E-03    0.270E-03
RMM:  42    -0.664286893401E+03   -0.19894E-03   -0.48304E-07  5936   0.214E-03    0.251E-03
RMM:  43    -0.664287069297E+03   -0.17590E-03   -0.52728E-07  6089   0.217E-03    0.242E-03
RMM:  44    -0.664287197858E+03   -0.12856E-03   -0.36407E-07  5827   0.216E-03    0.222E-03
RMM:  45    -0.664287309065E+03   -0.11121E-03   -0.44477E-07  5955   0.217E-03    0.209E-03
RMM:  46    -0.664287363625E+03   -0.54560E-04   -0.36440E-07  5853   0.215E-03
   7 F= -.66428736E+03 E0= -.66385807E+03  d E =0.225349E+01  mag=    79.7884
       N       E                     dE             d eps       ncg     rms          rms(c)
DAV:   1    -0.666439315641E+03   -0.21520E+01   -0.14653E+02 25936   0.127E+01    0.790E+00
RMM:   2    -0.667444227817E+03   -0.10049E+01   -0.88040E+00 24320   0.276E+00    0.954E+00
RMM:   3    -0.666811019951E+03    0.63321E+00   -0.12784E+00 24426   0.139E+00    0.591E+00
RMM:   4    -0.666584501585E+03    0.22652E+00   -0.31014E-01 24539   0.730E-01    0.333E+00
RMM:   5    -0.666528370047E+03    0.56132E-01   -0.20884E-01 24407   0.539E-01    0.199E+00
RMM:   6    -0.666539863877E+03   -0.11494E-01   -0.47353E-02 23891   0.281E-01    0.136E+00
RMM:   7    -0.666553671499E+03   -0.13808E-01   -0.34253E-02 24031   0.219E-01    0.153E+00
RMM:   8    -0.666549721233E+03    0.39503E-02   -0.17250E-02 23941   0.184E-01    0.111E+00
RMM:   9    -0.666547240381E+03    0.24809E-02   -0.10344E-02 23561   0.133E-01    0.748E-01
RMM:  10    -0.666548335564E+03   -0.10952E-02   -0.67489E-03 23236   0.107E-01    0.322E-01
RMM:  11    -0.666552053271E+03   -0.37177E-02   -0.19919E-03 22827   0.580E-02    0.266E-01
RMM:  12    -0.666552206445E+03   -0.15317E-03   -0.73223E-04 21507   0.354E-02    0.136E-01
RMM:  13    -0.666552297145E+03   -0.90700E-04   -0.40286E-04 18822   0.232E-02
   8 F= -.66655230E+03 E0= -.66613065E+03  d E =-.114404E-01  mag=    79.7872
       N       E                     dE             d eps       ncg     rms          rms(c)
DAV:   1    -0.666569342130E+03   -0.17136E-01   -0.67607E-01 27568   0.894E-01    0.491E-01
RMM:   2    -0.666571390626E+03   -0.20485E-02   -0.29392E-02 23471   0.190E-01    0.789E-01
RMM:   3    -0.666569934744E+03    0.14559E-02   -0.49072E-03 22460   0.920E-02    0.220E-01
RMM:   4    -0.666570377466E+03   -0.44272E-03   -0.13165E-03 21097   0.489E-02    0.185E-01
RMM:   5    -0.666570494300E+03   -0.11683E-03   -0.39932E-04 18575   0.283E-02    0.109E-01
RMM:   6    -0.666570482860E+03    0.11440E-04   -0.14115E-04 15234   0.161E-02    0.943E-02
RMM:   7    -0.666570375075E+03    0.10779E-03   -0.93746E-05 14183   0.145E-02    0.676E-02
RMM:   8    -0.666570178790E+03    0.19628E-03   -0.64498E-05 13767   0.112E-02    0.486E-02
RMM:   9    -0.666570093546E+03    0.85244E-04   -0.26082E-05 12788   0.765E-03
   9 F= -.66657009E+03 E0= -.66614950E+03  d E =-.292368E-01  mag=    79.7898
       N       E                     dE             d eps       ncg     rms          rms(c)
DAV:   1    -0.666570747260E+03   -0.56847E-03   -0.71965E-02 26400   0.293E-01    0.180E-01
RMM:   2    -0.666570442282E+03    0.30498E-03   -0.35284E-03 21602   0.650E-02    0.296E-01
RMM:   3    -0.666570300717E+03    0.14157E-03   -0.63929E-04 18420   0.335E-02    0.858E-02
RMM:   4    -0.666570360011E+03   -0.59295E-04   -0.16626E-04 14857   0.180E-02    0.721E-02
RMM:   5    -0.666570364072E+03   -0.40610E-05   -0.53380E-05 13254   0.110E-02    0.396E-02
RMM:   6    -0.666570322325E+03    0.41747E-04   -0.15852E-05 12270   0.612E-03    0.334E-02
RMM:   7    -0.666570242513E+03    0.79812E-04   -0.10581E-05 12149   0.533E-03    0.284E-02
RMM:   8    -0.666570123945E+03    0.11857E-03   -0.81320E-06 12119   0.448E-03    0.230E-02
RMM:   9    -0.666570082092E+03    0.41854E-04   -0.35244E-06 10558   0.323E-03
  10 F= -.66657008E+03 E0= -.66614968E+03  d E =-.292254E-01  mag=    79.7925
       N       E                     dE             d eps       ncg     rms          rms(c)
DAV:   1    -0.665952728423E+03    0.61740E+00   -0.64356E+01 25472   0.905E+00    0.286E+00
RMM:   2    -0.666166927911E+03   -0.21420E+00   -0.16810E+00 24320   0.177E+00    0.286E+00
RMM:   3    -0.666193982061E+03   -0.27054E-01   -0.26499E-01 24408   0.689E-01    0.164E+00
RMM:   4    -0.666206676875E+03   -0.12695E-01   -0.55662E-02 24900   0.376E-01    0.191E+00
RMM:   5    -0.666192197996E+03    0.14479E-01   -0.20985E-02 24777   0.214E-01    0.101E+00
RMM:   6    -0.666190794018E+03    0.14040E-02   -0.11329E-02 23957   0.146E-01    0.854E-01
RMM:   7    -0.666189683582E+03    0.11104E-02   -0.68896E-03 23225   0.123E-01    0.439E-01
RMM:   8    -0.666190340608E+03   -0.65703E-03   -0.30690E-03 23249   0.789E-02    0.276E-01
RMM:   9    -0.666190711557E+03   -0.37095E-03   -0.12341E-03 24460   0.457E-02    0.133E-01
RMM:  10    -0.666190964946E+03   -0.25339E-03   -0.49726E-04 22263   0.238E-02    0.935E-02
RMM:  11    -0.666191241879E+03   -0.27693E-03   -0.16864E-04 17085   0.159E-02    0.692E-02
RMM:  12    -0.666191519297E+03   -0.27742E-03   -0.12785E-04 15949   0.147E-02    0.570E-02
RMM:  13    -0.666191651785E+03   -0.13249E-03   -0.65831E-05 14378   0.118E-02    0.340E-02
RMM:  14    -0.666191751018E+03   -0.99233E-04   -0.33952E-05 13571   0.848E-03
  11 F= -.66619175E+03 E0= -.66577171E+03  d E =0.378331E+00  mag=    79.7920
       N       E                     dE             d eps       ncg     rms          rms(c)
DAV:   1    -0.666390275267E+03   -0.19862E+00   -0.15389E+01 26832   0.441E+00    0.142E+00
RMM:   2    -0.666437013293E+03   -0.46738E-01   -0.37516E-01 24320   0.871E-01    0.130E+00
RMM:   3    -0.666445779992E+03   -0.87667E-02   -0.67621E-02 24028   0.351E-01    0.103E+00
RMM:   4    -0.666444465947E+03    0.13140E-02   -0.14963E-02 23955   0.201E-01    0.691E-01
RMM:   5    -0.666443809490E+03    0.65646E-03   -0.63320E-03 23386   0.118E-01    0.565E-01
RMM:   6    -0.666443158379E+03    0.65111E-03   -0.26895E-03 22916   0.716E-02    0.436E-01
RMM:   7    -0.666442721083E+03    0.43730E-03   -0.15999E-03 21712   0.597E-02    0.257E-01
RMM:   8    -0.666442575373E+03    0.14571E-03   -0.74533E-04 20715   0.379E-02    0.139E-01
RMM:   9    -0.666442436770E+03    0.13860E-03   -0.26398E-04 17485   0.220E-02    0.765E-02
RMM:  10    -0.666442356578E+03    0.80192E-04   -0.96556E-05 14337   0.148E-02
  12 F= -.66644236E+03 E0= -.66602216E+03  d E =0.127726E+00  mag=    79.7937
       N       E                     dE             d eps       ncg     rms          rms(c)
DAV:   1    -0.666569626516E+03   -0.12719E+00   -0.61428E+00 26672   0.279E+00    0.902E-01
RMM:   2    -0.666588421554E+03   -0.18795E-01   -0.15089E-01 24245   0.551E-01    0.815E-01
RMM:   3    -0.666591759703E+03   -0.33381E-02   -0.27651E-02 23633   0.228E-01    0.701E-01
RMM:   4    -0.666590822163E+03    0.93754E-03   -0.64434E-03 23002   0.132E-01    0.383E-01
RMM:   5    -0.666590666185E+03    0.15598E-03   -0.27534E-03 22500   0.761E-02    0.331E-01
RMM:   6    -0.666590358966E+03    0.30722E-03   -0.11827E-03 21791   0.446E-02    0.217E-01
RMM:   7    -0.666590271380E+03    0.87586E-04   -0.59001E-04 20797   0.343E-02    0.187E-01
RMM:   8    -0.666590059417E+03    0.21196E-03   -0.29707E-04 18101   0.229E-02    0.988E-02
RMM:   9    -0.666589908462E+03    0.15095E-03   -0.90641E-05 14556   0.138E-02    0.549E-02
RMM:  10    -0.666589833826E+03    0.74636E-04   -0.41965E-05 13271   0.104E-02
  13 F= -.66658983E+03 E0= -.66616952E+03  d E =-.197517E-01  mag=    79.7963
       N       E                     dE             d eps       ncg     rms          rms(c)
DAV:   1    -0.666596956912E+03   -0.70485E-02   -0.45928E-01 27440   0.765E-01    0.248E-01
RMM:   2    -0.666598276581E+03   -0.13197E-02   -0.11248E-02 23275   0.150E-01    0.223E-01
RMM:   3    -0.666598476494E+03   -0.19991E-03   -0.20144E-03 21667   0.629E-02    0.201E-01
RMM:   4    -0.666598357646E+03    0.11885E-03   -0.51580E-04 18939   0.372E-02    0.103E-01
RMM:   5    -0.666598327029E+03    0.30617E-04   -0.21955E-04 15971   0.218E-02    0.938E-02
RMM:   6    -0.666598264393E+03    0.62636E-04   -0.93281E-05 14088   0.135E-02    0.655E-02
RMM:   7    -0.666598224760E+03    0.39634E-04   -0.47598E-05 13507   0.108E-02    0.589E-02
RMM:   8    -0.666598165973E+03    0.58786E-04   -0.24251E-05 12903   0.775E-03
  14 F= -.66659817E+03 E0= -.66617774E+03  d E =-.280839E-01  mag=    79.7984
       N       E                     dE             d eps       ncg     rms          rms(c)
DAV:   1    -0.666307891440E+03    0.29033E+00   -0.40850E+01 24800   0.697E+00    0.240E+00
RMM:   2    -0.666442455753E+03   -0.13456E+00   -0.10536E+00 24320   0.128E+00    0.246E+00
RMM:   3    -0.666459238712E+03   -0.16783E-01   -0.16168E-01 24272   0.529E-01    0.129E+00
RMM:   4    -0.666461858318E+03   -0.26196E-02   -0.39979E-02 24154   0.322E-01    0.137E+00
RMM:   5    -0.666457134781E+03    0.47235E-02   -0.13094E-02 23545   0.176E-01    0.576E-01
RMM:   6    -0.666457940604E+03   -0.80582E-03   -0.78708E-03 23827   0.102E-01    0.571E-01
RMM:   7    -0.666458220832E+03   -0.28023E-03   -0.35178E-03 23911   0.827E-02    0.541E-01
RMM:   8    -0.666456979851E+03    0.12410E-02   -0.16932E-03 23405   0.562E-02    0.228E-01
RMM:   9    -0.666456900212E+03    0.79639E-04   -0.64186E-04 21879   0.317E-02
  15 F= -.66645690E+03 E0= -.66603796E+03  d E =0.141266E+00  mag=    79.7971
       N       E                     dE             d eps       ncg     rms          rms(c)
DAV:   1    -0.666522956336E+03   -0.65976E-01   -0.11184E+01 26528   0.362E+00    0.125E+00
RMM:   2    -0.666554661322E+03   -0.31705E-01   -0.26162E-01 24315   0.682E-01    0.114E+00
RMM:   3    -0.666561106680E+03   -0.64454E-02   -0.44672E-02 23890   0.266E-01    0.661E-01
RMM:   4    -0.666561428221E+03   -0.32154E-03   -0.86762E-03 23312   0.149E-01    0.574E-01
RMM:   5    -0.666560969468E+03    0.45875E-03   -0.32289E-03 22601   0.912E-02    0.431E-01
RMM:   6    -0.666561022293E+03   -0.52826E-04   -0.18983E-03 22286   0.555E-02    0.327E-01
RMM:   7    -0.666560824629E+03    0.19766E-03   -0.10407E-03 21882   0.454E-02    0.238E-01
RMM:   8    -0.666560631876E+03    0.19275E-03   -0.43325E-04 19773   0.312E-02    0.877E-02
RMM:   9    -0.666560631751E+03    0.12526E-06   -0.12611E-04 14832   0.164E-02
  16 F= -.66656063E+03 E0= -.66614088E+03  d E =0.375342E-01  mag=    79.7974
       N       E                     dE             d eps       ncg     rms          rms(c)
DAV:   1    -0.666606269637E+03   -0.45638E-01   -0.26014E+00 27088   0.175E+00    0.610E-01
RMM:   2    -0.666614176469E+03   -0.79068E-02   -0.62598E-02 24032   0.329E-01    0.563E-01
RMM:   3    -0.666615298299E+03   -0.11218E-02   -0.10593E-02 23129   0.130E-01    0.335E-01
RMM:   4    -0.666615301780E+03   -0.34813E-05   -0.21229E-03 22333   0.725E-02    0.295E-01
RMM:   5    -0.666615020597E+03    0.28118E-03   -0.81609E-04 21269   0.439E-02    0.216E-01
RMM:   6    -0.666614742558E+03    0.27804E-03   -0.45794E-04 19696   0.262E-02    0.153E-01
RMM:   7    -0.666614553216E+03    0.18934E-03   -0.25353E-04 17747   0.237E-02    0.111E-01
RMM:   8    -0.666614431377E+03    0.12184E-03   -0.12155E-04 14732   0.170E-02    0.490E-02
RMM:   9    -0.666614376166E+03    0.55211E-04   -0.36562E-05 13194   0.974E-03
  17 F= -.66661438E+03 E0= -.66619426E+03  d E =-.162102E-01  mag=    79.7987
       N       E                     dE             d eps       ncg     rms          rms(c)
DAV:   1    -0.666618088861E+03   -0.36575E-02   -0.24338E-01 26704   0.537E-01    0.185E-01
RMM:   2    -0.666618791523E+03   -0.70266E-03   -0.58778E-03 22410   0.100E-01    0.169E-01
RMM:   3    -0.666618807140E+03   -0.15617E-04   -0.95580E-04 20244   0.394E-02    0.103E-01
RMM:   4    -0.666618757858E+03    0.49282E-04   -0.21482E-04 15956   0.222E-02    0.982E-02
RMM:   5    -0.666618683763E+03    0.74095E-04   -0.76673E-05 13969   0.147E-02    0.657E-02
RMM:   6    -0.666618600648E+03    0.83115E-04   -0.38117E-05 13210   0.875E-03    0.401E-02
RMM:   7    -0.666618547406E+03    0.53242E-04   -0.25066E-05 12813   0.805E-03    0.364E-02
RMM:   8    -0.666618515424E+03    0.31981E-04   -0.12844E-05 12302   0.619E-03
  18 F= -.66661852E+03 E0= -.66619837E+03  d E =-.203495E-01  mag=    79.8001
       N       E                     dE             d eps       ncg     rms          rms(c)
DAV:   1    -0.666507415184E+03    0.11113E+00   -0.17276E+01 24944   0.442E+00    0.166E+00
RMM:   2    -0.666563654017E+03   -0.56239E-01   -0.39551E-01 24320   0.828E-01    0.158E+00
RMM:   3    -0.666578567632E+03   -0.14914E-01   -0.77934E-02 24278   0.398E-01    0.141E+00
RMM:   4    -0.666572087877E+03    0.64798E-02   -0.19084E-02 23346   0.225E-01    0.509E-01
RMM:   5    -0.666572448911E+03   -0.36103E-03   -0.67702E-03 23825   0.107E-01    0.401E-01
RMM:   6    -0.666572163198E+03    0.28571E-03   -0.21195E-03 21880   0.590E-02    0.231E-01
RMM:   7    -0.666572738685E+03   -0.57549E-03   -0.13673E-03 21851   0.521E-02    0.329E-01
RMM:   8    -0.666572293003E+03    0.44568E-03   -0.56195E-04 20289   0.354E-02    0.116E-01
RMM:   9    -0.666572258481E+03    0.34521E-04   -0.19264E-04 16676   0.176E-02
  19 F= -.66657226E+03 E0= -.66615154E+03  d E =0.462569E-01  mag=    79.7991
       N       E                     dE             d eps       ncg     rms          rms(c)
DAV:   1    -0.666610771330E+03   -0.38478E-01   -0.80923E+00 26288   0.300E+00    0.109E+00
RMM:   2    -0.666634228857E+03   -0.23458E-01   -0.16964E-01 24320   0.549E-01    0.759E-01
RMM:   3    -0.666641271253E+03   -0.70424E-02   -0.26768E-02 23971   0.223E-01    0.760E-01
RMM:   4    -0.666639082024E+03    0.21892E-02   -0.64224E-03 22940   0.128E-01    0.324E-01
RMM:   5    -0.666639307092E+03   -0.22507E-03   -0.25975E-03 22767   0.684E-02    0.297E-01
RMM:   6    -0.666639061451E+03    0.24564E-03   -0.92674E-04 20923   0.410E-02    0.196E-01
RMM:   7    -0.666639100940E+03   -0.39489E-04   -0.62657E-04 20380   0.349E-02    0.219E-01
RMM:   8    -0.666638794894E+03    0.30605E-03   -0.23792E-04 17363   0.244E-02    0.648E-02
RMM:   9    -0.666638768444E+03    0.26450E-04   -0.71535E-05 14193   0.125E-02
  20 F= -.66663877E+03 E0= -.66621842E+03  d E =-.202530E-01  mag=    79.7997
       N       E                     dE             d eps       ncg     rms          rms(c)
DAV:   1    -0.666635106392E+03    0.36885E-02   -0.45774E+00 26016   0.226E+00    0.941E-01
RMM:   2    -0.666648630431E+03   -0.13524E-01   -0.10249E-01 24320   0.406E-01    0.979E-01
RMM:   3    -0.666651531711E+03   -0.29013E-02   -0.22480E-02 23857   0.204E-01    0.672E-01
RMM:   4    -0.666650438792E+03    0.10929E-02   -0.52451E-03 22468   0.115E-01    0.288E-01
RMM:   5    -0.666650397636E+03    0.41156E-04   -0.17640E-03 21817   0.590E-02    0.245E-01
RMM:   6    -0.666650265651E+03    0.13199E-03   -0.70478E-04 19872   0.340E-02    0.137E-01
RMM:   7    -0.666650284828E+03   -0.19177E-04   -0.44446E-04 19161   0.309E-02    0.136E-01
RMM:   8    -0.666650269243E+03    0.15585E-04   -0.17590E-04 16076   0.211E-02
  21 F= -.66665027E+03 E0= -.66622861E+03  d E =-.115008E-01  mag=    79.7994
       N       E                     dE             d eps       ncg     rms          rms(c)
DAV:   1    -0.666656437149E+03   -0.61523E-02   -0.92505E-01 26432   0.101E+00    0.413E-01
RMM:   2    -0.666658956517E+03   -0.25194E-02   -0.19803E-02 24119   0.176E-01    0.408E-01
RMM:   3    -0.666659535808E+03   -0.57929E-03   -0.39107E-03 22167   0.838E-02    0.276E-01
RMM:   4    -0.666659375696E+03    0.16011E-03   -0.88512E-04 20416   0.482E-02    0.138E-01
RMM:   5    -0.666659423266E+03   -0.47570E-04   -0.30134E-04 17442   0.261E-02    0.115E-01
RMM:   6    -0.666659477677E+03   -0.54412E-04   -0.14106E-04 15123   0.174E-02    0.103E-01
RMM:   7    -0.666659511949E+03   -0.34272E-04   -0.85608E-05 14207   0.145E-02    0.617E-02
RMM:   8    -0.666659530314E+03   -0.18365E-04   -0.35427E-05 13278   0.921E-03
  22 F= -.66665953E+03 E0= -.66623850E+03  d E =-.207619E-01  mag=    79.7995
       N       E                     dE             d eps       ncg     rms          rms(c)
DAV:   1    -0.666688317320E+03   -0.28805E-01   -0.14156E+00 25520   0.134E+00    0.423E-01
RMM:   2    -0.666692141526E+03   -0.38242E-02   -0.31242E-02 24236   0.244E-01    0.332E-01
RMM:   3    -0.666693327464E+03   -0.11859E-02   -0.52628E-03 23144   0.105E-01    0.330E-01
RMM:   4    -0.666693084581E+03    0.24288E-03   -0.13428E-03 21458   0.589E-02    0.156E-01
RMM:   5    -0.666693137955E+03   -0.53374E-04   -0.51383E-04 19595   0.298E-02    0.129E-01
RMM:   6    -0.666693113820E+03    0.24136E-04   -0.16968E-04 15986   0.183E-02    0.980E-02
RMM:   7    -0.666693104787E+03    0.90329E-05   -0.11423E-04 14917   0.164E-02    0.675E-02
RMM:   8    -0.666693096697E+03    0.80895E-05   -0.59290E-05 13739   0.121E-02
  23 F= -.66669310E+03 E0= -.66627186E+03  d E =-.335664E-01  mag=    79.7995
       N       E                     dE             d eps       ncg     rms          rms(c)
DAV:   1    -0.666692404105E+03    0.70068E-03   -0.18397E+00 25456   0.153E+00    0.485E-01
RMM:   2    -0.666697431765E+03   -0.50277E-02   -0.40379E-02 24300   0.278E-01    0.388E-01
RMM:   3    -0.666698978712E+03   -0.15469E-02   -0.69515E-03 23506   0.120E-01    0.391E-01
RMM:   4    -0.666698597325E+03    0.38139E-03   -0.17420E-03 22089   0.673E-02    0.188E-01
RMM:   5    -0.666698657632E+03   -0.60308E-04   -0.67726E-04 20871   0.336E-02    0.148E-01
RMM:   6    -0.666698621384E+03    0.36248E-04   -0.22692E-04 17079   0.206E-02    0.106E-01
RMM:   7    -0.666698625405E+03   -0.40210E-05   -0.14775E-04 15715   0.185E-02    0.740E-02
RMM:   8    -0.666698633939E+03   -0.85346E-05   -0.79936E-05 14203   0.142E-02
  24 F= -.66669863E+03 E0= -.66627702E+03  d E =-.391036E-01  mag=    79.7994
       N       E                     dE             d eps       ncg     rms          rms(c)
DAV:   1    -0.666702468172E+03   -0.38428E-02   -0.43919E-01 27664   0.748E-01    0.236E-01
RMM:   2    -0.666703677652E+03   -0.12095E-02   -0.94213E-03 24017   0.134E-01    0.187E-01
RMM:   3    -0.666704054615E+03   -0.37696E-03   -0.15789E-03 21441   0.570E-02    0.178E-01
RMM:   4    -0.666703980549E+03    0.74065E-04   -0.39037E-04 18352   0.322E-02    0.916E-02
RMM:   5    -0.666704002629E+03   -0.22079E-04   -0.14791E-04 15147   0.176E-02    0.727E-02
RMM:   6    -0.666704019384E+03   -0.16755E-04   -0.53687E-05 13632   0.113E-02    0.517E-02
RMM:   7    -0.666704043389E+03   -0.24005E-04   -0.37219E-05 13167   0.969E-03    0.392E-02
RMM:   8    -0.666704068950E+03   -0.25561E-04   -0.16724E-05 12610   0.670E-03
  25 F= -.66670407E+03 E0= -.66628248E+03  d E =-.445386E-01  mag=    79.7995
       N       E                     dE             d eps       ncg     rms          rms(c)
DAV:   1    -0.666712299824E+03   -0.82564E-02   -0.75745E-02 27040   0.299E-01    0.993E-02
RMM:   2    -0.666712478692E+03   -0.17887E-03   -0.17005E-03 20786   0.528E-02    0.956E-02
RMM:   3    -0.666712544942E+03   -0.66251E-04   -0.26973E-04 16653   0.224E-02    0.660E-02
RMM:   4    -0.666712562905E+03   -0.17962E-04   -0.71202E-05 13769   0.140E-02    0.473E-02
RMM:   5    -0.666712572854E+03   -0.99493E-05   -0.25221E-05 12549   0.828E-03    0.303E-02
RMM:   6    -0.666712593364E+03   -0.20510E-04   -0.10249E-05 11780   0.470E-03    0.239E-02
RMM:   7    -0.666712614637E+03   -0.21273E-04   -0.61043E-06 11577   0.441E-03    0.183E-02
RMM:   8    -0.666712628859E+03   -0.14222E-04   -0.27993E-06 10203   0.320E-03
  26 F= -.66671263E+03 E0= -.66629101E+03  d E =-.855991E-02  mag=    79.7995
       N       E                     dE             d eps       ncg     rms          rms(c)
DAV:   1    -0.666716167016E+03   -0.35524E-02   -0.26556E-01 25840   0.559E-01    0.188E-01
RMM:   2    -0.666716849754E+03   -0.68274E-03   -0.60201E-03 22961   0.989E-02    0.189E-01
RMM:   3    -0.666717008951E+03   -0.15920E-03   -0.98131E-04 20165   0.424E-02    0.136E-01
RMM:   4    -0.666717014237E+03   -0.52867E-05   -0.24493E-04 16880   0.253E-02    0.930E-02
RMM:   5    -0.666717020365E+03   -0.61276E-05   -0.87522E-05 14207   0.150E-02    0.583E-02
RMM:   6    -0.666717038695E+03   -0.18330E-04   -0.34998E-05 13168   0.872E-03    0.434E-02
RMM:   7    -0.666717065303E+03   -0.26608E-04   -0.25951E-05 12742   0.823E-03    0.318E-02
RMM:   8    -0.666717082969E+03   -0.17667E-04   -0.12274E-05 12254   0.590E-03
  27 F= -.66671708E+03 E0= -.66629529E+03  d E =-.130140E-01  mag=    79.7994
       N       E                     dE             d eps       ncg     rms          rms(c)
DAV:   1    -0.666717583318E+03   -0.51802E-03   -0.18828E-02 27200   0.149E-01    0.506E-02
RMM:   2    -0.666717648632E+03   -0.65314E-04   -0.42327E-04 17322   0.267E-02    0.544E-02
RMM:   3    -0.666717673471E+03   -0.24839E-04   -0.72351E-05 13994   0.129E-02    0.385E-02
RMM:   4    -0.666717680814E+03   -0.73425E-05   -0.20753E-05 12330   0.783E-03    0.233E-02
RMM:   5    -0.666717688578E+03   -0.77644E-05   -0.57369E-06 10874   0.424E-03    0.137E-02
RMM:   6    -0.666717703572E+03   -0.14993E-04   -0.20572E-06  9043   0.278E-03    0.128E-02
RMM:   7    -0.666717718830E+03   -0.15258E-04   -0.13482E-06  8796   0.265E-03    0.918E-03
RMM:   8    -0.666717730223E+03   -0.11393E-04   -0.17246E-07  5849   0.208E-03
  28 F= -.66671773E+03 E0= -.66629598E+03  d E =-.136613E-01  mag=    79.7994
       N       E                     dE             d eps       ncg     rms          rms(c)
DAV:   1    -0.666725485041E+03   -0.77662E-02   -0.13286E-02 26816   0.132E-01    0.272E-02
RMM:   2    -0.666725513659E+03   -0.28618E-04   -0.29310E-04 16290   0.241E-02    0.298E-02
RMM:   3    -0.666725539486E+03   -0.25827E-04   -0.48066E-05 13510   0.108E-02    0.297E-02
RMM:   4    -0.666725543588E+03   -0.41015E-05   -0.94487E-06 12037   0.554E-03    0.122E-02
RMM:   5    -0.666725551422E+03   -0.78343E-05   -0.24901E-06  9541   0.293E-03    0.968E-03
RMM:   6    -0.666725561834E+03   -0.10412E-04   -0.99244E-07  8071   0.244E-03    0.820E-03
RMM:   7    -0.666725575014E+03   -0.13180E-04   -0.63116E-07  7113   0.229E-03    0.553E-03
RMM:   8    -0.666725585124E+03   -0.10110E-04   -0.12864E-07  5641   0.211E-03
  29 F= -.66672559E+03 E0= -.66630383E+03  d E =-.785490E-02  mag=    79.7993
       N       E                     dE             d eps       ncg     rms          rms(c)
DAV:   1    -0.666743621892E+03   -0.18047E-01   -0.11923E-01 26192   0.396E-01    0.807E-02
RMM:   2    -0.666743816494E+03   -0.19460E-03   -0.25948E-03 22182   0.717E-02    0.749E-02
RMM:   3    -0.666743951975E+03   -0.13548E-03   -0.43284E-04 17865   0.297E-02    0.785E-02
RMM:   4    -0.666743934274E+03    0.17701E-04   -0.93302E-05 14318   0.160E-02    0.362E-02
RMM:   5    -0.666743934927E+03   -0.65286E-06   -0.28736E-05 13050   0.860E-03    0.323E-02
RMM:   6    -0.666743929279E+03    0.56485E-05   -0.11813E-05 12472   0.516E-03    0.250E-02
RMM:   7    -0.666743928256E+03    0.10221E-05   -0.85799E-06 12281   0.476E-03    0.206E-02
RMM:   8    -0.666743932086E+03   -0.38291E-05   -0.42238E-06 10944   0.366E-03
  30 F= -.66674393E+03 E0= -.66632218E+03  d E =-.262019E-01  mag=    79.7991
       N       E                     dE             d eps       ncg     rms          rms(c)
DAV:   1    -0.666751707609E+03   -0.77794E-02   -0.47758E-01 26144   0.792E-01    0.162E-01
RMM:   2    -0.666752563937E+03   -0.85633E-03   -0.10352E-02 23302   0.143E-01    0.150E-01
RMM:   3    -0.666752957353E+03   -0.39342E-03   -0.17258E-03 21582   0.593E-02    0.151E-01
RMM:   4    -0.666752871243E+03    0.86110E-04   -0.38131E-04 18254   0.307E-02    0.683E-02
RMM:   5    -0.666752852215E+03    0.19027E-04   -0.11963E-04 14744   0.160E-02    0.637E-02
RMM:   6    -0.666752804243E+03    0.47972E-04   -0.48238E-05 13603   0.989E-03    0.522E-02
RMM:   7    -0.666752768025E+03    0.36218E-04   -0.32714E-05 13241   0.855E-03    0.438E-02
RMM:   8    -0.666752750641E+03    0.17385E-04   -0.16276E-05 12632   0.654E-03
  31 F= -.66675275E+03 E0= -.66633100E+03  d E =-.350204E-01  mag=    79.7988
       N       E                     dE             d eps       ncg     rms          rms(c)
DAV:   1    -0.666754293162E+03   -0.15251E-02   -0.38344E-02 27216   0.225E-01    0.463E-02
RMM:   2    -0.666754344324E+03   -0.51162E-04   -0.83928E-04 19640   0.410E-02    0.501E-02
RMM:   3    -0.666754410717E+03   -0.66393E-04   -0.13323E-04 14680   0.172E-02    0.421E-02
RMM:   4    -0.666754429585E+03   -0.18869E-04   -0.29582E-05 13078   0.953E-03    0.227E-02
RMM:   5    -0.666754444237E+03   -0.14652E-04   -0.78784E-06 11667   0.481E-03    0.164E-02
RMM:   6    -0.666754470092E+03   -0.25855E-04   -0.32529E-06 10207   0.305E-03    0.140E-02
RMM:   7    -0.666754492912E+03   -0.22820E-04   -0.25382E-06 10023   0.299E-03    0.119E-02
RMM:   8    -0.666754509791E+03   -0.16879E-04   -0.61394E-07  7021   0.226E-03
  32 F= -.66675451E+03 E0= -.66633272E+03  d E =-.367796E-01  mag=    79.7985
       N       E                     dE             d eps       ncg     rms          rms(c)
DAV:   1    -0.666756304182E+03   -0.18113E-02   -0.62775E-03 26096   0.927E-02    0.256E-02
RMM:   2    -0.666756315831E+03   -0.11649E-04   -0.14789E-04 15356   0.173E-02    0.258E-02
RMM:   3    -0.666756332652E+03   -0.16821E-04   -0.23165E-05 13113   0.776E-03    0.157E-02
RMM:   4    -0.666756339805E+03   -0.71526E-05   -0.51901E-06 11485   0.420E-03    0.140E-02
RMM:   5    -0.666756345738E+03   -0.59330E-05   -0.19667E-06  9424   0.298E-03    0.905E-03
RMM:   6    -0.666756356580E+03   -0.10842E-04   -0.39521E-07  6287   0.213E-03    0.736E-03
RMM:   7    -0.666756366336E+03   -0.97556E-05   -0.14001E-07  5673   0.199E-03    0.624E-03
RMM:   8    -0.666756373107E+03   -0.67707E-05   -0.39972E-08  5065   0.189E-03
  33 F= -.66675637E+03 E0= -.66633461E+03  d E =-.186332E-02  mag=    79.7981
       N       E                     dE             d eps       ncg     rms          rms(c)
DAV:   1    -0.666758821948E+03   -0.24556E-02   -0.56200E-02 26736   0.277E-01    0.753E-02
RMM:   2    -0.666758900716E+03   -0.78768E-04   -0.12994E-03 21325   0.518E-02    0.738E-02
RMM:   3    -0.666758968083E+03   -0.67366E-04   -0.21558E-04 16147   0.210E-02    0.539E-02
RMM:   4    -0.666758970076E+03   -0.19930E-05   -0.49959E-05 13692   0.123E-02    0.452E-02
RMM:   5    -0.666758965152E+03    0.49234E-05   -0.17480E-05 12726   0.707E-03    0.275E-02
RMM:   6    -0.666758968347E+03   -0.31944E-05   -0.87444E-06 12050   0.468E-03    0.238E-02
RMM:   7    -0.666758970020E+03   -0.16731E-05   -0.56847E-06 11760   0.445E-03    0.137E-02
RMM:   8    -0.666758972743E+03   -0.27227E-05   -0.20236E-06  9682   0.285E-03
  34 F= -.66675897E+03 E0= -.66633728E+03  d E =-.446295E-02  mag=    79.7977
       N       E                     dE             d eps       ncg     rms          rms(c)
DAV:   1    -0.666759046710E+03   -0.76690E-04   -0.17970E-03 25520   0.497E-02    0.143E-02
RMM:   2    -0.666759046862E+03   -0.15274E-06   -0.45334E-05 14096   0.960E-03    0.165E-02
RMM:   3    -0.666759052430E+03   -0.55674E-05   -0.66637E-06 12011   0.469E-03    0.892E-03
RMM:   4    -0.666759055587E+03   -0.31576E-05   -0.13410E-06  8737   0.266E-03    0.711E-03
RMM:   5    -0.666759058755E+03   -0.31674E-05   -0.28324E-07  6152   0.211E-03    0.411E-03
RMM:   6    -0.666759064238E+03   -0.54832E-05   -0.36035E-08  5069   0.193E-03    0.472E-03
RMM:   7    -0.666759069212E+03   -0.49737E-05   -0.87759E-09  4905   0.193E-03    0.329E-03
RMM:   8    -0.666759073350E+03   -0.41379E-05   -0.16824E-08  4889   0.196E-03
  35 F= -.66675907E+03 E0= -.66633741E+03  d E =-.456356E-02  mag=    79.7974
       N       E                     dE             d eps       ncg     rms          rms(c)
DAV:   1    -0.666761120715E+03   -0.20515E-02   -0.62558E-03 26992   0.936E-02    0.341E-02
RMM:   2    -0.666761126636E+03   -0.59213E-05   -0.14006E-04 15271   0.178E-02    0.290E-02
RMM:   3    -0.666761143626E+03   -0.16990E-04   -0.25308E-05 13892   0.810E-03    0.195E-02
RMM:   4    -0.666761147534E+03   -0.39083E-05   -0.60273E-06 11947   0.449E-03    0.190E-02
RMM:   5    -0.666761152783E+03   -0.52489E-05   -0.22706E-06 10548   0.305E-03    0.123E-02
RMM:   6    -0.666761160915E+03   -0.81314E-05   -0.69794E-07  7522   0.235E-03    0.907E-03
RMM:   7    -0.666761167214E+03   -0.62995E-05   -0.30955E-07  6396   0.218E-03    0.485E-03
RMM:   8    -0.666761171781E+03   -0.45667E-05   -0.11251E-08  4944   0.193E-03
  36 F= -.66676117E+03 E0= -.66633951E+03  d E =-.209843E-02  mag=    79.7970
       N       E                     dE             d eps       ncg     rms          rms(c)
DAV:   1    -0.666764475509E+03   -0.33083E-02   -0.55984E-02 26960   0.280E-01    0.994E-02
RMM:   2    -0.666764564822E+03   -0.89313E-04   -0.12276E-03 22441   0.529E-02    0.831E-02
RMM:   3    -0.666764650784E+03   -0.85962E-04   -0.23649E-04 16384   0.218E-02    0.537E-02
RMM:   4    -0.666764657139E+03   -0.63549E-05   -0.57695E-05 14506   0.133E-02    0.537E-02
RMM:   5    -0.666764656841E+03    0.29756E-06   -0.20541E-05 13141   0.805E-03    0.333E-02
RMM:   6    -0.666764666114E+03   -0.92722E-05   -0.11152E-05 12631   0.537E-03    0.280E-02
RMM:   7    -0.666764671597E+03   -0.54836E-05   -0.66833E-06 11980   0.484E-03    0.165E-02
RMM:   8    -0.666764674336E+03   -0.27390E-05   -0.21757E-06 10155   0.300E-03
  37 F= -.66676467E+03 E0= -.66634301E+03  d E =-.560099E-02  mag=    79.7965
       N       E                     dE             d eps       ncg     rms          rms(c)
DAV:   1    -0.666767200137E+03   -0.25285E-02   -0.15280E-02 27296   0.144E-01    0.496E-02
RMM:   2    -0.666767226784E+03   -0.26647E-04   -0.35169E-04 17309   0.287E-02    0.391E-02
RMM:   3    -0.666767244029E+03   -0.17245E-04   -0.68693E-05 14697   0.133E-02    0.454E-02
RMM:   4    -0.666767234537E+03    0.94925E-05   -0.19876E-05 12497   0.799E-03    0.178E-02
RMM:   5    -0.666767231308E+03    0.32289E-05   -0.67692E-06 11218   0.426E-03    0.173E-02
RMM:   6    -0.666767230383E+03    0.92527E-06   -0.28071E-06  9939   0.312E-03    0.932E-03
RMM:   7    -0.666767231695E+03   -0.13122E-05   -0.89993E-07  8041   0.252E-03    0.877E-03
RMM:   8    -0.666767232561E+03   -0.86613E-06   -0.59445E-08  5478   0.206E-03
  38 F= -.66676723E+03 E0= -.66634557E+03  d E =-.255822E-02  mag=    79.7960
       N       E                     dE             d eps       ncg     rms          rms(c)
DAV:   1    -0.666769538712E+03   -0.23070E-02   -0.10069E-01 26480   0.369E-01    0.126E-01
RMM:   2    -0.666769776336E+03   -0.23762E-03   -0.23049E-03 23060   0.737E-02    0.102E-01
RMM:   3    -0.666769897141E+03   -0.12081E-03   -0.46672E-04 18633   0.326E-02    0.121E-01
RMM:   4    -0.666769835736E+03    0.61406E-04   -0.12757E-04 15450   0.199E-02    0.432E-02
RMM:   5    -0.666769836976E+03   -0.12401E-05   -0.48531E-05 13616   0.104E-02    0.517E-02
RMM:   6    -0.666769825289E+03    0.11686E-04   -0.20625E-05 12916   0.772E-03    0.318E-02
RMM:   7    -0.666769824724E+03    0.56531E-06   -0.11557E-05 12292   0.552E-03    0.236E-02
RMM:   8    -0.666769822852E+03    0.18720E-05   -0.41732E-06 10932   0.382E-03
  39 F= -.66676982E+03 E0= -.66634807E+03  d E =-.514852E-02  mag=    79.7954
       N       E                     dE             d eps       ncg     rms          rms(c)
DAV:   1    -0.666770929534E+03   -0.11048E-02   -0.75265E-03 27712   0.958E-02    0.455E-02
RMM:   2    -0.666770937920E+03   -0.83856E-05   -0.17517E-04 15707   0.202E-02    0.443E-02
RMM:   3    -0.666770952500E+03   -0.14580E-04   -0.41275E-05 14301   0.110E-02    0.392E-02
RMM:   4    -0.666770947027E+03    0.54725E-05   -0.12325E-05 12170   0.642E-03    0.168E-02
RMM:   5    -0.666770947370E+03   -0.34226E-06   -0.40949E-06 10737   0.350E-03    0.157E-02
RMM:   6    -0.666770948946E+03   -0.15767E-05   -0.19564E-06  9640   0.290E-03    0.120E-02
RMM:   7    -0.666770951552E+03   -0.26058E-05   -0.54943E-07  7165   0.235E-03    0.647E-03
RMM:   8    -0.666770954023E+03   -0.24708E-05   -0.10014E-07  5504   0.210E-03
  40 F= -.66677095E+03 E0= -.66634920E+03  d E =-.113117E-02  mag=    79.7948
       N       E                     dE             d eps       ncg     rms          rms(c)
DAV:   1    -0.666771493933E+03   -0.54238E-03   -0.16315E-02 27200   0.141E-01    0.649E-02
RMM:   2    -0.666771523831E+03   -0.29898E-04   -0.36931E-04 17724   0.294E-02    0.566E-02
RMM:   3    -0.666771553167E+03   -0.29336E-04   -0.75471E-05 14785   0.138E-02    0.489E-02
RMM:   4    -0.666771543994E+03    0.91735E-05   -0.22621E-05 13086   0.858E-03    0.271E-02
RMM:   5    -0.666771543685E+03    0.30873E-06   -0.81989E-06 11845   0.478E-03    0.210E-02
RMM:   6    -0.666771545017E+03   -0.13323E-05   -0.39701E-06 11125   0.367E-03    0.158E-02
RMM:   7    -0.666771547604E+03   -0.25867E-05   -0.20925E-06 10073   0.307E-03    0.929E-03
RMM:   8    -0.666771550090E+03   -0.24857E-05   -0.37934E-07  6495   0.228E-03
  41 F= -.66677155E+03 E0= -.66634978E+03  d E =-.172724E-02  mag=    79.7941
       N       E                     dE             d eps       ncg     rms          rms(c)
DAV:   1    -0.666773077713E+03   -0.15301E-02   -0.12423E-02 27168   0.128E-01    0.355E-02
RMM:   2    -0.666773116862E+03   -0.39149E-04   -0.29031E-04 16593   0.248E-02    0.304E-02
RMM:   3    -0.666773135506E+03   -0.18644E-04   -0.53482E-05 13623   0.113E-02    0.403E-02
RMM:   4    -0.666773132068E+03    0.34384E-05   -0.12561E-05 12075   0.630E-03    0.131E-02
RMM:   5    -0.666773138489E+03   -0.64215E-05   -0.40708E-06 10586   0.337E-03    0.160E-02
RMM:   6    -0.666773141106E+03   -0.26166E-05   -0.19630E-06  9806   0.290E-03    0.965E-03
RMM:   7    -0.666773145252E+03   -0.41467E-05   -0.55390E-07  6820   0.225E-03    0.655E-03
RMM:   8    -0.666773148254E+03   -0.30017E-05   -0.88362E-08  5477   0.203E-03
  42 F= -.66677315E+03 E0= -.66635143E+03  d E =-.159816E-02  mag=    79.7936
       N       E                     dE             d eps       ncg     rms          rms(c)
DAV:   1    -0.666773616194E+03   -0.47094E-03   -0.10552E-02 27152   0.118E-01    0.316E-02
RMM:   2    -0.666773648781E+03   -0.32587E-04   -0.24552E-04 16231   0.224E-02    0.244E-02
RMM:   3    -0.666773664122E+03   -0.15341E-04   -0.40352E-05 13354   0.974E-03    0.283E-02
RMM:   4    -0.666773664092E+03    0.29802E-07   -0.98005E-06 11819   0.549E-03    0.147E-02
RMM:   5    -0.666773668831E+03   -0.47386E-05   -0.33938E-06 10159   0.333E-03    0.142E-02
RMM:   6    -0.666773671727E+03   -0.28959E-05   -0.13678E-06  8505   0.259E-03    0.779E-03
RMM:   7    -0.666773675748E+03   -0.40215E-05   -0.45153E-07  6614   0.224E-03    0.660E-03
RMM:   8    -0.666773678335E+03   -0.25867E-05   -0.96832E-08  5364   0.208E-03
  43 F= -.66677368E+03 E0= -.66635201E+03  d E =-.212825E-02  mag=    79.7931
       N       E                     dE             d eps       ncg     rms          rms(c)
DAV:   1    -0.666773684389E+03   -0.86413E-05   -0.10083E-04 22784   0.120E-02    0.449E-03
RMM:   2    -0.666773689224E+03   -0.48345E-05   -0.32831E-06  8947   0.307E-03    0.665E-03
RMM:   3    -0.666773690587E+03   -0.13630E-05   -0.26998E-07  5478   0.197E-03    0.323E-03
RMM:   4    -0.666773692949E+03   -0.23618E-05   -0.41985E-09  4209   0.173E-03    0.316E-03
RMM:   5    -0.666773695789E+03   -0.28405E-05   -0.18333E-09  4362   0.173E-03    0.274E-03
RMM:   6    -0.666773700532E+03   -0.47428E-05   -0.42934E-09  4615   0.175E-03    0.197E-03
RMM:   7    -0.666773706237E+03   -0.57048E-05   -0.71202E-09  4781   0.177E-03    0.187E-03
RMM:   8    -0.666773709859E+03   -0.36224E-05   -0.61251E-09  4727   0.177E-03
  44 F= -.66677371E+03 E0= -.66635206E+03  d E =-.215977E-02  mag=    79.7925
       N       E                     dE             d eps       ncg     rms          rms(c)
DAV:   1    -0.666773935954E+03   -0.22972E-03   -0.20058E-03 26240   0.527E-02    0.200E-02
RMM:   2    -0.666773951898E+03   -0.15944E-04   -0.59197E-05 14175   0.105E-02    0.288E-02
RMM:   3    -0.666773952183E+03   -0.28498E-06   -0.10203E-05 11956   0.509E-03    0.959E-03
RMM:   4    -0.666773953852E+03   -0.16685E-05   -0.21605E-06  8983   0.288E-03    0.935E-03
RMM:   5    -0.666773954494E+03   -0.64215E-06   -0.57286E-07  6613   0.226E-03    0.502E-03
RMM:   6    -0.666773956079E+03   -0.15851E-05   -0.47310E-08  4905   0.194E-03    0.340E-03
RMM:   7    -0.666773958426E+03   -0.23474E-05   -0.12012E-07  5183   0.199E-03    0.359E-03
RMM:   8    -0.666773959339E+03   -0.91223E-06   -0.12467E-08  4661   0.191E-03
  45 F= -.66677396E+03 E0= -.66635233E+03  d E =-.249479E-03  mag=    79.7921
       N       E                     dE             d eps       ncg     rms          rms(c)
DAV:   1    -0.666774009090E+03   -0.50664E-04   -0.13264E-03 26336   0.431E-02    0.165E-02
RMM:   2    -0.666774021276E+03   -0.12186E-04   -0.40965E-05 13769   0.869E-03    0.246E-02
RMM:   3    -0.666774021076E+03    0.20070E-06   -0.68839E-06 11475   0.428E-03    0.820E-03
RMM:   4    -0.666774022287E+03   -0.12112E-05   -0.12794E-06  7598   0.252E-03    0.799E-03
RMM:   5    -0.666774022777E+03   -0.48988E-06   -0.24239E-07  5575   0.204E-03    0.478E-03
RMM:   6    -0.666774023768E+03   -0.99093E-06   -0.13340E-08  4554   0.187E-03    0.449E-03
RMM:   7    -0.666774025346E+03   -0.15786E-05   -0.18436E-08  4635   0.193E-03    0.309E-03
RMM:   8    -0.666774027158E+03   -0.18119E-05   -0.53130E-08  4792   0.193E-03
  46 F= -.66677403E+03 E0= -.66635242E+03  d E =-.317299E-03  mag=    79.7916
       N       E                     dE             d eps       ncg     rms          rms(c)
DAV:   1    -0.666774117831E+03   -0.92485E-04   -0.76906E-04 25680   0.320E-02    0.156E-02
RMM:   2    -0.666774125939E+03   -0.81086E-05   -0.16852E-05 14043   0.684E-03    0.122E-02
RMM:   3    -0.666774128101E+03   -0.21616E-05   -0.29435E-06 10727   0.329E-03    0.892E-03
RMM:   4    -0.666774129053E+03   -0.95228E-06   -0.75136E-07  6967   0.239E-03    0.558E-03
RMM:   5    -0.666774131011E+03   -0.19581E-05   -0.97188E-08  4994   0.194E-03    0.378E-03
RMM:   6    -0.666774133726E+03   -0.27153E-05   -0.39942E-09  4477   0.186E-03    0.375E-03
RMM:   7    -0.666774135964E+03   -0.22380E-05   -0.11931E-08  4620   0.187E-03    0.247E-03
RMM:   8    -0.666774138014E+03   -0.20494E-05   -0.32434E-09  4459   0.189E-03
  47 F= -.66677414E+03 E0= -.66635253E+03  d E =-.110856E-03  mag=    79.7912
       N       E                     dE             d eps       ncg     rms          rms(c)
DAV:   1    -0.666774252754E+03   -0.11679E-03   -0.68517E-03 27088   0.957E-02    0.465E-02
RMM:   2    -0.666774288192E+03   -0.35439E-04   -0.14264E-04 15597   0.195E-02    0.344E-02
RMM:   3    -0.666774300581E+03   -0.12389E-04   -0.27858E-05 14138   0.920E-03    0.267E-02
RMM:   4    -0.666774300438E+03    0.14342E-06   -0.10546E-05 12276   0.592E-03    0.179E-02
RMM:   5    -0.666774302678E+03   -0.22398E-05   -0.32344E-06 10613   0.345E-03    0.106E-02
RMM:   6    -0.666774305036E+03   -0.23586E-05   -0.90271E-07  7734   0.247E-03    0.896E-03
RMM:   7    -0.666774306735E+03   -0.16987E-05   -0.26037E-07  6152   0.221E-03    0.606E-03
RMM:   8    -0.666774308504E+03   -0.17686E-05   -0.49326E-08  5047   0.209E-03
  48 F= -.66677431E+03 E0= -.66635271E+03  d E =-.281346E-03  mag=    79.7909
       N       E                     dE             d eps       ncg     rms          rms(c)
DAV:   1    -0.666774400190E+03   -0.93455E-04   -0.74163E-04 26352   0.312E-02    0.158E-02
RMM:   2    -0.666774406133E+03   -0.59432E-05   -0.17000E-05 13945   0.688E-03    0.104E-02
RMM:   3    -0.666774409328E+03   -0.31949E-05   -0.25798E-06 10561   0.331E-03    0.892E-03
RMM:   4    -0.666774410348E+03   -0.10203E-05   -0.50413E-07  6712   0.227E-03    0.388E-03
RMM:   5    -0.666774414702E+03   -0.43535E-05   -0.42335E-08  4977   0.192E-03    0.374E-03
RMM:   6    -0.666774417717E+03   -0.30147E-05   -0.38930E-09  4686   0.188E-03    0.339E-03
RMM:   7    -0.666774420189E+03   -0.24727E-05   -0.11518E-08  4722   0.191E-03    0.184E-03
RMM:   8    -0.666774422547E+03   -0.23581E-05   -0.37740E-09  4649   0.192E-03
  49 F= -.66677442E+03 E0= -.66635282E+03  d E =-.114044E-03  mag=    79.7905
       N       E                     dE             d eps       ncg     rms          rms(c)
DAV:   1    -0.666774585728E+03   -0.16554E-03   -0.66466E-03 27424   0.929E-02    0.468E-02
RMM:   2    -0.666774614169E+03   -0.28442E-04   -0.14289E-04 15524   0.197E-02    0.291E-02
RMM:   3    -0.666774627583E+03   -0.13413E-04   -0.23928E-05 14004   0.894E-03    0.249E-02
RMM:   4    -0.666774627050E+03    0.53225E-06   -0.91068E-06 12126   0.560E-03    0.152E-02
RMM:   5    -0.666774630964E+03   -0.39134E-05   -0.28869E-06 10234   0.320E-03    0.101E-02
RMM:   6    -0.666774633869E+03   -0.29048E-05   -0.90648E-07  7838   0.250E-03    0.788E-03
RMM:   7    -0.666774635748E+03   -0.18789E-05   -0.12115E-07  5626   0.216E-03    0.563E-03
RMM:   8    -0.666774637381E+03   -0.16335E-05   -0.19161E-08  4979   0.207E-03
  50 F= -.66677464E+03 E0= -.66635302E+03  d E =-.328877E-03  mag=    79.7902
       N       E                     dE             d eps       ncg     rms          rms(c)
DAV:   1    -0.666774441521E+03    0.19423E-03   -0.26533E-02 27360   0.186E-01    0.936E-02
RMM:   2    -0.666774549135E+03   -0.10761E-03   -0.56028E-04 20466   0.392E-02    0.578E-02
RMM:   3    -0.666774592934E+03   -0.43799E-04   -0.98494E-05 15042   0.167E-02    0.507E-02
RMM:   4    -0.666774586844E+03    0.60904E-05   -0.38297E-05 13787   0.116E-02    0.296E-02
RMM:   5    -0.666774591418E+03   -0.45742E-05   -0.12987E-05 12787   0.576E-03    0.202E-02
RMM:   6    -0.666774594047E+03   -0.26287E-05   -0.57975E-06 11910   0.423E-03    0.180E-02
RMM:   7    -0.666774594591E+03   -0.54389E-06   -0.26509E-06 10939   0.321E-03    0.123E-02
RMM:   8    -0.666774595003E+03   -0.41211E-06   -0.42068E-07  6978   0.234E-03
  51 F= -.66677460E+03 E0= -.66635296E+03  d E =-.286499E-03  mag=    79.7899
       N       E                     dE             d eps       ncg     rms          rms(c)
DAV:   1    -0.666774656008E+03   -0.61417E-04   -0.94290E-03 27968   0.111E-01    0.558E-02
RMM:   2    -0.666774696900E+03   -0.40893E-04   -0.19946E-04 16165   0.233E-02    0.362E-02
RMM:   3    -0.666774714032E+03   -0.17132E-04   -0.35539E-05 14301   0.107E-02    0.341E-02
RMM:   4    -0.666774711628E+03    0.24037E-05   -0.12807E-05 12611   0.670E-03    0.182E-02
RMM:   5    -0.666774715484E+03   -0.38557E-05   -0.43603E-06 11249   0.358E-03    0.158E-02
RMM:   6    -0.666774717408E+03   -0.19241E-05   -0.16556E-06  9719   0.288E-03    0.995E-03
RMM:   7    -0.666774720783E+03   -0.33746E-05   -0.37234E-07  6479   0.229E-03    0.510E-03
RMM:   8    -0.666774724609E+03   -0.38259E-05   -0.33127E-08  5124   0.205E-03
  52 F= -.66677472E+03 E0= -.66635308E+03  d E =-.416105E-03  mag=    79.7896
       N       E                     dE             d eps       ncg     rms          rms(c)
DAV:   1    -0.666774788814E+03   -0.68031E-04   -0.62946E-04 26368   0.275E-02    0.153E-02
RMM:   2    -0.666774795598E+03   -0.67838E-05   -0.13478E-05 13706   0.603E-03    0.117E-02
RMM:   3    -0.666774799285E+03   -0.36866E-05   -0.24706E-06 10030   0.323E-03    0.128E-02
RMM:   4    -0.666774799880E+03   -0.59512E-06   -0.58484E-07  7144   0.230E-03    0.458E-03
RMM:   5    -0.666774803630E+03   -0.37504E-05   -0.37747E-08  4805   0.182E-03    0.563E-03
RMM:   6    -0.666774807168E+03   -0.35381E-05   -0.36125E-08  4913   0.183E-03    0.218E-03
RMM:   7    -0.666774810194E+03   -0.30254E-05   -0.31420E-09  4690   0.183E-03    0.137E-03
RMM:   8    -0.666774812318E+03   -0.21248E-05   -0.36323E-09  4510   0.184E-03
  53 F= -.66677481E+03 E0= -.66635319E+03  d E =-.877096E-04  mag=    79.7894
       N       E                     dE             d eps       ncg     rms          rms(c)
DAV:   1    -0.666774927069E+03   -0.11688E-03   -0.56901E-03 27120   0.822E-02    0.456E-02
RMM:   2    -0.666774954611E+03   -0.27542E-04   -0.11600E-04 15274   0.169E-02    0.286E-02
RMM:   3    -0.666774966280E+03   -0.11669E-04   -0.19248E-05 13819   0.782E-03    0.256E-02
RMM:   4    -0.666774965037E+03    0.12428E-05   -0.78022E-06 11806   0.520E-03    0.154E-02
RMM:   5    -0.666774968075E+03   -0.30380E-05   -0.23076E-06  9694   0.307E-03    0.898E-03
RMM:   6    -0.666774970361E+03   -0.22864E-05   -0.71848E-07  7345   0.242E-03    0.590E-03
RMM:   7    -0.666774971659E+03   -0.12983E-05   -0.18037E-07  5790   0.217E-03    0.348E-03
RMM:   8    -0.666774972473E+03   -0.81351E-06   -0.14112E-09  4764   0.202E-03
  54 F= -.66677497E+03 E0= -.66635335E+03  d E =-.247864E-03  mag=    79.7891
       N       E                     dE             d eps       ncg     rms          rms(c)
DAV:   1    -0.666774904505E+03    0.67154E-04   -0.22690E-02 26416   0.164E-01    0.913E-02
RMM:   2    -0.666775005060E+03   -0.10055E-03   -0.45770E-04 19083   0.338E-02    0.577E-02
RMM:   3    -0.666775043868E+03   -0.38808E-04   -0.79128E-05 14895   0.152E-02    0.537E-02
RMM:   4    -0.666775034645E+03    0.92224E-05   -0.33677E-05 13716   0.107E-02    0.303E-02
RMM:   5    -0.666775037314E+03   -0.26692E-05   -0.10695E-05 12533   0.550E-03    0.210E-02
RMM:   6    -0.666775037638E+03   -0.32363E-06   -0.50683E-06 11860   0.409E-03    0.172E-02
RMM:   7    -0.666775036585E+03    0.10533E-05   -0.24897E-06 10773   0.314E-03    0.104E-02
RMM:   8    -0.666775035638E+03    0.94622E-06   -0.27975E-07  6314   0.225E-03
  55 F= -.66677504E+03 E0= -.66635341E+03  d E =-.311030E-03  mag=    79.7888
       N       E                     dE             d eps       ncg     rms          rms(c)
DAV:   1    -0.666775039033E+03   -0.24489E-05   -0.22213E-03 27424   0.515E-02    0.287E-02
RMM:   2    -0.666775047478E+03   -0.84448E-05   -0.46161E-05 14484   0.109E-02    0.212E-02
RMM:   3    -0.666775052046E+03   -0.45677E-05   -0.94269E-06 12791   0.564E-03    0.234E-02
RMM:   4    -0.666775049989E+03    0.20573E-05   -0.33969E-06 10843   0.374E-03    0.988E-03
RMM:   5    -0.666775051380E+03   -0.13909E-05   -0.30112E-07  5887   0.207E-03    0.914E-03
RMM:   6    -0.666775052174E+03   -0.79395E-06   -0.17442E-07  5711   0.204E-03    0.517E-03
RMM:   7    -0.666775054045E+03   -0.18720E-05   -0.37219E-08  5038   0.195E-03    0.251E-03
RMM:   8    -0.666775056311E+03   -0.22659E-05   -0.40263E-08  4897   0.199E-03
  56 F= -.66677506E+03 E0= -.66635342E+03  d E =-.331703E-03  mag=    79.7886
       N       E                     dE             d eps       ncg     rms          rms(c)
DAV:   1    -0.666775126326E+03   -0.72280E-04   -0.57493E-04 25344   0.309E-02    0.104E-02
RMM:   2    -0.666775131003E+03   -0.46766E-05   -0.16389E-05 14088   0.676E-03    0.812E-03
RMM:   3    -0.666775133715E+03   -0.27120E-05   -0.19513E-06 10135   0.303E-03    0.691E-03
RMM:   4    -0.666775134998E+03   -0.12838E-05   -0.22091E-07  5600   0.209E-03    0.393E-03
RMM:   5    -0.666775137769E+03   -0.27702E-05   -0.35949E-08  4747   0.186E-03    0.328E-03
RMM:   6    -0.666775140313E+03   -0.25439E-05   -0.21211E-09  4524   0.185E-03    0.271E-03
RMM:   7    -0.666775142128E+03   -0.18156E-05   -0.31850E-09  4530   0.188E-03    0.184E-03
RMM:   8    -0.666775143685E+03   -0.15572E-05   -0.26257E-09  4475   0.189E-03
  57 F= -.66677514E+03 E0= -.66635352E+03  d E =-.873739E-04  mag=    79.7883
       N       E                     dE             d eps       ncg     rms          rms(c)
DAV:   1    -0.666775188745E+03   -0.46616E-04   -0.16860E-03 26352   0.530E-02    0.174E-02
RMM:   2    -0.666775197024E+03   -0.82790E-05   -0.47140E-05 14475   0.113E-02    0.131E-02
RMM:   3    -0.666775201240E+03   -0.42161E-05   -0.66979E-06 12994   0.494E-03    0.110E-02
RMM:   4    -0.666775202109E+03   -0.86986E-06   -0.15517E-06  9631   0.283E-03    0.678E-03
RMM:   5    -0.666775204557E+03   -0.24480E-05   -0.27382E-07  6055   0.217E-03    0.475E-03
RMM:   6    -0.666775206930E+03   -0.23725E-05   -0.39878E-08  4958   0.196E-03    0.311E-03
RMM:   7    -0.666775208758E+03   -0.18277E-05   -0.57675E-09  4666   0.200E-03    0.286E-03
RMM:   8    -0.666775209870E+03   -0.11120E-05   -0.27398E-09  4514   0.201E-03
  58 F= -.66677521E+03 E0= -.66635360E+03  d E =-.153558E-03  mag=    79.7881
       N       E                     dE             d eps       ncg     rms          rms(c)
DAV:   1    -0.666775263267E+03   -0.54509E-04   -0.62586E-04 26048   0.325E-02    0.128E-02
RMM:   2    -0.666775268089E+03   -0.48215E-05   -0.17693E-05 14345   0.713E-03    0.102E-02
RMM:   3    -0.666775270250E+03   -0.21616E-05   -0.27313E-06 11793   0.343E-03    0.983E-03
RMM:   4    -0.666775270685E+03   -0.43446E-06   -0.22198E-07  5969   0.214E-03    0.438E-03
RMM:   5    -0.666775271997E+03   -0.13122E-05   -0.38205E-09  4485   0.192E-03    0.418E-03
RMM:   6    -0.666775273906E+03   -0.19092E-05   -0.12946E-08  4666   0.186E-03    0.267E-03
RMM:   7    -0.666775275950E+03   -0.20443E-05   -0.35907E-09  4589   0.192E-03    0.146E-03
RMM:   8    -0.666775277360E+03   -0.14100E-05   -0.12389E-09  4399   0.194E-03
  59 F= -.66677528E+03 E0= -.66635368E+03  d E =-.674906E-04  mag=    79.7879
