       N       E                     dE             d eps       ncg     rms          rms(c)
DAV:   1     0.901416037473E+04    0.90142E+04   -0.34263E+05 24896   0.112E+03
DAV:   2     0.779022141309E+03   -0.82351E+04   -0.74221E+04 31008   0.304E+02
DAV:   3    -0.911660516052E+03   -0.16907E+04   -0.16683E+04 29632   0.149E+02
DAV:   4    -0.996154280565E+03   -0.84494E+02   -0.83916E+02 33248   0.410E+01
DAV:   5    -0.999513070157E+03   -0.33588E+01   -0.33495E+01 39888   0.649E+00    0.176E+02
RMM:   6    -0.944939358987E+03    0.54574E+02   -0.27769E+03 27032   0.917E+01    0.355E+02
RMM:   7    -0.730816479415E+03    0.21412E+03   -0.33197E+02 24338   0.305E+01    0.211E+02
RMM:   8    -0.907274995094E+03   -0.17646E+03   -0.31137E+02 24396   0.278E+01    0.215E+02
RMM:   9    -0.662302914202E+03    0.24497E+03   -0.16307E+02 24337   0.206E+01    0.146E+02
RMM:  10    -0.556474059882E+03    0.10583E+03   -0.78631E+01 24353   0.151E+01    0.839E+01
RMM:  11    -0.533015699560E+03    0.23458E+02   -0.30075E+01 24383   0.849E+00    0.814E+01
RMM:  12    -0.528749071746E+03    0.42666E+01   -0.15409E+01 24597   0.641E+00    0.747E+01
RMM:  13    -0.522505245061E+03    0.62438E+01   -0.16079E+01 24501   0.642E+00    0.641E+01
RMM:  14    -0.515323825649E+03    0.71814E+01   -0.12991E+01 24777   0.591E+00    0.518E+01
RMM:  15    -0.499210239421E+03    0.16114E+02   -0.97239E+00 24394   0.489E+00    0.440E+01
RMM:  16    -0.490376474473E+03    0.88338E+01   -0.46142E+00 24541   0.345E+00    0.395E+01
RMM:  17    -0.481154430290E+03    0.92220E+01   -0.28942E+00 25062   0.261E+00    0.367E+01
RMM:  18    -0.471764541549E+03    0.93899E+01   -0.25472E+00 25082   0.244E+00    0.347E+01
RMM:  19    -0.464341781470E+03    0.74228E+01   -0.19162E+00 25140   0.219E+00    0.320E+01
RMM:  20    -0.457980758413E+03    0.63610E+01   -0.18943E+00 25590   0.205E+00    0.309E+01
RMM:  21    -0.455510815228E+03    0.24699E+01   -0.10233E+00 25330   0.164E+00    0.297E+01
RMM:  22    -0.452764417512E+03    0.27464E+01   -0.13067E+00 26404   0.172E+00    0.286E+01
RMM:  23    -0.455266004603E+03   -0.25016E+01   -0.12798E+00 26967   0.172E+00    0.284E+01
RMM:  24    -0.461380376267E+03   -0.61144E+01   -0.15214E+00 27662   0.181E+00    0.270E+01
RMM:  25    -0.469249567096E+03   -0.78692E+01   -0.14869E+00 27487   0.184E+00    0.265E+01
RMM:  26    -0.480018906131E+03   -0.10769E+02   -0.19833E+00 28877   0.207E+00    0.259E+01
RMM:  27    -0.496810169700E+03   -0.16791E+02   -0.33601E+00 29434   0.244E+00    0.251E+01
RMM:  28    -0.513843397580E+03   -0.17033E+02   -0.41006E+00 31372   0.265E+00    0.245E+01
RMM:  29    -0.533572915786E+03   -0.19730E+02   -0.60336E+00 32675   0.307E+00    0.238E+01
RMM:  30    -0.550979683311E+03   -0.17407E+02   -0.59963E+00 32913   0.299E+00    0.230E+01
RMM:  31    -0.572447394690E+03   -0.21468E+02   -0.77568E+00 33569   0.336E+00    0.225E+01
RMM:  32    -0.594936590741E+03   -0.22489E+02   -0.10858E+01 36265   0.407E+00    0.215E+01
RMM:  33    -0.609858370337E+03   -0.14922E+02   -0.95419E+00 35176   0.366E+00    0.205E+01
RMM:  34    -0.620128795085E+03   -0.10270E+02   -0.63430E+00 33572   0.294E+00    0.194E+01
RMM:  35    -0.623305928402E+03   -0.31771E+01   -0.16630E+00 31282   0.177E+00    0.172E+01
RMM:  36    -0.627446326718E+03   -0.41404E+01   -0.91038E-01 29151   0.135E+00    0.161E+01
RMM:  37    -0.629702345004E+03   -0.22560E+01   -0.54818E-01 27740   0.106E+00    0.150E+01
RMM:  38    -0.633291712272E+03   -0.35894E+01   -0.62585E-01 29418   0.109E+00    0.144E+01
RMM:  39    -0.637887586607E+03   -0.45959E+01   -0.86930E-01 31005   0.123E+00    0.137E+01
RMM:  40    -0.641871168048E+03   -0.39836E+01   -0.11074E+00 31815   0.129E+00    0.137E+01
RMM:  41    -0.644555559692E+03   -0.26844E+01   -0.12503E+00 31957   0.130E+00    0.140E+01
RMM:  42    -0.646338620795E+03   -0.17831E+01   -0.12085E+00 31592   0.122E+00    0.146E+01
RMM:  43    -0.648508842453E+03   -0.21702E+01   -0.10033E+00 31268   0.112E+00    0.152E+01
RMM:  44    -0.650927897867E+03   -0.24191E+01   -0.38515E-01 28488   0.768E-01    0.145E+01
RMM:  45    -0.653732451811E+03   -0.28046E+01   -0.39025E-01 29742   0.802E-01    0.145E+01
RMM:  46    -0.656441210550E+03   -0.27088E+01   -0.10376E+00 32002   0.118E+00    0.147E+01
RMM:  47    -0.658541877815E+03   -0.21007E+01   -0.59947E-01 30628   0.931E-01    0.142E+01
RMM:  48    -0.659778052828E+03   -0.12362E+01   -0.34695E-01 28528   0.742E-01    0.126E+01
RMM:  49    -0.661159010215E+03   -0.13810E+01   -0.33028E-01 29326   0.705E-01    0.110E+01
RMM:  50    -0.663072081914E+03   -0.19131E+01   -0.33678E-01 29740   0.684E-01    0.957E+00
RMM:  51    -0.663714199964E+03   -0.64212E+00   -0.81950E-01 35330   0.119E+00    0.702E+00
RMM:  52    -0.665168371063E+03   -0.14542E+01   -0.34800E-01 31167   0.723E-01    0.593E+00
RMM:  53    -0.666954729995E+03   -0.17864E+01   -0.38012E-01 30299   0.612E-01    0.482E+00
RMM:  54    -0.668957281465E+03   -0.20026E+01   -0.14266E-01 28265   0.449E-01    0.398E+00
RMM:  55    -0.669340498357E+03   -0.38322E+00   -0.47859E-02 25328   0.305E-01    0.358E+00
RMM:  56    -0.669536563300E+03   -0.19606E+00   -0.67568E-02 27329   0.350E-01    0.351E+00
RMM:  57    -0.669496604887E+03    0.39958E-01   -0.96300E-02 27970   0.346E-01    0.299E+00
RMM:  58    -0.669379147629E+03    0.11746E+00   -0.75633E-02 28378   0.325E-01    0.263E+00
RMM:  59    -0.669250039655E+03    0.12911E+00   -0.34577E-02 26588   0.274E-01    0.253E+00
RMM:  60    -0.669346659283E+03   -0.96620E-01   -0.32502E-02 26986   0.241E-01    0.224E+00
RMM:  61    -0.669535894318E+03   -0.18924E+00   -0.33489E-02 26788   0.280E-01    0.226E+00
RMM:  62    -0.669554022132E+03   -0.18128E-01   -0.23475E-02 26899   0.221E-01    0.164E+00
RMM:  63    -0.669658599661E+03   -0.10458E+00   -0.10021E-02 24969   0.137E-01    0.147E+00
RMM:  64    -0.669831769460E+03   -0.17317E+00   -0.85677E-03 25385   0.126E-01    0.132E+00
RMM:  65    -0.669849795133E+03   -0.18026E-01   -0.78256E-03 25908   0.115E-01    0.123E+00
RMM:  66    -0.669980561184E+03   -0.13077E+00   -0.50328E-03 24881   0.979E-02    0.119E+00
RMM:  67    -0.670030533554E+03   -0.49972E-01   -0.42134E-03 25320   0.838E-02    0.111E+00
RMM:  68    -0.670123137729E+03   -0.92604E-01   -0.30905E-03 24857   0.622E-02    0.107E+00
RMM:  69    -0.670235202163E+03   -0.11206E+00   -0.39687E-03 26049   0.681E-02    0.105E+00
RMM:  70    -0.670198394493E+03    0.36808E-01   -0.50851E-03 26555   0.711E-02    0.101E+00
RMM:  71    -0.670105352073E+03    0.93042E-01   -0.40040E-03 26661   0.649E-02    0.975E-01
RMM:  72    -0.670003484733E+03    0.10187E+00   -0.50043E-03 27646   0.691E-02    0.963E-01
RMM:  73    -0.670085183466E+03   -0.81699E-01   -0.40527E-03 27771   0.672E-02    0.894E-01
RMM:  74    -0.670109862497E+03   -0.24679E-01   -0.36697E-03 28085   0.671E-02    0.825E-01
RMM:  75    -0.670126205123E+03   -0.16343E-01   -0.19043E-03 25542   0.602E-02    0.763E-01
RMM:  76    -0.670055560592E+03    0.70645E-01   -0.18983E-03 25706   0.627E-02    0.703E-01
RMM:  77    -0.670104450521E+03   -0.48890E-01   -0.33787E-03 28122   0.758E-02    0.610E-01
RMM:  78    -0.670101031897E+03    0.34186E-02   -0.43309E-03 28904   0.737E-02    0.467E-01
RMM:  79    -0.670187520460E+03   -0.86489E-01   -0.33162E-03 27285   0.622E-02    0.390E-01
RMM:  80    -0.670274408331E+03   -0.86888E-01   -0.31639E-03 25615   0.578E-02
   1 F= -.67027441E+03 E0= -.66985952E+03  d E =-.670274E+03  mag=    80.3651
       N       E                     dE             d eps       ncg     rms          rms(c)
DAV:   1    -0.669063697716E+03    0.11238E+01   -0.28477E+02 27984   0.156E+01    0.667E+00
RMM:   2    -0.670087901120E+03   -0.10242E+01   -0.11036E+01 24321   0.296E+00    0.526E+00
RMM:   3    -0.670097463105E+03   -0.95620E-02   -0.15650E+00 24843   0.126E+00    0.443E+00
RMM:   4    -0.670183799773E+03   -0.86337E-01   -0.26468E-01 24420   0.774E-01    0.380E+00
RMM:   5    -0.670240605721E+03   -0.56806E-01   -0.11125E-01 24153   0.479E-01    0.192E+00
RMM:   6    -0.670350833836E+03   -0.11023E+00   -0.63156E-02 24138   0.278E-01    0.188E+00
RMM:   7    -0.670407510247E+03   -0.56676E-01   -0.29801E-02 24006   0.268E-01    0.143E+00
RMM:   8    -0.670431714979E+03   -0.24205E-01   -0.11267E-02 24195   0.139E-01    0.815E-01
RMM:   9    -0.670452393464E+03   -0.20678E-01   -0.66128E-03 23298   0.103E-01    0.480E-01
RMM:  10    -0.670470355851E+03   -0.17962E-01   -0.24744E-03 22971   0.729E-02    0.277E-01
RMM:  11    -0.670489896922E+03   -0.19541E-01   -0.98908E-04 24392   0.401E-02    0.168E-01
RMM:  12    -0.670507210070E+03   -0.17313E-01   -0.46411E-04 21568   0.248E-02    0.160E-01
RMM:  13    -0.670523490082E+03   -0.16280E-01   -0.21207E-04 17866   0.182E-02    0.124E-01
RMM:  14    -0.670541316511E+03   -0.17826E-01   -0.16491E-04 16555   0.157E-02    0.124E-01
RMM:  15    -0.670555076775E+03   -0.13760E-01   -0.12701E-04 15631   0.144E-02    0.108E-01
RMM:  16    -0.670569843578E+03   -0.14767E-01   -0.19454E-04 16657   0.136E-02    0.104E-01
RMM:  17    -0.670581716073E+03   -0.11872E-01   -0.19013E-04 16464   0.130E-02    0.100E-01
RMM:  18    -0.670597388505E+03   -0.15672E-01   -0.14962E-04 15640   0.117E-02    0.907E-02
RMM:  19    -0.670629193296E+03   -0.31805E-01   -0.25654E-04 16973   0.127E-02    0.861E-02
RMM:  20    -0.670654246754E+03   -0.25053E-01   -0.14442E-04 15756   0.107E-02    0.824E-02
RMM:  21    -0.670672079734E+03   -0.17833E-01   -0.62893E-05 13928   0.885E-03    0.782E-02
RMM:  22    -0.670690493852E+03   -0.18414E-01   -0.48982E-05 14579   0.822E-03    0.750E-02
RMM:  23    -0.670707944284E+03   -0.17450E-01   -0.37779E-05 13831   0.749E-03    0.720E-02
RMM:  24    -0.670725484775E+03   -0.17540E-01   -0.28249E-05 14176   0.753E-03    0.682E-02
RMM:  25    -0.670753626076E+03   -0.28141E-01   -0.31233E-05 14043   0.790E-03    0.643E-02
RMM:  26    -0.670779517779E+03   -0.25892E-01   -0.26811E-05 13921   0.773E-03    0.625E-02
RMM:  27    -0.670800810682E+03   -0.21293E-01   -0.22501E-05 13170   0.655E-03    0.535E-02
RMM:  28    -0.670814003794E+03   -0.13193E-01   -0.20445E-05 12470   0.525E-03    0.513E-02
RMM:  29    -0.670831013888E+03   -0.17010E-01   -0.37901E-05 13286   0.570E-03    0.480E-02
RMM:  30    -0.670848058467E+03   -0.17045E-01   -0.29038E-05 13489   0.606E-03    0.446E-02
RMM:  31    -0.670860016751E+03   -0.11958E-01   -0.20847E-05 13022   0.552E-03    0.407E-02
RMM:  32    -0.670870772548E+03   -0.10756E-01   -0.14840E-05 12633   0.488E-03    0.368E-02
RMM:  33    -0.670884865591E+03   -0.14093E-01   -0.14459E-05 13016   0.491E-03    0.348E-02
RMM:  34    -0.670900874067E+03   -0.16008E-01   -0.15150E-05 12842   0.482E-03    0.309E-02
RMM:  35    -0.670912218467E+03   -0.11344E-01   -0.10785E-05 12188   0.441E-03    0.281E-02
RMM:  36    -0.670921162932E+03   -0.89445E-02   -0.93544E-06 11946   0.417E-03    0.260E-02
RMM:  37    -0.670929826234E+03   -0.86633E-02   -0.12566E-05 11956   0.417E-03    0.236E-02
RMM:  38    -0.670936295145E+03   -0.64689E-02   -0.10713E-05 11872   0.406E-03    0.222E-02
RMM:  39    -0.670940214572E+03   -0.39194E-02   -0.73457E-06 11658   0.369E-03    0.190E-02
RMM:  40    -0.670943378684E+03   -0.31641E-02   -0.59927E-06 11124   0.342E-03    0.170E-02
RMM:  41    -0.670946459533E+03   -0.30808E-02   -0.51540E-06 10463   0.314E-03    0.148E-02
RMM:  42    -0.670949332499E+03   -0.28730E-02   -0.42674E-06 10183   0.299E-03    0.140E-02
RMM:  43    -0.670952563930E+03   -0.32314E-02   -0.50083E-06 10773   0.312E-03    0.135E-02
RMM:  44    -0.670955058125E+03   -0.24942E-02   -0.30350E-06 10209   0.294E-03    0.103E-02
RMM:  45    -0.670956898483E+03   -0.18404E-02   -0.15317E-06  8614   0.253E-03    0.850E-03
RMM:  46    -0.670958313083E+03   -0.14146E-02   -0.10204E-06  7684   0.235E-03    0.736E-03
RMM:  47    -0.670959449491E+03   -0.11364E-02   -0.20681E-06  8004   0.239E-03    0.622E-03
RMM:  48    -0.670960045032E+03   -0.59554E-03   -0.24801E-06  8296   0.241E-03    0.515E-03
RMM:  49    -0.670960272491E+03   -0.22746E-03   -0.17882E-06  7715   0.235E-03    0.432E-03
RMM:  50    -0.670960307494E+03   -0.35004E-04   -0.21777E-06  8066   0.238E-03
   2 F= -.67096031E+03 E0= -.67054321E+03  d E =-.685899E+00  mag=    79.9999
       N       E                     dE             d eps       ncg     rms          rms(c)
DAV:   1    -0.670413840159E+03    0.54643E+00   -0.97031E+01 27424   0.914E+00    0.379E+00
RMM:   2    -0.670651077628E+03   -0.23724E+00   -0.28314E+00 24336   0.160E+00    0.271E+00
RMM:   3    -0.670660627205E+03   -0.95496E-02   -0.37638E-01 24784   0.658E-01    0.186E+00
RMM:   4    -0.670680193969E+03   -0.19567E-01   -0.70565E-02 24171   0.378E-01    0.186E+00
RMM:   5    -0.670675553829E+03    0.46401E-02   -0.32148E-02 23771   0.267E-01    0.114E+00
RMM:   6    -0.670677216052E+03   -0.16622E-02   -0.16850E-02 23721   0.154E-01    0.965E-01
RMM:   7    -0.670676644244E+03    0.57181E-03   -0.71606E-03 23060   0.134E-01    0.669E-01
RMM:   8    -0.670676617301E+03    0.26943E-04   -0.31532E-03 22966   0.743E-02    0.389E-01
RMM:   9    -0.670677063567E+03   -0.44627E-03   -0.19222E-03 22024   0.579E-02    0.270E-01
RMM:  10    -0.670677040847E+03    0.22721E-04   -0.59967E-04 20203   0.377E-02
   3 F= -.67067704E+03 E0= -.67025736E+03  d E =-.402633E+00  mag=    79.9983
       N       E                     dE             d eps       ncg     rms          rms(c)
DAV:   1    -0.670890731316E+03   -0.21367E+00   -0.48352E+01 26544   0.645E+00    0.256E+00
RMM:   2    -0.670985263926E+03   -0.94533E-01   -0.12017E+00 24320   0.107E+00    0.147E+00
RMM:   3    -0.671002661395E+03   -0.17397E-01   -0.15943E-01 24340   0.426E-01    0.918E-01
RMM:   4    -0.671010789427E+03   -0.81280E-02   -0.26550E-02 23920   0.217E-01    0.117E+00
RMM:   5    -0.671006326149E+03    0.44633E-02   -0.97069E-03 23474   0.155E-01    0.748E-01
RMM:   6    -0.671006021993E+03    0.30416E-03   -0.49999E-03 22681   0.952E-02    0.471E-01
RMM:   7    -0.671005849218E+03    0.17277E-03   -0.23554E-03 21930   0.785E-02    0.337E-01
RMM:   8    -0.671005764272E+03    0.84946E-04   -0.94940E-04 20786   0.478E-02
   4 F= -.67100576E+03 E0= -.67058775E+03  d E =-.731356E+00  mag=    79.9971
       N       E                     dE             d eps       ncg     rms          rms(c)
DAV:   1    -0.670927521196E+03    0.78328E-01   -0.29996E+01 26144   0.578E+00    0.205E+00
RMM:   2    -0.670992362023E+03   -0.64841E-01   -0.75195E-01 24320   0.104E+00    0.137E+00
RMM:   3    -0.671005403606E+03   -0.13042E-01   -0.10428E-01 24562   0.436E-01    0.131E+00
RMM:   4    -0.671005657008E+03   -0.25340E-03   -0.22530E-02 25050   0.246E-01    0.113E+00
RMM:   5    -0.671001514606E+03    0.41424E-02   -0.73687E-03 24882   0.130E-01    0.526E-01
RMM:   6    -0.671001122161E+03    0.39244E-03   -0.38167E-03 23268   0.907E-02    0.483E-01
RMM:   7    -0.671000470392E+03    0.65177E-03   -0.23905E-03 22380   0.754E-02    0.299E-01
RMM:   8    -0.671000360009E+03    0.11038E-03   -0.10246E-03 21733   0.456E-02    0.149E-01
RMM:   9    -0.671000490744E+03   -0.13073E-03   -0.51053E-04 19605   0.307E-02    0.131E-01
RMM:  10    -0.671000501293E+03   -0.10549E-04   -0.18835E-04 16660   0.209E-02
   5 F= -.67100050E+03 E0= -.67058059E+03  d E =0.526298E-02  mag=    79.9986
       N       E                     dE             d eps       ncg     rms          rms(c)
DAV:   1    -0.671062481817E+03   -0.61991E-01   -0.93652E+00 26720   0.320E+00    0.115E+00
RMM:   2    -0.671080934662E+03   -0.18453E-01   -0.22273E-01 24320   0.576E-01    0.780E-01
RMM:   3    -0.671085724505E+03   -0.47898E-02   -0.33022E-02 24485   0.252E-01    0.739E-01
RMM:   4    -0.671085620324E+03    0.10418E-03   -0.89765E-03 23994   0.154E-01    0.577E-01
RMM:   5    -0.671085577698E+03    0.42626E-04   -0.27301E-03 22708   0.830E-02    0.280E-01
RMM:   6    -0.671085892933E+03   -0.31524E-03   -0.11377E-03 22214   0.497E-02    0.289E-01
RMM:   7    -0.671085942620E+03   -0.49687E-04   -0.68901E-04 21004   0.383E-02    0.188E-01
RMM:   8    -0.671085925108E+03    0.17513E-04   -0.27244E-04 17982   0.251E-02
   6 F= -.67108593E+03 E0= -.67066717E+03  d E =-.801608E-01  mag=    79.9988
       N       E                     dE             d eps       ncg     rms          rms(c)
DAV:   1    -0.671180812241E+03   -0.94870E-01   -0.37498E+00 27248   0.243E+00    0.640E-01
RMM:   2    -0.671191006604E+03   -0.10194E-01   -0.95961E-02 24320   0.488E-01    0.578E-01
RMM:   3    -0.671193653162E+03   -0.26466E-02   -0.17130E-02 24497   0.210E-01    0.657E-01
RMM:   4    -0.671192392013E+03    0.12611E-02   -0.43917E-03 24463   0.114E-01    0.212E-01
RMM:   5    -0.671192507053E+03   -0.11504E-03   -0.15594E-03 23946   0.519E-02    0.183E-01
RMM:   6    -0.671192398508E+03    0.10855E-03   -0.61164E-04 20799   0.336E-02    0.127E-01
RMM:   7    -0.671192411104E+03   -0.12596E-04   -0.30749E-04 18748   0.262E-02    0.137E-01
RMM:   8    -0.671192349346E+03    0.61758E-04   -0.13705E-04 15715   0.183E-02
   7 F= -.67119235E+03 E0= -.67077311E+03  d E =-.106424E+00  mag=    79.9997
       N       E                     dE             d eps       ncg     rms          rms(c)
DAV:   1    -0.671194233176E+03   -0.18221E-02   -0.69002E-02 27264   0.330E-01    0.903E-02
RMM:   2    -0.671194441055E+03   -0.20788E-03   -0.18558E-03 23653   0.682E-02    0.100E-01
RMM:   3    -0.671194479676E+03   -0.38621E-04   -0.36290E-04 18551   0.304E-02    0.917E-02
RMM:   4    -0.671194459164E+03    0.20512E-04   -0.92770E-05 15046   0.176E-02    0.367E-02
RMM:   5    -0.671194467735E+03   -0.85705E-05   -0.33460E-05 13906   0.904E-03    0.391E-02
RMM:   6    -0.671194472007E+03   -0.42724E-05   -0.17327E-05 13192   0.692E-03    0.241E-02
RMM:   7    -0.671194480274E+03   -0.82674E-05   -0.93283E-06 12556   0.495E-03    0.185E-02
RMM:   8    -0.671194487792E+03   -0.75172E-05   -0.51074E-06 12261   0.403E-03
   8 F= -.67119449E+03 E0= -.67077525E+03  d E =-.108563E+00  mag=    80.0007
       N       E                     dE             d eps       ncg     rms          rms(c)
DAV:   1    -0.671263019770E+03   -0.68539E-01   -0.28330E+00 26096   0.206E+00    0.547E-01
RMM:   2    -0.671269667958E+03   -0.66482E-02   -0.65798E-02 24320   0.393E-01    0.408E-01
RMM:   3    -0.671271236282E+03   -0.15683E-02   -0.10141E-02 24387   0.153E-01    0.251E-01
RMM:   4    -0.671271380377E+03   -0.14410E-03   -0.24101E-03 24247   0.799E-02    0.245E-01
RMM:   5    -0.671271317724E+03    0.62653E-04   -0.84213E-04 22641   0.453E-02    0.135E-01
RMM:   6    -0.671271385639E+03   -0.67915E-04   -0.44575E-04 20310   0.259E-02    0.994E-02
RMM:   7    -0.671271498858E+03   -0.11322E-03   -0.18918E-04 16863   0.208E-02    0.119E-01
RMM:   8    -0.671271465416E+03    0.33443E-04   -0.79848E-05 14886   0.145E-02
   9 F= -.67127147E+03 E0= -.67085266E+03  d E =-.769776E-01  mag=    80.0013
       N       E                     dE             d eps       ncg     rms          rms(c)
DAV:   1    -0.671274771058E+03   -0.32722E-02   -0.11290E-01 27984   0.413E-01    0.113E-01
RMM:   2    -0.671275103777E+03   -0.33272E-03   -0.26999E-03 23532   0.802E-02    0.109E-01
RMM:   3    -0.671275225774E+03   -0.12200E-03   -0.48181E-04 20124   0.342E-02    0.998E-02
RMM:   4    -0.671275219303E+03    0.64718E-05   -0.12288E-04 15251   0.193E-02    0.606E-02
RMM:   5    -0.671275230813E+03   -0.11511E-04   -0.45006E-05 14114   0.108E-02    0.429E-02
RMM:   6    -0.671275245569E+03   -0.14755E-04   -0.22462E-05 13314   0.793E-03    0.261E-02
RMM:   7    -0.671275279429E+03   -0.33860E-04   -0.17226E-05 13017   0.657E-03    0.255E-02
RMM:   8    -0.671275301313E+03   -0.21884E-04   -0.85268E-06 12127   0.505E-03
  10 F= -.67127530E+03 E0= -.67085646E+03  d E =-.808135E-01  mag=    80.0018
       N       E                     dE             d eps       ncg     rms          rms(c)
DAV:   1    -0.671313553968E+03   -0.38275E-01   -0.12015E+00 26304   0.131E+00    0.307E-01
RMM:   2    -0.671316083830E+03   -0.25299E-02   -0.26181E-02 24211   0.238E-01    0.216E-01
RMM:   3    -0.671316907942E+03   -0.82411E-03   -0.44814E-03 23370   0.994E-02    0.276E-01
RMM:   4    -0.671316647180E+03    0.26076E-03   -0.10962E-03 22181   0.531E-02    0.120E-01
RMM:   5    -0.671316649043E+03   -0.18631E-05   -0.42527E-04 19369   0.263E-02    0.927E-02
RMM:   6    -0.671316623125E+03    0.25918E-04   -0.17321E-04 16386   0.178E-02    0.695E-02
RMM:   7    -0.671316648135E+03   -0.25010E-04   -0.98014E-05 14987   0.153E-02    0.617E-02
RMM:   8    -0.671316653816E+03   -0.56811E-05   -0.38916E-05 13802   0.102E-02
  11 F= -.67131665E+03 E0= -.67089793E+03  d E =-.413525E-01  mag=    80.0022
       N       E                     dE             d eps       ncg     rms          rms(c)
DAV:   1    -0.671322118570E+03   -0.54704E-02   -0.25351E-01 27696   0.601E-01    0.143E-01
RMM:   2    -0.671322664191E+03   -0.54562E-03   -0.55916E-03 23561   0.110E-01    0.116E-01
RMM:   3    -0.671322879965E+03   -0.21577E-03   -0.10009E-03 21717   0.475E-02    0.151E-01
RMM:   4    -0.671322787230E+03    0.92735E-04   -0.23747E-04 17114   0.249E-02    0.567E-02
RMM:   5    -0.671322787476E+03   -0.24587E-06   -0.80687E-05 14390   0.128E-02    0.520E-02
RMM:   6    -0.671322784489E+03    0.29868E-05   -0.37003E-05 13545   0.938E-03    0.420E-02
RMM:   7    -0.671322793947E+03   -0.94576E-05   -0.25826E-05 13191   0.801E-03    0.315E-02
RMM:   8    -0.671322807553E+03   -0.13606E-04   -0.12907E-05 12373   0.615E-03
  12 F= -.67132281E+03 E0= -.67090420E+03  d E =-.475062E-01  mag=    80.0027
       N       E                     dE             d eps       ncg     rms          rms(c)
DAV:   1    -0.671377356297E+03   -0.54562E-01   -0.15066E+00 26272   0.143E+00    0.298E-01
RMM:   2    -0.671379893018E+03   -0.25367E-02   -0.29897E-02 24023   0.236E-01    0.264E-01
RMM:   3    -0.671380700830E+03   -0.80781E-03   -0.52625E-03 23293   0.106E-01    0.302E-01
RMM:   4    -0.671380431550E+03    0.26928E-03   -0.12279E-03 22464   0.537E-02    0.117E-01
RMM:   5    -0.671380456670E+03   -0.25120E-04   -0.40888E-04 19773   0.237E-02    0.853E-02
RMM:   6    -0.671380436842E+03    0.19827E-04   -0.17727E-04 16645   0.173E-02    0.867E-02
RMM:   7    -0.671380429009E+03    0.78334E-05   -0.11659E-04 15291   0.159E-02    0.695E-02
RMM:   8    -0.671380433317E+03   -0.43078E-05   -0.54589E-05 13643   0.106E-02
  13 F= -.67138043E+03 E0= -.67096171E+03  d E =-.576258E-01  mag=    80.0033
       N       E                     dE             d eps       ncg     rms          rms(c)
DAV:   1    -0.671387973370E+03   -0.75444E-02   -0.52904E-01 27312   0.845E-01    0.178E-01
RMM:   2    -0.671388824100E+03   -0.85073E-03   -0.10534E-02 23643   0.140E-01    0.162E-01
RMM:   3    -0.671389118935E+03   -0.29484E-03   -0.18920E-03 22382   0.637E-02    0.181E-01
RMM:   4    -0.671389012699E+03    0.10624E-03   -0.44611E-04 19523   0.320E-02    0.730E-02
RMM:   5    -0.671389033207E+03   -0.20509E-04   -0.14139E-04 15454   0.152E-02    0.656E-02
RMM:   6    -0.671389026442E+03    0.67656E-05   -0.65230E-05 13798   0.117E-02    0.564E-02
RMM:   7    -0.671389020096E+03    0.63456E-05   -0.46467E-05 13587   0.953E-03    0.414E-02
RMM:   8    -0.671389030539E+03   -0.10443E-04   -0.23993E-05 12892   0.767E-03
  14 F= -.67138903E+03 E0= -.67097025E+03  d E =-.662230E-01  mag=    80.0040
       N       E                     dE             d eps       ncg     rms          rms(c)
DAV:   1    -0.671423768987E+03   -0.34749E-01   -0.10639E+00 26768   0.122E+00    0.269E-01
RMM:   2    -0.671425916607E+03   -0.21476E-02   -0.22954E-02 24095   0.220E-01    0.184E-01
RMM:   3    -0.671426630751E+03   -0.71414E-03   -0.38173E-03 23331   0.912E-02    0.210E-01
RMM:   4    -0.671426551573E+03    0.79178E-04   -0.87755E-04 22008   0.466E-02    0.101E-01
RMM:   5    -0.671426535428E+03    0.16144E-04   -0.30157E-04 18324   0.225E-02    0.730E-02
RMM:   6    -0.671426518765E+03    0.16663E-04   -0.13054E-04 15486   0.151E-02    0.731E-02
RMM:   7    -0.671426512517E+03    0.62487E-05   -0.71644E-05 14265   0.134E-02    0.653E-02
RMM:   8    -0.671426498643E+03    0.13873E-04   -0.31579E-05 13273   0.852E-03
  15 F= -.67142650E+03 E0= -.67100756E+03  d E =-.374681E-01  mag=    80.0048
       N       E                     dE             d eps       ncg     rms          rms(c)
DAV:   1    -0.671426541079E+03   -0.28562E-04   -0.10316E-03 24992   0.409E-02    0.183E-02
RMM:   2    -0.671426553452E+03   -0.12373E-04   -0.44255E-05 14019   0.105E-02    0.369E-02
RMM:   3    -0.671426553522E+03   -0.69849E-07   -0.13440E-05 12710   0.683E-03    0.105E-02
RMM:   4    -0.671426565003E+03   -0.11481E-04   -0.36572E-06 10173   0.313E-03    0.126E-02
RMM:   5    -0.671426575078E+03   -0.10076E-04   -0.18638E-06  9014   0.281E-03    0.647E-03
RMM:   6    -0.671426592793E+03   -0.17715E-04   -0.77383E-07  6981   0.227E-03    0.542E-03
RMM:   7    -0.671426615123E+03   -0.22330E-04   -0.65083E-07  7060   0.231E-03    0.503E-03
RMM:   8    -0.671426637332E+03   -0.22209E-04   -0.44494E-07  6638   0.222E-03
  16 F= -.67142664E+03 E0= -.67100767E+03  d E =-.376068E-01  mag=    80.0056
       N       E                     dE             d eps       ncg     rms          rms(c)
DAV:   1    -0.671442513470E+03   -0.15898E-01   -0.26918E-01 26432   0.624E-01    0.140E-01
RMM:   2    -0.671443191962E+03   -0.67849E-03   -0.61453E-03 23571   0.115E-01    0.118E-01
RMM:   3    -0.671443426364E+03   -0.23440E-03   -0.10769E-03 21234   0.493E-02    0.129E-01
RMM:   4    -0.671443423357E+03    0.30068E-05   -0.25574E-04 17160   0.263E-02    0.638E-02
RMM:   5    -0.671443457366E+03   -0.34009E-04   -0.78829E-05 14219   0.132E-02    0.382E-02
RMM:   6    -0.671443486365E+03   -0.29000E-04   -0.34820E-05 13485   0.900E-03    0.390E-02
RMM:   7    -0.671443513459E+03   -0.27093E-04   -0.19860E-05 13140   0.740E-03    0.321E-02
RMM:   8    -0.671443516804E+03   -0.33458E-05   -0.85382E-06 12307   0.481E-03
  17 F= -.67144352E+03 E0= -.67102453E+03  d E =-.168795E-01  mag=    80.0064
       N       E                     dE             d eps       ncg     rms          rms(c)
DAV:   1    -0.671445336188E+03   -0.18227E-02   -0.43683E-02 27312   0.251E-01    0.559E-02
RMM:   2    -0.671445459781E+03   -0.12359E-03   -0.99756E-04 20947   0.464E-02    0.481E-02
RMM:   3    -0.671445505165E+03   -0.45384E-04   -0.17213E-04 15808   0.200E-02    0.494E-02
RMM:   4    -0.671445511343E+03   -0.61784E-05   -0.42521E-05 13530   0.118E-02    0.297E-02
RMM:   5    -0.671445517123E+03   -0.57803E-05   -0.12432E-05 12514   0.553E-03    0.200E-02
RMM:   6    -0.671445520934E+03   -0.38110E-05   -0.64363E-06 11958   0.425E-03    0.173E-02
RMM:   7    -0.671445528416E+03   -0.74818E-05   -0.35431E-06 11245   0.339E-03    0.124E-02
RMM:   8    -0.671445530050E+03   -0.16340E-05   -0.14400E-06  8834   0.268E-03
  18 F= -.67144553E+03 E0= -.67102653E+03  d E =-.188927E-01  mag=    80.0074
       N       E                     dE             d eps       ncg     rms          rms(c)
DAV:   1    -0.671453848155E+03   -0.83197E-02   -0.15787E-01 26816   0.472E-01    0.122E-01
RMM:   2    -0.671454208475E+03   -0.36032E-03   -0.37301E-03 23365   0.907E-02    0.917E-02
RMM:   3    -0.671454338885E+03   -0.13041E-03   -0.65666E-04 19510   0.364E-02    0.978E-02
RMM:   4    -0.671454331662E+03    0.72229E-05   -0.15653E-04 15807   0.213E-02    0.557E-02
RMM:   5    -0.671454360432E+03   -0.28769E-04   -0.61936E-05 13675   0.126E-02    0.423E-02
RMM:   6    -0.671454373596E+03   -0.13164E-04   -0.25911E-05 12915   0.775E-03    0.287E-02
RMM:   7    -0.671454373456E+03    0.13970E-06   -0.15695E-05 12644   0.678E-03    0.252E-02
RMM:   8    -0.671454364880E+03    0.85761E-05   -0.61252E-06 11841   0.439E-03
  19 F= -.67145436E+03 E0= -.67103534E+03  d E =-.883483E-02  mag=    80.0084
       N       E                     dE             d eps       ncg     rms          rms(c)
DAV:   1    -0.671457520546E+03   -0.31471E-02   -0.40256E-01 25968   0.754E-01    0.192E-01
RMM:   2    -0.671458469779E+03   -0.94923E-03   -0.95673E-03 24018   0.144E-01    0.142E-01
RMM:   3    -0.671458766334E+03   -0.29655E-03   -0.16571E-03 22015   0.576E-02    0.148E-01
RMM:   4    -0.671458736848E+03    0.29486E-04   -0.38545E-04 18696   0.323E-02    0.883E-02
RMM:   5    -0.671458772101E+03   -0.35253E-04   -0.15263E-04 15735   0.189E-02    0.691E-02
RMM:   6    -0.671458784630E+03   -0.12529E-04   -0.65487E-05 14249   0.122E-02    0.516E-02
RMM:   7    -0.671458782254E+03    0.23763E-05   -0.37773E-05 13560   0.101E-02    0.415E-02
RMM:   8    -0.671458758465E+03    0.23788E-04   -0.14683E-05 12892   0.645E-03
  20 F= -.67145876E+03 E0= -.67103972E+03  d E =-.132284E-01  mag=    80.0098
       N       E                     dE             d eps       ncg     rms          rms(c)
DAV:   1    -0.671461648555E+03   -0.28663E-02   -0.49275E-02 27216   0.259E-01    0.646E-02
RMM:   2    -0.671461759126E+03   -0.11057E-03   -0.10620E-03 20712   0.478E-02    0.572E-02
RMM:   3    -0.671461791150E+03   -0.32024E-04   -0.19404E-04 16021   0.204E-02    0.565E-02
RMM:   4    -0.671461778970E+03    0.12179E-04   -0.47792E-05 13810   0.124E-02    0.358E-02
RMM:   5    -0.671461765215E+03    0.13756E-04   -0.14372E-05 12659   0.596E-03    0.249E-02
RMM:   6    -0.671461749913E+03    0.15302E-04   -0.79983E-06 12182   0.477E-03    0.168E-02
RMM:   7    -0.671461730401E+03    0.19512E-04   -0.52032E-06 11827   0.395E-03    0.125E-02
RMM:   8    -0.671461717822E+03    0.12578E-04   -0.17963E-06  9091   0.284E-03
  21 F= -.67146172E+03 E0= -.67104274E+03  d E =-.295936E-02  mag=    80.0111
       N       E                     dE             d eps       ncg     rms          rms(c)
DAV:   1    -0.671462298294E+03   -0.56789E-03   -0.72644E-02 26560   0.315E-01    0.773E-02
RMM:   2    -0.671462464392E+03   -0.16610E-03   -0.15299E-03 21601   0.578E-02    0.517E-02
RMM:   3    -0.671462512489E+03   -0.48097E-04   -0.26593E-04 16657   0.224E-02    0.420E-02
RMM:   4    -0.671462510400E+03    0.20894E-05   -0.56301E-05 14276   0.129E-02    0.436E-02
RMM:   5    -0.671462496973E+03    0.13427E-04   -0.20805E-05 13003   0.777E-03    0.254E-02
RMM:   6    -0.671462487290E+03    0.96830E-05   -0.93996E-06 12152   0.487E-03    0.197E-02
RMM:   7    -0.671462472494E+03    0.14796E-04   -0.68289E-06 12181   0.459E-03    0.150E-02
RMM:   8    -0.671462460794E+03    0.11701E-04   -0.23782E-06  9729   0.303E-03
  22 F= -.67146246E+03 E0= -.67104347E+03  d E =-.370233E-02  mag=    80.0126
       N       E                     dE             d eps       ncg     rms          rms(c)
DAV:   1    -0.671467306816E+03   -0.48343E-02   -0.20277E-02 27216   0.162E-01    0.441E-02
RMM:   2    -0.671467351138E+03   -0.44322E-04   -0.48625E-04 17497   0.289E-02    0.355E-02
RMM:   3    -0.671467354896E+03   -0.37584E-05   -0.74388E-05 14398   0.129E-02    0.380E-02
RMM:   4    -0.671467341238E+03    0.13659E-04   -0.17665E-05 12719   0.735E-03    0.214E-02
RMM:   5    -0.671467318348E+03    0.22890E-04   -0.62799E-06 11373   0.407E-03    0.156E-02
RMM:   6    -0.671467301678E+03    0.16670E-04   -0.27913E-06 10158   0.314E-03    0.113E-02
RMM:   7    -0.671467293241E+03    0.84373E-05   -0.14522E-06  8703   0.267E-03    0.950E-03
RMM:   8    -0.671467288773E+03    0.44685E-05   -0.47651E-07  6805   0.233E-03
  23 F= -.67146729E+03 E0= -.67104830E+03  d E =-.482798E-02  mag=    80.0139
       N       E                     dE             d eps       ncg     rms          rms(c)
DAV:   1    -0.671472814239E+03   -0.55210E-02   -0.18221E-01 25872   0.486E-01    0.131E-01
RMM:   2    -0.671473201827E+03   -0.38759E-03   -0.43398E-03 23217   0.868E-02    0.103E-01
RMM:   3    -0.671473319983E+03   -0.11816E-03   -0.70188E-04 19502   0.372E-02    0.111E-01
RMM:   4    -0.671473274927E+03    0.45056E-04   -0.16562E-04 15782   0.213E-02    0.550E-02
RMM:   5    -0.671473230980E+03    0.43947E-04   -0.58690E-05 13598   0.116E-02    0.419E-02
RMM:   6    -0.671473207899E+03    0.23081E-04   -0.25713E-05 12810   0.755E-03    0.280E-02
RMM:   7    -0.671473211687E+03   -0.37877E-05   -0.14726E-05 12703   0.618E-03    0.309E-02
RMM:   8    -0.671473213742E+03   -0.20554E-05   -0.72320E-06 12059   0.472E-03
  24 F= -.67147321E+03 E0= -.67105423E+03  d E =-.107529E-01  mag=    80.0151
       N       E                     dE             d eps       ncg     rms          rms(c)
DAV:   1    -0.671476005979E+03   -0.27943E-02   -0.26763E-02 27312   0.196E-01    0.523E-02
RMM:   2    -0.671476033936E+03   -0.27957E-04   -0.63602E-04 19192   0.369E-02    0.457E-02
RMM:   3    -0.671476045963E+03   -0.12028E-04   -0.11301E-04 15221   0.163E-02    0.431E-02
RMM:   4    -0.671476041478E+03    0.44857E-05   -0.27819E-05 13367   0.964E-03    0.258E-02
RMM:   5    -0.671476051215E+03   -0.97370E-05   -0.91246E-06 12262   0.476E-03    0.168E-02
RMM:   6    -0.671476057278E+03   -0.60638E-05   -0.47029E-06 11603   0.385E-03    0.156E-02
RMM:   7    -0.671476065519E+03   -0.82403E-05   -0.24831E-06 10099   0.301E-03    0.917E-03
RMM:   8    -0.671476077026E+03   -0.11507E-04   -0.79126E-07  7229   0.244E-03
  25 F= -.67147608E+03 E0= -.67105707E+03  d E =-.286328E-02  mag=    80.0161
       N       E                     dE             d eps       ncg     rms          rms(c)
DAV:   1    -0.671477328900E+03   -0.12634E-02   -0.50546E-02 26800   0.269E-01    0.696E-02
RMM:   2    -0.671477409515E+03   -0.80615E-04   -0.11656E-03 21393   0.504E-02    0.521E-02
RMM:   3    -0.671477431797E+03   -0.22282E-04   -0.20159E-04 16051   0.207E-02    0.474E-02
RMM:   4    -0.671477429844E+03    0.19534E-05   -0.47716E-05 14095   0.126E-02    0.341E-02
RMM:   5    -0.671477442475E+03   -0.12631E-04   -0.16440E-05 12725   0.653E-03    0.182E-02
RMM:   6    -0.671477451862E+03   -0.93873E-05   -0.84516E-06 12077   0.481E-03    0.188E-02
RMM:   7    -0.671477463515E+03   -0.11653E-04   -0.48429E-06 11476   0.392E-03    0.118E-02
RMM:   8    -0.671477476918E+03   -0.13403E-04   -0.17912E-06  8918   0.285E-03
  26 F= -.67147748E+03 E0= -.67105849E+03  d E =-.426318E-02  mag=    80.0171
       N       E                     dE             d eps       ncg     rms          rms(c)
DAV:   1    -0.671478585131E+03   -0.11216E-02   -0.91232E-03 27088   0.117E-01    0.382E-02
RMM:   2    -0.671478618022E+03   -0.32891E-04   -0.22184E-04 15911   0.228E-02    0.269E-02
RMM:   3    -0.671478634956E+03   -0.16934E-04   -0.35528E-05 14392   0.105E-02    0.269E-02
RMM:   4    -0.671478639189E+03   -0.42324E-05   -0.93301E-06 12409   0.576E-03    0.150E-02
RMM:   5    -0.671478656360E+03   -0.17171E-04   -0.31986E-06 10709   0.339E-03    0.112E-02
RMM:   6    -0.671478670183E+03   -0.13823E-04   -0.12989E-06  8748   0.269E-03    0.817E-03
RMM:   7    -0.671478683575E+03   -0.13392E-04   -0.35500E-07  6685   0.230E-03    0.630E-03
RMM:   8    -0.671478693405E+03   -0.98306E-05   -0.27717E-08  5218   0.210E-03
  27 F= -.67147869E+03 E0= -.67105972E+03  d E =-.121649E-02  mag=    80.0181
       N       E                     dE             d eps       ncg     rms          rms(c)
DAV:   1    -0.671479258286E+03   -0.57471E-03   -0.18093E-02 27280   0.165E-01    0.541E-02
RMM:   2    -0.671479301876E+03   -0.43590E-04   -0.44026E-04 18454   0.321E-02    0.367E-02
RMM:   3    -0.671479321949E+03   -0.20072E-04   -0.71112E-05 14794   0.141E-02    0.374E-02
RMM:   4    -0.671479321770E+03    0.17881E-06   -0.19392E-05 13280   0.828E-03    0.197E-02
RMM:   5    -0.671479333790E+03   -0.12020E-04   -0.66620E-06 11922   0.448E-03    0.151E-02
RMM:   6    -0.671479342411E+03   -0.86213E-05   -0.31797E-06 10576   0.343E-03    0.116E-02
RMM:   7    -0.671479350701E+03   -0.82902E-05   -0.15443E-06  9416   0.287E-03    0.828E-03
RMM:   8    -0.671479357239E+03   -0.65374E-05   -0.18260E-07  5967   0.224E-03
  28 F= -.67147936E+03 E0= -.67106038E+03  d E =-.188032E-02  mag=    80.0190
       N       E                     dE             d eps       ncg     rms          rms(c)
DAV:   1    -0.671480307051E+03   -0.95635E-03   -0.90590E-03 27136   0.118E-01    0.486E-02
RMM:   2    -0.671480361743E+03   -0.54693E-04   -0.21412E-04 16329   0.235E-02    0.329E-02
RMM:   3    -0.671480376545E+03   -0.14802E-04   -0.32078E-05 14546   0.104E-02    0.250E-02
RMM:   4    -0.671480378254E+03   -0.17085E-05   -0.85593E-06 12866   0.564E-03    0.206E-02
RMM:   5    -0.671480378781E+03   -0.52666E-06   -0.34041E-06 11729   0.344E-03    0.133E-02
RMM:   6    -0.671480380451E+03   -0.16703E-05   -0.12818E-06  9159   0.271E-03    0.896E-03
RMM:   7    -0.671480385283E+03   -0.48322E-05   -0.60649E-07  7347   0.248E-03    0.537E-03
RMM:   8    -0.671480390508E+03   -0.52252E-05   -0.12024E-07  5610   0.227E-03
  29 F= -.67148039E+03 E0= -.67106140E+03  d E =-.103327E-02  mag=    80.0199
       N       E                     dE             d eps       ncg     rms          rms(c)
DAV:   1    -0.671481677206E+03   -0.12919E-02   -0.81519E-02 26656   0.353E-01    0.145E-01
RMM:   2    -0.671482012167E+03   -0.33496E-03   -0.18525E-03 23841   0.701E-02    0.928E-02
RMM:   3    -0.671482099092E+03   -0.86925E-04   -0.29014E-04 17625   0.276E-02    0.666E-02
RMM:   4    -0.671482087805E+03    0.11287E-04   -0.83217E-05 14757   0.175E-02    0.524E-02
RMM:   5    -0.671482065950E+03    0.21855E-04   -0.33349E-05 14347   0.986E-03    0.362E-02
RMM:   6    -0.671482047672E+03    0.18277E-04   -0.15932E-05 13811   0.667E-03    0.290E-02
RMM:   7    -0.671482036242E+03    0.11430E-04   -0.90939E-06 12917   0.521E-03    0.167E-02
RMM:   8    -0.671482032816E+03    0.34263E-05   -0.33751E-06 11915   0.362E-03
  30 F= -.67148203E+03 E0= -.67106301E+03  d E =-.267558E-02  mag=    80.0209
       N       E                     dE             d eps       ncg     rms          rms(c)
DAV:   1    -0.671483064014E+03   -0.10278E-02   -0.84807E-03 26848   0.111E-01    0.524E-02
RMM:   2    -0.671483092181E+03   -0.28166E-04   -0.19020E-04 16289   0.228E-02    0.349E-02
RMM:   3    -0.671483100968E+03   -0.87870E-05   -0.31603E-05 14535   0.105E-02    0.321E-02
RMM:   4    -0.671483097229E+03    0.37393E-05   -0.97220E-06 12766   0.603E-03    0.183E-02
RMM:   5    -0.671483096816E+03    0.41304E-06   -0.33287E-06 11469   0.348E-03    0.139E-02
RMM:   6    -0.671483096450E+03    0.36601E-06   -0.16260E-06 10159   0.289E-03    0.920E-03
RMM:   7    -0.671483097513E+03   -0.10631E-05   -0.44987E-07  7141   0.242E-03    0.509E-03
RMM:   8    -0.671483100773E+03   -0.32601E-05   -0.47877E-08  5360   0.219E-03
  31 F= -.67148310E+03 E0= -.67106404E+03  d E =-.106796E-02  mag=    80.0219
       N       E                     dE             d eps       ncg     rms          rms(c)
DAV:   1    -0.671485398917E+03   -0.23014E-02   -0.76389E-02 26640   0.333E-01    0.156E-01
RMM:   2    -0.671485720647E+03   -0.32173E-03   -0.16291E-03 23701   0.673E-02    0.936E-02
RMM:   3    -0.671485801939E+03   -0.81292E-04   -0.25046E-04 17109   0.261E-02    0.606E-02
RMM:   4    -0.671485797005E+03    0.49341E-05   -0.78513E-05 14628   0.171E-02    0.532E-02
RMM:   5    -0.671485787650E+03    0.93556E-05   -0.33185E-05 14222   0.102E-02    0.338E-02
RMM:   6    -0.671485781488E+03    0.61612E-05   -0.16005E-05 13581   0.677E-03    0.287E-02
RMM:   7    -0.671485775615E+03    0.58739E-05   -0.86453E-06 12785   0.531E-03    0.166E-02
RMM:   8    -0.671485775164E+03    0.45076E-06   -0.25374E-06 11407   0.324E-03
  32 F= -.67148578E+03 E0= -.67106668E+03  d E =-.374235E-02  mag=    80.0229
       N       E                     dE             d eps       ncg     rms          rms(c)
DAV:   1    -0.671486518540E+03   -0.74293E-03   -0.30559E-01 25280   0.666E-01    0.311E-01
RMM:   2    -0.671487840028E+03   -0.13215E-02   -0.65046E-03 24256   0.135E-01    0.188E-01
RMM:   3    -0.671488158946E+03   -0.31892E-03   -0.10120E-03 23314   0.522E-02    0.115E-01
RMM:   4    -0.671488141428E+03    0.17518E-04   -0.28543E-04 18431   0.300E-02    0.104E-01
RMM:   5    -0.671488099998E+03    0.41429E-04   -0.12769E-04 15620   0.199E-02    0.679E-02
RMM:   6    -0.671488074774E+03    0.25224E-04   -0.65944E-05 14591   0.133E-02    0.557E-02
RMM:   7    -0.671488049764E+03    0.25010E-04   -0.33944E-05 14405   0.101E-02    0.321E-02
RMM:   8    -0.671488041160E+03    0.86045E-05   -0.10821E-05 13391   0.590E-03
  33 F= -.67148804E+03 E0= -.67106889E+03  d E =-.600834E-02  mag=    80.0240
       N       E                     dE             d eps       ncg     rms          rms(c)
DAV:   1    -0.671488893018E+03   -0.84325E-03   -0.89142E-03 27872   0.111E-01    0.585E-02
RMM:   2    -0.671488935282E+03   -0.42265E-04   -0.19439E-04 16470   0.231E-02    0.387E-02
RMM:   3    -0.671488943301E+03   -0.80182E-05   -0.33541E-05 14471   0.111E-02    0.335E-02
RMM:   4    -0.671488942528E+03    0.77253E-06   -0.12755E-05 12889   0.690E-03    0.194E-02
RMM:   5    -0.671488943243E+03   -0.71526E-06   -0.38382E-06 11690   0.370E-03    0.134E-02
RMM:   6    -0.671488946622E+03   -0.33788E-05   -0.18064E-06 10491   0.292E-03    0.104E-02
RMM:   7    -0.671488951193E+03   -0.45709E-05   -0.30676E-07  6921   0.239E-03    0.586E-03
RMM:   8    -0.671488955032E+03   -0.38384E-05   -0.86137E-08  5490   0.228E-03
  34 F= -.67148896E+03 E0= -.67106979E+03  d E =-.913872E-03  mag=    80.0251
       N       E                     dE             d eps       ncg     rms          rms(c)
DAV:   1    -0.671490894970E+03   -0.19438E-02   -0.80200E-02 26096   0.332E-01    0.174E-01
RMM:   2    -0.671491273966E+03   -0.37900E-03   -0.16339E-03 23703   0.674E-02    0.103E-01
RMM:   3    -0.671491371977E+03   -0.98011E-04   -0.24410E-04 17105   0.264E-02    0.686E-02
RMM:   4    -0.671491365757E+03    0.62198E-05   -0.85264E-05 14785   0.179E-02    0.588E-02
RMM:   5    -0.671491359453E+03    0.63037E-05   -0.37897E-05 14361   0.107E-02    0.384E-02
RMM:   6    -0.671491357676E+03    0.17770E-05   -0.17627E-05 13831   0.727E-03    0.283E-02
RMM:   7    -0.671491357273E+03    0.40280E-06   -0.91274E-06 12921   0.543E-03    0.166E-02
RMM:   8    -0.671491359728E+03   -0.24550E-05   -0.27235E-06 11572   0.334E-03
  35 F= -.67149136E+03 E0= -.67107216E+03  d E =-.331857E-02  mag=    80.0262
       N       E                     dE             d eps       ncg     rms          rms(c)
DAV:   1    -0.671492831624E+03   -0.14744E-02   -0.32079E-01 25344   0.663E-01    0.347E-01
RMM:   2    -0.671494383454E+03   -0.15518E-02   -0.65327E-03 24263   0.135E-01    0.205E-01
RMM:   3    -0.671494756396E+03   -0.37294E-03   -0.97351E-04 23566   0.524E-02    0.122E-01
RMM:   4    -0.671494751023E+03    0.53733E-05   -0.29315E-04 18529   0.303E-02    0.118E-01
RMM:   5    -0.671494711041E+03    0.39982E-04   -0.13215E-04 15550   0.200E-02    0.834E-02
RMM:   6    -0.671494683863E+03    0.27178E-04   -0.66002E-05 14567   0.137E-02    0.550E-02
RMM:   7    -0.671494667654E+03    0.16209E-04   -0.35298E-05 14418   0.103E-02    0.291E-02
RMM:   8    -0.671494664541E+03    0.31139E-05   -0.11670E-05 13544   0.633E-03
  36 F= -.67149466E+03 E0= -.67107539E+03  d E =-.662338E-02  mag=    80.0274
       N       E                     dE             d eps       ncg     rms          rms(c)
DAV:   1    -0.671488255412E+03    0.64122E-02   -0.12840E+00 25120   0.132E+00    0.694E-01
RMM:   2    -0.671494592622E+03   -0.63372E-02   -0.26221E-02 24339   0.272E-01    0.420E-01
RMM:   3    -0.671496035266E+03   -0.14426E-02   -0.39735E-03 24809   0.108E-01    0.258E-01
RMM:   4    -0.671495967934E+03    0.67332E-04   -0.13052E-03 23067   0.634E-02    0.217E-01
RMM:   5    -0.671495879835E+03    0.88099E-04   -0.54876E-04 20963   0.386E-02    0.163E-01
RMM:   6    -0.671495793496E+03    0.86340E-04   -0.27180E-04 18534   0.267E-02    0.113E-01
RMM:   7    -0.671495728855E+03    0.64641E-04   -0.14720E-04 15662   0.196E-02    0.675E-02
RMM:   8    -0.671495707517E+03    0.21338E-04   -0.50298E-05 14548   0.127E-02
  37 F= -.67149571E+03 E0= -.67107631E+03  d E =-.766636E-02  mag=    80.0287
       N       E                     dE             d eps       ncg     rms          rms(c)
DAV:   1    -0.671498173716E+03   -0.24449E-02   -0.91154E-02 28112   0.356E-01    0.180E-01
RMM:   2    -0.671498604756E+03   -0.43104E-03   -0.18199E-03 23782   0.712E-02    0.111E-01
RMM:   3    -0.671498715132E+03   -0.11038E-03   -0.29675E-04 18082   0.296E-02    0.867E-02
RMM:   4    -0.671498700843E+03    0.14289E-04   -0.11094E-04 15241   0.204E-02    0.592E-02
RMM:   5    -0.671498680905E+03    0.19937E-04   -0.40756E-05 14447   0.109E-02    0.362E-02
RMM:   6    -0.671498675266E+03    0.56392E-05   -0.21211E-05 14080   0.788E-03    0.316E-02
RMM:   7    -0.671498668500E+03    0.67661E-05   -0.10876E-05 13042   0.584E-03    0.164E-02
RMM:   8    -0.671498670162E+03   -0.16615E-05   -0.35178E-06 11799   0.351E-03
  38 F= -.67149867E+03 E0= -.67107925E+03  d E =-.296264E-02  mag=    80.0301
       N       E                     dE             d eps       ncg     rms          rms(c)
DAV:   1    -0.671504977401E+03   -0.63089E-02   -0.81992E-01 25184   0.107E+00    0.537E-01
RMM:   2    -0.671508809362E+03   -0.38320E-02   -0.15905E-02 24322   0.212E-01    0.318E-01
RMM:   3    -0.671509754389E+03   -0.94503E-03   -0.24824E-03 24779   0.836E-02    0.198E-01
RMM:   4    -0.671509698712E+03    0.55677E-04   -0.75379E-04 21986   0.480E-02    0.164E-01
RMM:   5    -0.671509617132E+03    0.81581E-04   -0.30034E-04 19209   0.291E-02    0.118E-01
RMM:   6    -0.671509571135E+03    0.45997E-04   -0.16045E-04 16036   0.204E-02    0.963E-02
RMM:   7    -0.671509516801E+03    0.54334E-04   -0.88207E-05 14779   0.159E-02    0.507E-02
RMM:   8    -0.671509504105E+03    0.12696E-04   -0.28202E-05 14369   0.963E-03
  39 F= -.67150950E+03 E0= -.67108996E+03  d E =-.137966E-01  mag=    80.0315
       N       E                     dE             d eps       ncg     rms          rms(c)
DAV:   1    -0.671485661574E+03    0.23855E-01   -0.32823E+00 24864   0.214E+00    0.107E+00
RMM:   2    -0.671501268752E+03   -0.15607E-01   -0.63589E-02 24332   0.424E-01    0.652E-01
RMM:   3    -0.671504843905E+03   -0.35752E-02   -0.10090E-02 24998   0.172E-01    0.409E-01
RMM:   4    -0.671504589735E+03    0.25417E-03   -0.32597E-03 25215   0.100E-01    0.313E-01
RMM:   5    -0.671504277941E+03    0.31179E-03   -0.11951E-03 22904   0.562E-02    0.165E-01
RMM:   6    -0.671504201946E+03    0.75995E-04   -0.63432E-04 21737   0.389E-02    0.143E-01
RMM:   7    -0.671504127437E+03    0.74509E-04   -0.28828E-04 19202   0.263E-02    0.111E-01
RMM:   8    -0.671504059999E+03    0.67438E-04   -0.93405E-05 15425   0.158E-02
  40 F= -.67150406E+03 E0= -.67108428E+03  d E =-.835248E-02  mag=    80.0331
       N       E                     dE             d eps       ncg     rms          rms(c)
DAV:   1    -0.671506114353E+03   -0.19869E-02   -0.14073E+00 25312   0.140E+00    0.704E-01
RMM:   2    -0.671512691007E+03   -0.65767E-02   -0.27024E-02 24333   0.275E-01    0.418E-01
RMM:   3    -0.671514338338E+03   -0.16473E-02   -0.41323E-03 24639   0.111E-01    0.278E-01
RMM:   4    -0.671514237667E+03    0.10067E-03   -0.13185E-03 23108   0.653E-02    0.204E-01
RMM:   5    -0.671514293919E+03   -0.56252E-04   -0.51633E-04 21040   0.376E-02    0.136E-01
RMM:   6    -0.671514341159E+03   -0.47240E-04   -0.26129E-04 18521   0.251E-02    0.126E-01
RMM:   7    -0.671514351375E+03   -0.10216E-04   -0.13762E-04 15446   0.193E-02    0.674E-02
RMM:   8    -0.671514376871E+03   -0.25496E-04   -0.46546E-05 14504   0.122E-02
  41 F= -.67151438E+03 E0= -.67109469E+03  d E =-.186694E-01  mag=    80.0346
       N       E                     dE             d eps       ncg     rms          rms(c)
DAV:   1    -0.671514356039E+03   -0.46645E-05   -0.69539E-02 28032   0.312E-01    0.157E-01
RMM:   2    -0.671514711450E+03   -0.35541E-03   -0.13430E-03 23483   0.617E-02    0.105E-01
RMM:   3    -0.671514817449E+03   -0.10600E-03   -0.24883E-04 17266   0.277E-02    0.983E-02
RMM:   4    -0.671514802797E+03    0.14652E-04   -0.96966E-05 14958   0.192E-02    0.511E-02
RMM:   5    -0.671514821429E+03   -0.18632E-04   -0.30774E-05 14189   0.913E-03    0.351E-02
RMM:   6    -0.671514838210E+03   -0.16781E-04   -0.15294E-05 13374   0.684E-03    0.258E-02
RMM:   7    -0.671514854851E+03   -0.16640E-04   -0.82478E-06 12488   0.515E-03    0.173E-02
RMM:   8    -0.671514868769E+03   -0.13919E-04   -0.20831E-06 10836   0.314E-03
  42 F= -.67151487E+03 E0= -.67109519E+03  d E =-.191613E-01  mag=    80.0359
       N       E                     dE             d eps       ncg     rms          rms(c)
DAV:   1    -0.671517572438E+03   -0.27176E-02   -0.12483E-01 27008   0.422E-01    0.198E-01
RMM:   2    -0.671518106383E+03   -0.53394E-03   -0.23223E-03 23935   0.795E-02    0.115E-01
RMM:   3    -0.671518263852E+03   -0.15747E-03   -0.36750E-04 18962   0.317E-02    0.785E-02
RMM:   4    -0.671518258089E+03    0.57630E-05   -0.10749E-04 15059   0.197E-02    0.618E-02
RMM:   5    -0.671518259459E+03   -0.13695E-05   -0.43729E-05 14460   0.119E-02    0.334E-02
RMM:   6    -0.671518268414E+03   -0.89556E-05   -0.23413E-05 14130   0.764E-03    0.341E-02
RMM:   7    -0.671518271318E+03   -0.29039E-05   -0.11120E-05 13099   0.603E-03    0.233E-02
RMM:   8    -0.671518276421E+03   -0.51027E-05   -0.36116E-06 11847   0.366E-03
  43 F= -.67151828E+03 E0= -.67109856E+03  d E =-.340765E-02  mag=    80.0373
       N       E                     dE             d eps       ncg     rms          rms(c)
DAV:   1    -0.671518470835E+03   -0.19952E-03   -0.55016E-02 27568   0.280E-01    0.132E-01
RMM:   2    -0.671518708980E+03   -0.23814E-03   -0.10256E-03 23017   0.528E-02    0.749E-02
RMM:   3    -0.671518783982E+03   -0.75002E-04   -0.15759E-04 15616   0.206E-02    0.513E-02
RMM:   4    -0.671518784553E+03   -0.57090E-06   -0.49845E-05 14456   0.139E-02    0.432E-02
RMM:   5    -0.671518792981E+03   -0.84280E-05   -0.18532E-05 13985   0.748E-03    0.295E-02
RMM:   6    -0.671518797858E+03   -0.48769E-05   -0.99628E-06 13260   0.545E-03    0.229E-02
RMM:   7    -0.671518807091E+03   -0.92331E-05   -0.56812E-06 12332   0.428E-03    0.136E-02
RMM:   8    -0.671518816297E+03   -0.92061E-05   -0.16015E-06 10036   0.286E-03
  44 F= -.67151882E+03 E0= -.67109906E+03  d E =-.394753E-02  mag=    80.0386
       N       E                     dE             d eps       ncg     rms          rms(c)
DAV:   1    -0.671523509391E+03   -0.47023E-02   -0.11457E-02 27312   0.127E-01    0.396E-02
RMM:   2    -0.671523554271E+03   -0.44880E-04   -0.25326E-04 16501   0.238E-02    0.342E-02
RMM:   3    -0.671523575205E+03   -0.20934E-04   -0.47660E-05 13918   0.114E-02    0.367E-02
RMM:   4    -0.671523581510E+03   -0.63055E-05   -0.11421E-05 12503   0.625E-03    0.152E-02
RMM:   5    -0.671523600803E+03   -0.19293E-04   -0.41176E-06 11097   0.346E-03    0.138E-02
RMM:   6    -0.671523618896E+03   -0.18092E-04   -0.16335E-06  9597   0.285E-03    0.846E-03
RMM:   7    -0.671523641213E+03   -0.22317E-04   -0.61782E-07  7134   0.238E-03    0.652E-03
RMM:   8    -0.671523659694E+03   -0.18481E-04   -0.20891E-07  6021   0.221E-03
  45 F= -.67152366E+03 E0= -.67110391E+03  d E =-.484340E-02  mag=    80.0398
       N       E                     dE             d eps       ncg     rms          rms(c)
DAV:   1    -0.671532316895E+03   -0.86757E-02   -0.10301E-01 26032   0.380E-01    0.117E-01
RMM:   2    -0.671532612449E+03   -0.29555E-03   -0.22556E-03 22882   0.712E-02    0.925E-02
RMM:   3    -0.671532702237E+03   -0.89789E-04   -0.40762E-04 18238   0.306E-02    0.871E-02
RMM:   4    -0.671532702558E+03   -0.32084E-06   -0.10339E-04 14760   0.181E-02    0.432E-02
RMM:   5    -0.671532730341E+03   -0.27783E-04   -0.41115E-05 13425   0.102E-02    0.393E-02
RMM:   6    -0.671532750478E+03   -0.20137E-04   -0.16500E-05 12666   0.678E-03    0.243E-02
RMM:   7    -0.671532774452E+03   -0.23973E-04   -0.10782E-05 12722   0.544E-03    0.204E-02
RMM:   8    -0.671532794498E+03   -0.20047E-04   -0.42140E-06 11832   0.376E-03
  46 F= -.67153279E+03 E0= -.67111309E+03  d E =-.139782E-01  mag=    80.0409
       N       E                     dE             d eps       ncg     rms          rms(c)
DAV:   1    -0.671526913400E+03    0.58611E-02   -0.41287E-01 25856   0.760E-01    0.234E-01
RMM:   2    -0.671528074009E+03   -0.11606E-02   -0.90975E-03 23958   0.143E-01    0.186E-01
RMM:   3    -0.671528366254E+03   -0.29224E-03   -0.16503E-03 22379   0.616E-02    0.170E-01
RMM:   4    -0.671528322046E+03    0.44208E-04   -0.40588E-04 19001   0.338E-02    0.804E-02
RMM:   5    -0.671528359628E+03   -0.37583E-04   -0.17758E-04 16014   0.193E-02    0.774E-02
RMM:   6    -0.671528369284E+03   -0.96560E-05   -0.69139E-05 14389   0.132E-02    0.495E-02
RMM:   7    -0.671528393255E+03   -0.23970E-04   -0.44769E-05 13914   0.105E-02    0.409E-02
RMM:   8    -0.671528409481E+03   -0.16226E-04   -0.16274E-05 13067   0.686E-03
  47 F= -.67152841E+03 E0= -.67110880E+03  d E =-.959318E-02  mag=    80.0418
       N       E                     dE             d eps       ncg     rms          rms(c)
DAV:   1    -0.671533796072E+03   -0.54028E-02   -0.16053E-01 27392   0.474E-01    0.147E-01
RMM:   2    -0.671534247080E+03   -0.45101E-03   -0.35201E-03 23274   0.894E-02    0.122E-01
RMM:   3    -0.671534376034E+03   -0.12895E-03   -0.64783E-04 19939   0.387E-02    0.119E-01
RMM:   4    -0.671534351041E+03    0.24993E-04   -0.16524E-04 15902   0.225E-02    0.562E-02
RMM:   5    -0.671534369353E+03   -0.18313E-04   -0.67071E-05 13916   0.129E-02    0.505E-02
RMM:   6    -0.671534381447E+03   -0.12094E-04   -0.26549E-05 13067   0.856E-03    0.300E-02
RMM:   7    -0.671534403233E+03   -0.21785E-04   -0.16516E-05 13031   0.637E-03    0.253E-02
RMM:   8    -0.671534421280E+03   -0.18048E-04   -0.62523E-06 12323   0.443E-03
  48 F= -.67153442E+03 E0= -.67111476E+03  d E =-.156050E-01  mag=    80.0427
       N       E                     dE             d eps       ncg     rms          rms(c)
DAV:   1    -0.671537663193E+03   -0.32600E-02   -0.17926E-02 27024   0.154E-01    0.827E-02
RMM:   2    -0.671537781389E+03   -0.11820E-03   -0.44268E-04 19489   0.319E-02    0.653E-02
RMM:   3    -0.671537823145E+03   -0.41755E-04   -0.81863E-05 14747   0.157E-02    0.675E-02
RMM:   4    -0.671537811887E+03    0.11258E-04   -0.28960E-05 13400   0.103E-02    0.239E-02
RMM:   5    -0.671537830948E+03   -0.19061E-04   -0.84655E-06 12506   0.480E-03    0.210E-02
RMM:   6    -0.671537843938E+03   -0.12989E-04   -0.47804E-06 12155   0.416E-03    0.145E-02
RMM:   7    -0.671537856034E+03   -0.12097E-04   -0.27788E-06 11415   0.314E-03    0.862E-03
RMM:   8    -0.671537865094E+03   -0.90599E-05   -0.39736E-07  6896   0.231E-03
  49 F= -.67153787E+03 E0= -.67111823E+03  d E =-.344381E-02  mag=    80.0436
       N       E                     dE             d eps       ncg     rms          rms(c)
DAV:   1    -0.671542399041E+03   -0.45430E-02   -0.16142E-01 27856   0.460E-01    0.248E-01
RMM:   2    -0.671543231302E+03   -0.83226E-03   -0.40173E-03 23981   0.963E-02    0.186E-01
RMM:   3    -0.671543456564E+03   -0.22526E-03   -0.66025E-04 21579   0.437E-02    0.164E-01
RMM:   4    -0.671543373817E+03    0.82747E-04   -0.22784E-04 17196   0.272E-02    0.747E-02
RMM:   5    -0.671543404780E+03   -0.30963E-04   -0.84229E-05 14689   0.152E-02    0.656E-02
RMM:   6    -0.671543409159E+03   -0.43791E-05   -0.44072E-05 14223   0.114E-02    0.418E-02
RMM:   7    -0.671543421505E+03   -0.12346E-04   -0.25386E-05 13687   0.806E-03    0.251E-02
RMM:   8    -0.671543430912E+03   -0.94073E-05   -0.90068E-06 12720   0.545E-03
  50 F= -.67154343E+03 E0= -.67112390E+03  d E =-.900963E-02  mag=    80.0444
       N       E                     dE             d eps       ncg     rms          rms(c)
DAV:   1    -0.671543642606E+03   -0.22110E-03   -0.12868E-02 27280   0.130E-01    0.704E-02
RMM:   2    -0.671543715436E+03   -0.72830E-04   -0.33326E-04 18171   0.280E-02    0.534E-02
RMM:   3    -0.671543740780E+03   -0.25344E-04   -0.55819E-05 14518   0.135E-02    0.466E-02
RMM:   4    -0.671543739110E+03    0.16694E-05   -0.18518E-05 13070   0.833E-03    0.217E-02
RMM:   5    -0.671543752518E+03   -0.13408E-04   -0.59413E-06 12176   0.415E-03    0.211E-02
RMM:   6    -0.671543761642E+03   -0.91242E-05   -0.33175E-06 11621   0.358E-03    0.117E-02
RMM:   7    -0.671543772609E+03   -0.10967E-04   -0.17047E-06  9890   0.273E-03    0.595E-03
RMM:   8    -0.671543779137E+03   -0.65276E-05   -0.24661E-07  6498   0.229E-03
  51 F= -.67154378E+03 E0= -.67112425E+03  d E =-.935786E-02  mag=    80.0452
       N       E                     dE             d eps       ncg     rms          rms(c)
DAV:   1    -0.671547571101E+03   -0.37985E-02   -0.56298E-02 27248   0.276E-01    0.139E-01
RMM:   2    -0.671547847290E+03   -0.27619E-03   -0.13040E-03 22945   0.571E-02    0.978E-02
RMM:   3    -0.671547929530E+03   -0.82240E-04   -0.22043E-04 16794   0.250E-02    0.950E-02
RMM:   4    -0.671547902979E+03    0.26551E-04   -0.81170E-05 14737   0.171E-02    0.415E-02
RMM:   5    -0.671547916221E+03   -0.13242E-04   -0.29615E-05 13810   0.883E-03    0.374E-02
RMM:   6    -0.671547920193E+03   -0.39721E-05   -0.14431E-05 13048   0.678E-03    0.213E-02
RMM:   7    -0.671547924963E+03   -0.47698E-05   -0.77709E-06 12717   0.476E-03    0.148E-02
RMM:   8    -0.671547926012E+03   -0.10496E-05   -0.26423E-06 11484   0.330E-03
  52 F= -.67154793E+03 E0= -.67112843E+03  d E =-.414688E-02  mag=    80.0461
       N       E                     dE             d eps       ncg     rms          rms(c)
DAV:   1    -0.671549225981E+03   -0.13010E-02   -0.90936E-02 27632   0.351E-01    0.176E-01
RMM:   2    -0.671549654068E+03   -0.42809E-03   -0.20980E-03 23692   0.720E-02    0.120E-01
RMM:   3    -0.671549763968E+03   -0.10990E-03   -0.33139E-04 18549   0.304E-02    0.103E-01
RMM:   4    -0.671549734446E+03    0.29522E-04   -0.11664E-04 15235   0.202E-02    0.579E-02
RMM:   5    -0.671549739157E+03   -0.47111E-05   -0.48244E-05 14312   0.116E-02    0.495E-02
RMM:   6    -0.671549735398E+03    0.37588E-05   -0.23263E-05 13653   0.842E-03    0.259E-02
RMM:   7    -0.671549735473E+03   -0.74506E-07   -0.12632E-05 13080   0.589E-03    0.174E-02
RMM:   8    -0.671549732931E+03    0.25416E-05   -0.42352E-06 12085   0.397E-03
  53 F= -.67154973E+03 E0= -.67113029E+03  d E =-.595379E-02  mag=    80.0469
       N       E                     dE             d eps       ncg     rms          rms(c)
DAV:   1    -0.671551313753E+03   -0.15783E-02   -0.34423E-02 27360   0.224E-01    0.101E-01
RMM:   2    -0.671551465984E+03   -0.15223E-03   -0.75066E-04 22305   0.449E-02    0.683E-02
RMM:   3    -0.671551514017E+03   -0.48033E-04   -0.12640E-04 15302   0.192E-02    0.614E-02
RMM:   4    -0.671551507991E+03    0.60266E-05   -0.49023E-05 14455   0.137E-02    0.337E-02
RMM:   5    -0.671551510296E+03   -0.23055E-05   -0.15342E-05 13194   0.659E-03    0.259E-02
RMM:   6    -0.671551509293E+03    0.10035E-05   -0.76506E-06 12453   0.512E-03    0.151E-02
RMM:   7    -0.671551508679E+03    0.61374E-06   -0.44238E-06 12265   0.374E-03    0.105E-02
RMM:   8    -0.671551507551E+03    0.11283E-05   -0.97602E-07  9110   0.260E-03
  54 F= -.67155151E+03 E0= -.67113209E+03  d E =-.177462E-02  mag=    80.0478
       N       E                     dE             d eps       ncg     rms          rms(c)
DAV:   1    -0.671551795170E+03   -0.28649E-03   -0.16690E-02 27344   0.156E-01    0.701E-02
RMM:   2    -0.671551869672E+03   -0.74502E-04   -0.36671E-04 18731   0.312E-02    0.454E-02
RMM:   3    -0.671551893416E+03   -0.23745E-04   -0.56566E-05 14657   0.133E-02    0.343E-02
RMM:   4    -0.671551893598E+03   -0.18161E-06   -0.17644E-05 13827   0.807E-03    0.264E-02
RMM:   5    -0.671551894197E+03   -0.59884E-06   -0.63076E-06 12374   0.446E-03    0.194E-02
RMM:   6    -0.671551894884E+03   -0.68685E-06   -0.31752E-06 11637   0.351E-03    0.104E-02
RMM:   7    -0.671551896780E+03   -0.18962E-05   -0.21010E-06 10827   0.293E-03    0.743E-03
RMM:   8    -0.671551897629E+03   -0.84890E-06   -0.25501E-07  6478   0.228E-03
  55 F= -.67155190E+03 E0= -.67113247E+03  d E =-.216470E-02  mag=    80.0487
       N       E                     dE             d eps       ncg     rms          rms(c)
DAV:   1    -0.671553055782E+03   -0.11590E-02   -0.25407E-02 27264   0.193E-01    0.928E-02
RMM:   2    -0.671553159866E+03   -0.10408E-03   -0.55866E-04 21524   0.403E-02    0.593E-02
RMM:   3    -0.671553204176E+03   -0.44309E-04   -0.93179E-05 14871   0.168E-02    0.515E-02
RMM:   4    -0.671553201932E+03    0.22440E-05   -0.33438E-05 14426   0.115E-02    0.281E-02
RMM:   5    -0.671553214700E+03   -0.12769E-04   -0.11283E-05 13113   0.559E-03    0.241E-02
RMM:   6    -0.671553222469E+03   -0.77686E-05   -0.51403E-06 12138   0.427E-03    0.151E-02
RMM:   7    -0.671553230114E+03   -0.76448E-05   -0.32837E-06 11674   0.335E-03    0.967E-03
RMM:   8    -0.671553234461E+03   -0.43474E-05   -0.63631E-07  7973   0.249E-03
  56 F= -.67155323E+03 E0= -.67113384E+03  d E =-.133683E-02  mag=    80.0495
       N       E                     dE             d eps       ncg     rms          rms(c)
DAV:   1    -0.671553606440E+03   -0.37633E-03   -0.33140E-02 27168   0.221E-01    0.106E-01
RMM:   2    -0.671553748218E+03   -0.14178E-03   -0.72642E-04 22582   0.461E-02    0.660E-02
RMM:   3    -0.671553803752E+03   -0.55534E-04   -0.12026E-04 15160   0.187E-02    0.539E-02
RMM:   4    -0.671553802942E+03    0.80978E-06   -0.42854E-05 14488   0.131E-02    0.301E-02
RMM:   5    -0.671553817286E+03   -0.14344E-04   -0.14900E-05 13481   0.652E-03    0.232E-02
RMM:   6    -0.671553827905E+03   -0.10619E-04   -0.65081E-06 12516   0.457E-03    0.181E-02
RMM:   7    -0.671553834753E+03   -0.68480E-05   -0.38313E-06 11987   0.363E-03    0.130E-02
RMM:   8    -0.671553839781E+03   -0.50287E-05   -0.85108E-07  8647   0.257E-03
  57 F= -.67155384E+03 E0= -.67113449E+03  d E =-.194215E-02  mag=    80.0503
       N       E                     dE             d eps       ncg     rms          rms(c)
DAV:   1    -0.671554860850E+03   -0.10261E-02   -0.19062E-02 27584   0.163E-01    0.858E-02
RMM:   2    -0.671554954084E+03   -0.93233E-04   -0.39055E-04 19750   0.339E-02    0.520E-02
RMM:   3    -0.671554990513E+03   -0.36429E-04   -0.62433E-05 14636   0.143E-02    0.404E-02
RMM:   4    -0.671554988201E+03    0.23115E-05   -0.23423E-05 14278   0.956E-03    0.248E-02
RMM:   5    -0.671554992686E+03   -0.44843E-05   -0.86529E-06 12601   0.515E-03    0.203E-02
RMM:   6    -0.671554996635E+03   -0.39497E-05   -0.42141E-06 12036   0.388E-03    0.142E-02
RMM:   7    -0.671554999159E+03   -0.25239E-05   -0.21746E-06 10700   0.301E-03    0.879E-03
RMM:   8    -0.671555001205E+03   -0.20457E-05   -0.14724E-07  6085   0.222E-03
  58 F= -.67155500E+03 E0= -.67113571E+03  d E =-.116142E-02  mag=    80.0511
       N       E                     dE             d eps       ncg     rms          rms(c)
DAV:   1    -0.671556033858E+03   -0.10347E-02   -0.17159E-01 25760   0.490E-01    0.257E-01
RMM:   2    -0.671556858000E+03   -0.82414E-03   -0.34719E-03 24209   0.101E-01    0.158E-01
RMM:   3    -0.671557145540E+03   -0.28754E-03   -0.59360E-04 22120   0.415E-02    0.120E-01
RMM:   4    -0.671557100495E+03    0.45045E-04   -0.17332E-04 16493   0.240E-02    0.739E-02
RMM:   5    -0.671557095242E+03    0.52527E-05   -0.76339E-05 14669   0.150E-02    0.663E-02
RMM:   6    -0.671557074750E+03    0.20492E-04   -0.37226E-05 14431   0.103E-02    0.402E-02
RMM:   7    -0.671557066061E+03    0.86892E-05   -0.22720E-05 14200   0.779E-03    0.243E-02
RMM:   8    -0.671557059266E+03    0.67954E-05   -0.74802E-06 12611   0.513E-03
  59 F= -.67155706E+03 E0= -.67113791E+03  d E =-.321948E-02  mag=    80.0519
       N       E                     dE             d eps       ncg     rms          rms(c)
DAV:   1    -0.671550792328E+03    0.62737E-02   -0.68641E-01 25072   0.979E-01    0.514E-01
RMM:   2    -0.671554193479E+03   -0.34012E-02   -0.13914E-02 24331   0.203E-01    0.321E-01
RMM:   3    -0.671555194208E+03   -0.10007E-02   -0.24193E-03 24816   0.847E-02    0.243E-01
RMM:   4    -0.671555003677E+03    0.19053E-03   -0.75239E-04 21446   0.493E-02    0.133E-01
RMM:   5    -0.671554971771E+03    0.31906E-04   -0.30505E-04 19075   0.279E-02    0.103E-01
RMM:   6    -0.671554927949E+03    0.43822E-04   -0.14510E-04 15675   0.189E-02    0.832E-02
RMM:   7    -0.671554891346E+03    0.36603E-04   -0.76197E-05 14662   0.147E-02    0.570E-02
RMM:   8    -0.671554862395E+03    0.28952E-04   -0.25373E-05 14359   0.887E-03
  60 F= -.67155486E+03 E0= -.67113599E+03  d E =-.102261E-02  mag=    80.0530
       N       E                     dE             d eps       ncg     rms          rms(c)
DAV:   1    -0.671554846047E+03    0.45300E-04   -0.38848E-01 26736   0.736E-01    0.387E-01
RMM:   2    -0.671556716916E+03   -0.18709E-02   -0.78235E-03 24290   0.152E-01    0.242E-01
RMM:   3    -0.671557366516E+03   -0.64960E-03   -0.13723E-03 24470   0.631E-02    0.198E-01
RMM:   4    -0.671557222665E+03    0.14385E-03   -0.39453E-04 20126   0.361E-02    0.112E-01
RMM:   5    -0.671557238731E+03   -0.16065E-04   -0.17000E-04 16179   0.203E-02    0.111E-01
RMM:   6    -0.671557186280E+03    0.52451E-04   -0.85756E-05 14812   0.160E-02    0.553E-02
RMM:   7    -0.671557199539E+03   -0.13259E-04   -0.56788E-05 14558   0.118E-02    0.360E-02
RMM:   8    -0.671557216411E+03   -0.16872E-04   -0.17949E-05 13826   0.783E-03
  61 F= -.67155722E+03 E0= -.67113814E+03  d E =-.337663E-02  mag=    80.0539
       N       E                     dE             d eps       ncg     rms          rms(c)
DAV:   1    -0.671558037053E+03   -0.83751E-03   -0.14037E-02 27504   0.135E-01    0.777E-02
RMM:   2    -0.671558121988E+03   -0.84934E-04   -0.27416E-04 17707   0.283E-02    0.565E-02
RMM:   3    -0.671558159986E+03   -0.37998E-04   -0.61312E-05 14737   0.143E-02    0.608E-02
RMM:   4    -0.671558150842E+03    0.91442E-05   -0.23659E-05 13973   0.952E-03    0.218E-02
RMM:   5    -0.671558160604E+03   -0.97617E-05   -0.65266E-06 12009   0.425E-03    0.201E-02
RMM:   6    -0.671558168842E+03   -0.82385E-05   -0.37544E-06 11941   0.379E-03    0.121E-02
RMM:   7    -0.671558173880E+03   -0.50380E-05   -0.20281E-06 10232   0.291E-03    0.735E-03
RMM:   8    -0.671558176695E+03   -0.28154E-05   -0.13209E-07  5767   0.215E-03
  62 F= -.67155818E+03 E0= -.67113914E+03  d E =-.960284E-03  mag=    80.0547
       N       E                     dE             d eps       ncg     rms          rms(c)
DAV:   1    -0.671559511228E+03   -0.13373E-02   -0.12602E-01 26352   0.404E-01    0.232E-01
RMM:   2    -0.671560134306E+03   -0.62308E-03   -0.23700E-03 24025   0.828E-02    0.139E-01
RMM:   3    -0.671560356918E+03   -0.22261E-03   -0.37707E-04 19905   0.335E-02    0.914E-02
RMM:   4    -0.671560335654E+03    0.21264E-04   -0.12247E-04 15462   0.208E-02    0.687E-02
RMM:   5    -0.671560321541E+03    0.14114E-04   -0.57982E-05 14549   0.135E-02    0.523E-02
RMM:   6    -0.671560304017E+03    0.17523E-04   -0.28078E-05 14380   0.880E-03    0.336E-02
RMM:   7    -0.671560291599E+03    0.12419E-04   -0.14159E-05 13467   0.635E-03    0.216E-02
RMM:   8    -0.671560280234E+03    0.11365E-04   -0.43205E-06 12224   0.410E-03
  63 F= -.67156028E+03 E0= -.67114132E+03  d E =-.306382E-02  mag=    80.0556
       N       E                     dE             d eps       ncg     rms          rms(c)
DAV:   1    -0.671558775274E+03    0.15163E-02   -0.50394E-01 25264   0.807E-01    0.463E-01
RMM:   2    -0.671561352927E+03   -0.25777E-02   -0.94741E-03 24362   0.166E-01    0.281E-01
RMM:   3    -0.671562130434E+03   -0.77751E-03   -0.15291E-03 24446   0.678E-02    0.184E-01
RMM:   4    -0.671562033572E+03    0.96862E-04   -0.50350E-04 20681   0.406E-02    0.128E-01
RMM:   5    -0.671561971811E+03    0.61761E-04   -0.22239E-04 17532   0.254E-02    0.905E-02
RMM:   6    -0.671561912068E+03    0.59742E-04   -0.12977E-04 15356   0.188E-02    0.591E-02
RMM:   7    -0.671561881715E+03    0.30353E-04   -0.62823E-05 14556   0.135E-02    0.444E-02
RMM:   8    -0.671561850215E+03    0.31500E-04   -0.20296E-05 13628   0.805E-03
  64 F= -.67156185E+03 E0= -.67114305E+03  d E =-.463380E-02  mag=    80.0568
       N       E                     dE             d eps       ncg     rms          rms(c)
DAV:   1    -0.671563716071E+03   -0.18344E-02   -0.74448E-02 27824   0.315E-01    0.174E-01
RMM:   2    -0.671564027607E+03   -0.31154E-03   -0.14240E-03 23768   0.634E-02    0.103E-01
RMM:   3    -0.671564134419E+03   -0.10681E-03   -0.22124E-04 16882   0.258E-02    0.714E-02
RMM:   4    -0.671564110547E+03    0.23872E-04   -0.81089E-05 14699   0.176E-02    0.494E-02
RMM:   5    -0.671564082172E+03    0.28375E-04   -0.33725E-05 14357   0.101E-02    0.326E-02
RMM:   6    -0.671564054101E+03    0.28071E-04   -0.17112E-05 13781   0.703E-03    0.228E-02
RMM:   7    -0.671564037902E+03    0.16198E-04   -0.71362E-06 12635   0.478E-03    0.186E-02
RMM:   8    -0.671564024713E+03    0.13189E-04   -0.26086E-06 11578   0.327E-03
  65 F= -.67156402E+03 E0= -.67114529E+03  d E =-.217450E-02  mag=    80.0580
       N       E                     dE             d eps       ncg     rms          rms(c)
DAV:   1    -0.671562470925E+03    0.15670E-02   -0.64041E-01 25312   0.925E-01    0.509E-01
RMM:   2    -0.671565606510E+03   -0.31356E-02   -0.12187E-02 24356   0.186E-01    0.309E-01
RMM:   3    -0.671566546596E+03   -0.94009E-03   -0.19482E-03 24512   0.771E-02    0.224E-01
RMM:   4    -0.671566408102E+03    0.13849E-03   -0.63483E-04 21486   0.449E-02    0.144E-01
RMM:   5    -0.671566363077E+03    0.45025E-04   -0.26008E-04 18405   0.251E-02    0.134E-01
RMM:   6    -0.671566246191E+03    0.11689E-03   -0.12322E-04 15166   0.185E-02    0.713E-02
RMM:   7    -0.671566195701E+03    0.50490E-04   -0.81436E-05 14708   0.149E-02    0.471E-02
RMM:   8    -0.671566159561E+03    0.36140E-04   -0.28791E-05 14271   0.974E-03
  66 F= -.67156616E+03 E0= -.67114763E+03  d E =-.430935E-02  mag=    80.0594
       N       E                     dE             d eps       ncg     rms          rms(c)
DAV:   1    -0.671566116239E+03    0.79462E-04   -0.24202E-02 27648   0.180E-01    0.999E-02
RMM:   2    -0.671566225198E+03   -0.10896E-03   -0.46700E-04 20749   0.365E-02    0.676E-02
RMM:   3    -0.671566280960E+03   -0.55762E-04   -0.89677E-05 14905   0.170E-02    0.697E-02
RMM:   4    -0.671566259633E+03    0.21327E-04   -0.36198E-05 14416   0.119E-02    0.279E-02
RMM:   5    -0.671566265944E+03   -0.63111E-05   -0.11563E-05 12809   0.552E-03    0.247E-02
RMM:   6    -0.671566271225E+03   -0.52811E-05   -0.59046E-06 12363   0.456E-03    0.142E-02
RMM:   7    -0.671566282364E+03   -0.11139E-04   -0.35386E-06 11784   0.351E-03    0.108E-02
RMM:   8    -0.671566294591E+03   -0.12227E-04   -0.66541E-07  8049   0.248E-03
  67 F= -.67156629E+03 E0= -.67114775E+03  d E =-.444438E-02  mag=    80.0606
       N       E                     dE             d eps       ncg     rms          rms(c)
DAV:   1    -0.671568216345E+03   -0.19340E-02   -0.52954E-02 27632   0.271E-01    0.143E-01
RMM:   2    -0.671568475728E+03   -0.25938E-03   -0.10896E-03 23658   0.555E-02    0.856E-02
RMM:   3    -0.671568540136E+03   -0.64408E-04   -0.16064E-04 15693   0.220E-02    0.566E-02
RMM:   4    -0.671568534798E+03    0.53383E-05   -0.58079E-05 14446   0.151E-02    0.453E-02
RMM:   5    -0.671568526571E+03    0.82264E-05   -0.21818E-05 14102   0.801E-03    0.316E-02
RMM:   6    -0.671568524872E+03    0.16987E-05   -0.10348E-05 13198   0.567E-03    0.242E-02
RMM:   7    -0.671568526642E+03   -0.17695E-05   -0.57872E-06 12532   0.435E-03    0.130E-02
RMM:   8    -0.671568531996E+03   -0.53542E-05   -0.16721E-06 10677   0.290E-03
  68 F= -.67156853E+03 E0= -.67115009E+03  d E =-.223741E-02  mag=    80.0619
       N       E                     dE             d eps       ncg     rms          rms(c)
DAV:   1    -0.671568901347E+03   -0.37471E-03   -0.25649E-01 25312   0.596E-01    0.316E-01
RMM:   2    -0.671570187844E+03   -0.12865E-02   -0.53242E-03 24161   0.123E-01    0.192E-01
RMM:   3    -0.671570509522E+03   -0.32168E-03   -0.81540E-04 23441   0.496E-02    0.133E-01
RMM:   4    -0.671570468345E+03    0.41177E-04   -0.26162E-04 17911   0.288E-02    0.100E-01
RMM:   5    -0.671570430644E+03    0.37701E-04   -0.10936E-04 15013   0.178E-02    0.813E-02
RMM:   6    -0.671570395480E+03    0.35164E-04   -0.57752E-05 14568   0.134E-02    0.473E-02
RMM:   7    -0.671570385111E+03    0.10368E-04   -0.31428E-05 14383   0.944E-03    0.246E-02
RMM:   8    -0.671570387426E+03   -0.23148E-05   -0.10620E-05 13396   0.611E-03
  69 F= -.67157039E+03 E0= -.67115221E+03  d E =-.409284E-02  mag=    80.0631
       N       E                     dE             d eps       ncg     rms          rms(c)
DAV:   1    -0.671572409647E+03   -0.20245E-02   -0.66741E-02 27712   0.300E-01    0.166E-01
RMM:   2    -0.671572737587E+03   -0.32794E-03   -0.14457E-03 23793   0.616E-02    0.108E-01
RMM:   3    -0.671572828417E+03   -0.90830E-04   -0.23273E-04 16960   0.268E-02    0.863E-02
RMM:   4    -0.671572810581E+03    0.17836E-04   -0.96695E-05 14879   0.189E-02    0.539E-02
RMM:   5    -0.671572814897E+03   -0.43153E-05   -0.32755E-05 14284   0.991E-03    0.317E-02
RMM:   6    -0.671572822512E+03   -0.76154E-05   -0.16195E-05 13712   0.716E-03    0.247E-02
RMM:   7    -0.671572829072E+03   -0.65602E-05   -0.85666E-06 12771   0.523E-03    0.124E-02
RMM:   8    -0.671572836015E+03   -0.69430E-05   -0.25415E-06 11463   0.324E-03
  70 F= -.67157284E+03 E0= -.67115479E+03  d E =-.244859E-02  mag=    80.0643
       N       E                     dE             d eps       ncg     rms          rms(c)
DAV:   1    -0.671571952983E+03    0.87609E-03   -0.32649E-01 25776   0.664E-01    0.366E-01
RMM:   2    -0.671573637454E+03   -0.16845E-02   -0.69690E-03 24232   0.136E-01    0.234E-01
RMM:   3    -0.671574054864E+03   -0.41741E-03   -0.10512E-03 23546   0.574E-02    0.169E-01
RMM:   4    -0.671574007994E+03    0.46870E-04   -0.39091E-04 19797   0.353E-02    0.123E-01
RMM:   5    -0.671573977350E+03    0.30644E-04   -0.14442E-04 15758   0.199E-02    0.863E-02
RMM:   6    -0.671573967105E+03    0.10245E-04   -0.74042E-05 14653   0.152E-02    0.545E-02
RMM:   7    -0.671573965264E+03    0.18412E-05   -0.41105E-05 14443   0.106E-02    0.309E-02
RMM:   8    -0.671573971350E+03   -0.60867E-05   -0.15354E-05 13901   0.730E-03
  71 F= -.67157397E+03 E0= -.67115620E+03  d E =-.358392E-02  mag=    80.0653
       N       E                     dE             d eps       ncg     rms          rms(c)
DAV:   1    -0.671574102574E+03   -0.13731E-03   -0.44086E-02 28000   0.244E-01    0.135E-01
RMM:   2    -0.671574371925E+03   -0.26935E-03   -0.93603E-04 23070   0.500E-02    0.905E-02
RMM:   3    -0.671574458621E+03   -0.86696E-04   -0.15944E-04 15947   0.224E-02    0.819E-02
RMM:   4    -0.671574450892E+03    0.77281E-05   -0.67033E-05 14551   0.159E-02    0.439E-02
RMM:   5    -0.671574476857E+03   -0.25965E-04   -0.19651E-05 13797   0.752E-03    0.274E-02
RMM:   6    -0.671574504542E+03   -0.27685E-04   -0.95138E-06 12998   0.552E-03    0.229E-02
RMM:   7    -0.671574530770E+03   -0.26227E-04   -0.55421E-06 12495   0.431E-03    0.134E-02
RMM:   8    -0.671574551697E+03   -0.20927E-04   -0.16473E-06 10645   0.286E-03
  72 F= -.67157455E+03 E0= -.67115672E+03  d E =-.416427E-02  mag=    80.0663
       N       E                     dE             d eps       ncg     rms          rms(c)
DAV:   1    -0.671576593798E+03   -0.20630E-02   -0.35194E-02 27776   0.221E-01    0.116E-01
RMM:   2    -0.671576789084E+03   -0.19529E-03   -0.74664E-04 22548   0.457E-02    0.710E-02
RMM:   3    -0.671576835099E+03   -0.46015E-04   -0.10918E-04 15129   0.181E-02    0.443E-02
RMM:   4    -0.671576836418E+03   -0.13192E-05   -0.41518E-05 14338   0.127E-02    0.364E-02
RMM:   5    -0.671576842031E+03   -0.56131E-05   -0.15217E-05 13301   0.685E-03    0.236E-02
RMM:   6    -0.671576853129E+03   -0.11098E-04   -0.71881E-06 12519   0.464E-03    0.196E-02
RMM:   7    -0.671576861077E+03   -0.79484E-05   -0.33967E-06 12134   0.344E-03    0.111E-02
RMM:   8    -0.671576871673E+03   -0.10595E-04   -0.59015E-07  8112   0.247E-03
  73 F= -.67157687E+03 E0= -.67115909E+03  d E =-.231998E-02  mag=    80.0673
       N       E                     dE             d eps       ncg     rms          rms(c)
DAV:   1    -0.671577839915E+03   -0.97884E-03   -0.27395E-01 26720   0.616E-01    0.326E-01
RMM:   2    -0.671579255740E+03   -0.14158E-02   -0.58468E-03 24216   0.127E-01    0.199E-01
RMM:   3    -0.671579551231E+03   -0.29549E-03   -0.89361E-04 23226   0.509E-02    0.120E-01
RMM:   4    -0.671579513777E+03    0.37455E-04   -0.28133E-04 18379   0.295E-02    0.926E-02
RMM:   5    -0.671579471684E+03    0.42093E-04   -0.11886E-04 15446   0.190E-02    0.651E-02
RMM:   6    -0.671579451805E+03    0.19880E-04   -0.64620E-05 14622   0.134E-02    0.490E-02
RMM:   7    -0.671579440061E+03    0.11743E-04   -0.31138E-05 14339   0.966E-03    0.284E-02
RMM:   8    -0.671579443776E+03   -0.37146E-05   -0.89429E-06 13097   0.547E-03
  74 F= -.67157944E+03 E0= -.67116184E+03  d E =-.489208E-02  mag=    80.0682
       N       E                     dE             d eps       ncg     rms          rms(c)
DAV:   1    -0.671580979883E+03   -0.15398E-02   -0.20795E-02 27456   0.164E-01    0.952E-02
RMM:   2    -0.671581096924E+03   -0.11704E-03   -0.43607E-04 20272   0.344E-02    0.667E-02
RMM:   3    -0.671581131910E+03   -0.34985E-04   -0.84673E-05 15067   0.170E-02    0.662E-02
RMM:   4    -0.671581119073E+03    0.12836E-04   -0.38903E-05 14170   0.118E-02    0.280E-02
RMM:   5    -0.671581124891E+03   -0.58175E-05   -0.10453E-05 12773   0.546E-03    0.203E-02
RMM:   6    -0.671581136070E+03   -0.11179E-04   -0.47810E-06 12183   0.402E-03    0.142E-02
RMM:   7    -0.671581147105E+03   -0.11035E-04   -0.24774E-06 11474   0.301E-03    0.100E-02
RMM:   8    -0.671581157154E+03   -0.10049E-04   -0.17975E-07  6527   0.227E-03
  75 F= -.67158116E+03 E0= -.67116359E+03  d E =-.171338E-02  mag=    80.0691
       N       E                     dE             d eps       ncg     rms          rms(c)
DAV:   1    -0.671583505607E+03   -0.23585E-02   -0.18696E-01 27312   0.492E-01    0.283E-01
RMM:   2    -0.671584530036E+03   -0.10244E-02   -0.37900E-03 24141   0.101E-01    0.180E-01
RMM:   3    -0.671584764466E+03   -0.23443E-03   -0.59093E-04 21633   0.434E-02    0.130E-01
RMM:   4    -0.671584718516E+03    0.45950E-04   -0.23685E-04 17462   0.277E-02    0.884E-02
RMM:   5    -0.671584698612E+03    0.19903E-04   -0.94831E-05 14977   0.168E-02    0.604E-02
RMM:   6    -0.671584692447E+03    0.61649E-05   -0.46452E-05 14509   0.117E-02    0.399E-02
RMM:   7    -0.671584698486E+03   -0.60387E-05   -0.24241E-05 14157   0.814E-03    0.246E-02
RMM:   8    -0.671584709620E+03   -0.11133E-04   -0.71511E-06 12818   0.506E-03
  76 F= -.67158471E+03 E0= -.67116732E+03  d E =-.526584E-02  mag=    80.0700
       N       E                     dE             d eps       ncg     rms          rms(c)
DAV:   1    -0.671580036666E+03    0.46618E-02   -0.74807E-01 26768   0.985E-01    0.565E-01
RMM:   2    -0.671584206647E+03   -0.41700E-02   -0.15179E-02 24379   0.202E-01    0.365E-01
RMM:   3    -0.671585097753E+03   -0.89111E-03   -0.23908E-03 24213   0.876E-02    0.253E-01
RMM:   4    -0.671584928640E+03    0.16911E-03   -0.96846E-04 21968   0.549E-02    0.166E-01
RMM:   5    -0.671584858351E+03    0.70289E-04   -0.36474E-04 19392   0.307E-02    0.125E-01
[...]
RMM:   8    -0.671630353026E+03   -0.11357E-04   -0.42878E-07  7370   0.238E-03
 117 F= -.67163035E+03 E0= -.67121606E+03  d E =-.686741E-03  mag=    80.0774
       N       E                     dE             d eps       ncg     rms          rms(c)
DAV:   1    -0.671630402448E+03   -0.60780E-04   -0.13785E-02 27712   0.143E-01    0.691E-02
RMM:   2    -0.671630478994E+03   -0.76546E-04   -0.29669E-04 17950   0.295E-02    0.431E-02
RMM:   3    -0.671630510297E+03   -0.31304E-04   -0.50052E-05 14584   0.131E-02    0.359E-02
RMM:   4    -0.671630513137E+03   -0.28401E-05   -0.18213E-05 13874   0.842E-03    0.223E-02
RMM:   5    -0.671630531690E+03   -0.18552E-04   -0.63757E-06 12482   0.459E-03    0.158E-02
RMM:   6    -0.671630546452E+03   -0.14762E-04   -0.29037E-06 11220   0.341E-03    0.117E-02
RMM:   7    -0.671630562001E+03   -0.15549E-04   -0.14124E-06  9748   0.278E-03    0.653E-03
RMM:   8    -0.671630574917E+03   -0.12916E-04   -0.43012E-08  5432   0.211E-03
 118 F= -.67163057E+03 E0= -.67121628E+03  d E =-.908632E-03  mag=    80.0776
       N       E                     dE             d eps       ncg     rms          rms(c)
DAV:   1    -0.671630873617E+03   -0.31162E-03   -0.20842E-02 27456   0.174E-01    0.880E-02
RMM:   2    -0.671630992152E+03   -0.11854E-03   -0.44911E-04 20723   0.365E-02    0.558E-02
RMM:   3    -0.671631044331E+03   -0.52179E-04   -0.80444E-05 14669   0.161E-02    0.517E-02
RMM:   4    -0.671631042757E+03    0.15749E-05   -0.29356E-05 14433   0.110E-02    0.259E-02
RMM:   5    -0.671631063406E+03   -0.20649E-04   -0.91977E-06 13280   0.507E-03    0.202E-02
RMM:   6    -0.671631079280E+03   -0.15874E-04   -0.44196E-06 12278   0.404E-03    0.140E-02
RMM:   7    -0.671631098450E+03   -0.19170E-04   -0.24669E-06 11473   0.310E-03    0.823E-03
RMM:   8    -0.671631112663E+03   -0.14212E-04   -0.18042E-07  6617   0.229E-03
 119 F= -.67163111E+03 E0= -.67121681E+03  d E =-.537746E-03  mag=    80.0779
       N       E                     dE             d eps       ncg     rms          rms(c)
DAV:   1    -0.671631142406E+03   -0.43956E-04   -0.10880E-02 27648   0.126E-01    0.636E-02
RMM:   2    -0.671631211461E+03   -0.69055E-04   -0.23961E-04 16989   0.265E-02    0.400E-02
RMM:   3    -0.671631243153E+03   -0.31693E-04   -0.40205E-05 14566   0.122E-02    0.346E-02
RMM:   4    -0.671631246462E+03   -0.33085E-05   -0.14394E-05 13879   0.750E-03    0.194E-02
RMM:   5    -0.671631265816E+03   -0.19354E-04   -0.47715E-06 12211   0.403E-03    0.151E-02
RMM:   6    -0.671631280863E+03   -0.15046E-04   -0.21215E-06 10953   0.307E-03    0.103E-02
RMM:   7    -0.671631297986E+03   -0.17123E-04   -0.74072E-07  8396   0.257E-03    0.472E-03
RMM:   8    -0.671631312225E+03   -0.14239E-04   -0.47375E-08  5464   0.215E-03
 120 F= -.67163131E+03 E0= -.67121701E+03  d E =-.737308E-03  mag=    80.0782
       N       E                     dE             d eps       ncg     rms          rms(c)
DAV:   1    -0.671631599586E+03   -0.30160E-03   -0.22107E-02 27168   0.178E-01    0.932E-02
RMM:   2    -0.671631722407E+03   -0.12282E-03   -0.47608E-04 21227   0.373E-02    0.582E-02
RMM:   3    -0.671631773083E+03   -0.50676E-04   -0.82023E-05 14709   0.161E-02    0.510E-02
RMM:   4    -0.671631770853E+03    0.22301E-05   -0.30629E-05 14502   0.112E-02    0.278E-02
RMM:   5    -0.671631788823E+03   -0.17970E-04   -0.96870E-06 13321   0.526E-03    0.213E-02
RMM:   6    -0.671631803068E+03   -0.14245E-04   -0.47752E-06 12381   0.422E-03    0.148E-02
RMM:   7    -0.671631821526E+03   -0.18458E-04   -0.26694E-06 11687   0.315E-03    0.804E-03
RMM:   8    -0.671631834545E+03   -0.13019E-04   -0.14214E-07  6530   0.228E-03
 121 F= -.67163183E+03 E0= -.67121752E+03  d E =-.522321E-03  mag=    80.0785
       N       E                     dE             d eps       ncg     rms          rms(c)
DAV:   1    -0.671631852522E+03   -0.30997E-04   -0.15939E-02 27744   0.151E-01    0.792E-02
RMM:   2    -0.671631946030E+03   -0.93507E-04   -0.34786E-04 18943   0.318E-02    0.505E-02
RMM:   3    -0.671631987245E+03   -0.41216E-04   -0.59018E-05 14642   0.142E-02    0.458E-02
RMM:   4    -0.671631986079E+03    0.11660E-05   -0.22241E-05 14376   0.947E-03    0.255E-02
RMM:   5    -0.671632002644E+03   -0.16565E-04   -0.71550E-06 12853   0.467E-03    0.190E-02
RMM:   6    -0.671632017029E+03   -0.14385E-04   -0.36833E-06 12116   0.382E-03    0.117E-02
RMM:   7    -0.671632034643E+03   -0.17614E-04   -0.19964E-06 11059   0.291E-03    0.659E-03
RMM:   8    -0.671632046960E+03   -0.12317E-04   -0.94959E-08  6046   0.218E-03
 122 F= -.67163205E+03 E0= -.67121772E+03  d E =-.734735E-03  mag=    80.0788
       N       E                     dE             d eps       ncg     rms          rms(c)
DAV:   1    -0.671632224997E+03   -0.19035E-03   -0.27958E-02 27488   0.202E-01    0.103E-01
RMM:   2    -0.671632366152E+03   -0.14116E-03   -0.61212E-04 22786   0.426E-02    0.652E-02
RMM:   3    -0.671632435352E+03   -0.69199E-04   -0.10922E-04 14890   0.178E-02    0.570E-02
RMM:   4    -0.671632432028E+03    0.33239E-05   -0.38026E-05 14567   0.126E-02    0.329E-02
RMM:   5    -0.671632449968E+03   -0.17940E-04   -0.12689E-05 13649   0.588E-03    0.234E-02
RMM:   6    -0.671632465967E+03   -0.16000E-04   -0.65414E-06 12737   0.490E-03    0.167E-02
RMM:   7    -0.671632486127E+03   -0.20159E-04   -0.39741E-06 12203   0.369E-03    0.983E-03
RMM:   8    -0.671632500277E+03   -0.14151E-04   -0.92546E-07  8950   0.262E-03
 123 F= -.67163250E+03 E0= -.67121819E+03  d E =-.453318E-03  mag=    80.0791
       N       E                     dE             d eps       ncg     rms          rms(c)
DAV:   1    -0.671632509877E+03   -0.23750E-04   -0.21364E-03 26128   0.563E-02    0.286E-02
RMM:   2    -0.671632535425E+03   -0.25548E-04   -0.51949E-05 14662   0.124E-02    0.189E-02
RMM:   3    -0.671632549756E+03   -0.14331E-04   -0.91322E-06 14125   0.600E-03    0.172E-02
RMM:   4    -0.671632554863E+03   -0.51074E-05   -0.29137E-06 11455   0.359E-03    0.814E-03
RMM:   5    -0.671632571100E+03   -0.16237E-04   -0.38739E-07  6752   0.227E-03    0.640E-03
RMM:   6    -0.671632586703E+03   -0.15603E-04   -0.20913E-07  6242   0.214E-03    0.442E-03
RMM:   7    -0.671632601460E+03   -0.14756E-04   -0.50131E-08  5323   0.207E-03    0.222E-03
RMM:   8    -0.671632614101E+03   -0.12641E-04   -0.49415E-08  5131   0.207E-03
 124 F= -.67163261E+03 E0= -.67121831E+03  d E =-.567141E-03  mag=    80.0793
       N       E                     dE             d eps       ncg     rms          rms(c)
DAV:   1    -0.671632791673E+03   -0.19021E-03   -0.13394E-02 26976   0.140E-01    0.699E-02
RMM:   2    -0.671632857414E+03   -0.65741E-04   -0.29616E-04 17911   0.293E-02    0.446E-02
RMM:   3    -0.671632896976E+03   -0.39562E-04   -0.52249E-05 14608   0.134E-02    0.426E-02
RMM:   4    -0.671632895576E+03    0.14002E-05   -0.18081E-05 14212   0.848E-03    0.198E-02
RMM:   5    -0.671632908737E+03   -0.13161E-04   -0.59203E-06 12524   0.424E-03    0.177E-02
RMM:   6    -0.671632919937E+03   -0.11200E-04   -0.29117E-06 11686   0.344E-03    0.106E-02
RMM:   7    -0.671632933035E+03   -0.13098E-04   -0.13098E-06  9595   0.270E-03    0.592E-03
RMM:   8    -0.671632944582E+03   -0.11547E-04   -0.84881E-08  5868   0.218E-03
 125 F= -.67163294E+03 E0= -.67121868E+03  d E =-.330481E-03  mag=    80.0795
       N       E                     dE             d eps       ncg     rms          rms(c)
DAV:   1    -0.671632955209E+03   -0.22174E-04   -0.71499E-03 27056   0.103E-01    0.512E-02
RMM:   2    -0.671632995279E+03   -0.40070E-04   -0.16234E-04 15602   0.215E-02    0.339E-02
RMM:   3    -0.671633020603E+03   -0.25324E-04   -0.29348E-05 14569   0.105E-02    0.341E-02
RMM:   4    -0.671633021090E+03   -0.48662E-06   -0.10356E-05 13220   0.633E-03    0.151E-02
RMM:   5    -0.671633032746E+03   -0.11656E-04   -0.32272E-06 11533   0.341E-03    0.132E-02
RMM:   6    -0.671633043764E+03   -0.11018E-04   -0.13089E-06  9753   0.277E-03    0.706E-03
RMM:   7    -0.671633055819E+03   -0.12055E-04   -0.18948E-07  6484   0.232E-03    0.338E-03
RMM:   8    -0.671633066135E+03   -0.10317E-04   -0.44671E-08  5291   0.216E-03
 126 F= -.67163307E+03 E0= -.67121882E+03  d E =-.452035E-03  mag=    80.0797
       N       E                     dE             d eps       ncg     rms          rms(c)
DAV:   1    -0.671633231285E+03   -0.17547E-03   -0.92811E-03 26960   0.114E-01    0.609E-02
RMM:   2    -0.671633279644E+03   -0.48360E-04   -0.20558E-04 16348   0.239E-02    0.417E-02
RMM:   3    -0.671633311270E+03   -0.31626E-04   -0.40341E-05 14588   0.120E-02    0.401E-02
RMM:   4    -0.671633309786E+03    0.14845E-05   -0.13560E-05 13762   0.735E-03    0.155E-02
RMM:   5    -0.671633320685E+03   -0.10899E-04   -0.41332E-06 11925   0.369E-03    0.147E-02
RMM:   6    -0.671633330060E+03   -0.93752E-05   -0.18398E-06 10692   0.299E-03    0.921E-03
RMM:   7    -0.671633339558E+03   -0.94976E-05   -0.38786E-07  7195   0.241E-03    0.467E-03
RMM:   8    -0.671633347632E+03   -0.80746E-05   -0.39366E-08  5255   0.215E-03
 127 F= -.67163335E+03 E0= -.67121910E+03  d E =-.281497E-03  mag=    80.0799
       N       E                     dE             d eps       ncg     rms          rms(c)
DAV:   1    -0.671633304565E+03    0.34993E-04   -0.30804E-02 27072   0.207E-01    0.111E-01
RMM:   2    -0.671633444684E+03   -0.14012E-03   -0.66319E-04 22820   0.433E-02    0.725E-02
RMM:   3    -0.671633524785E+03   -0.80101E-04   -0.12736E-04 15121   0.191E-02    0.682E-02
RMM:   4    -0.671633513282E+03    0.11503E-04   -0.47529E-05 14565   0.140E-02    0.293E-02
RMM:   5    -0.671633524430E+03   -0.11148E-04   -0.15458E-05 13611   0.638E-03    0.251E-02
RMM:   6    -0.671633530572E+03   -0.61421E-05   -0.73382E-06 12925   0.509E-03    0.186E-02
RMM:   7    -0.671633537434E+03   -0.68625E-05   -0.42690E-06 12182   0.378E-03    0.119E-02
RMM:   8    -0.671633543352E+03   -0.59181E-05   -0.11057E-06  9276   0.268E-03
 128 F= -.67163354E+03 E0= -.67121931E+03  d E =-.477217E-03  mag=    80.0800
       N       E                     dE             d eps       ncg     rms          rms(c)
DAV:   1    -0.671633706948E+03   -0.16951E-03   -0.11908E-02 27280   0.127E-01    0.694E-02
RMM:   2    -0.671633761141E+03   -0.54193E-04   -0.26866E-04 17321   0.269E-02    0.478E-02
RMM:   3    -0.671633799110E+03   -0.37969E-04   -0.53717E-05 14673   0.132E-02    0.462E-02
RMM:   4    -0.671633794186E+03    0.49239E-05   -0.18907E-05 14089   0.866E-03    0.185E-02
RMM:   5    -0.671633800440E+03   -0.62543E-05   -0.61203E-06 12360   0.430E-03    0.168E-02
RMM:   6    -0.671633805501E+03   -0.50603E-05   -0.29691E-06 11379   0.347E-03    0.118E-02
RMM:   7    -0.671633810941E+03   -0.54403E-05   -0.13430E-06  9320   0.275E-03    0.622E-03
RMM:   8    -0.671633817417E+03   -0.64760E-05   -0.89435E-08  5728   0.217E-03
 129 F= -.67163382E+03 E0= -.67121959E+03  d E =-.274065E-03  mag=    80.0801
       N       E                     dE             d eps       ncg     rms          rms(c)
DAV:   1    -0.671633760110E+03    0.50832E-04   -0.30966E-02 26912   0.205E-01    0.112E-01
RMM:   2    -0.671633897172E+03   -0.13706E-03   -0.68602E-04 22538   0.432E-02    0.779E-02
RMM:   3    -0.671633984093E+03   -0.86921E-04   -0.14006E-04 15357   0.198E-02    0.781E-02
RMM:   4    -0.671633962665E+03    0.21428E-04   -0.51948E-05 14581   0.146E-02    0.328E-02
RMM:   5    -0.671633968595E+03   -0.59302E-05   -0.16578E-05 13714   0.649E-03    0.275E-02
RMM:   6    -0.671633968340E+03    0.25565E-06   -0.78017E-06 13042   0.526E-03    0.180E-02
RMM:   7    -0.671633971369E+03   -0.30296E-05   -0.48186E-06 12407   0.392E-03    0.112E-02
RMM:   8    -0.671633975293E+03   -0.39232E-05   -0.15004E-06 10062   0.287E-03
 130 F= -.67163398E+03 E0= -.67121976E+03  d E =-.431940E-03  mag=    80.0802
       N       E                     dE             d eps       ncg     rms          rms(c)
DAV:   1    -0.671634113796E+03   -0.14243E-03   -0.17194E-02 27264   0.156E-01    0.795E-02
RMM:   2    -0.671634187279E+03   -0.73483E-04   -0.40162E-04 19229   0.330E-02    0.598E-02
RMM:   3    -0.671634233398E+03   -0.46119E-04   -0.85858E-05 14807   0.163E-02    0.614E-02
RMM:   4    -0.671634222088E+03    0.11310E-04   -0.31146E-05 14482   0.112E-02    0.238E-02
RMM:   5    -0.671634226919E+03   -0.48303E-05   -0.93435E-06 12984   0.505E-03    0.213E-02
RMM:   6    -0.671634228458E+03   -0.15390E-05   -0.45760E-06 12230   0.412E-03    0.135E-02
RMM:   7    -0.671634231100E+03   -0.26422E-05   -0.26732E-06 11353   0.314E-03    0.824E-03
RMM:   8    -0.671634233844E+03   -0.27437E-05   -0.40490E-07  7268   0.238E-03
 131 F= -.67163423E+03 E0= -.67122002E+03  d E =-.258551E-03  mag=    80.0802
       N       E                     dE             d eps       ncg     rms          rms(c)
DAV:   1    -0.671634235961E+03   -0.48610E-05   -0.54317E-03 27056   0.878E-02    0.447E-02
RMM:   2    -0.671634260040E+03   -0.24079E-04   -0.13072E-04 15287   0.186E-02    0.339E-02
RMM:   3    -0.671634277714E+03   -0.17675E-04   -0.27383E-05 14601   0.976E-03    0.359E-02
RMM:   4    -0.671634274568E+03    0.31460E-05   -0.92695E-06 13159   0.604E-03    0.138E-02
RMM:   5    -0.671634277306E+03   -0.27376E-05   -0.25207E-06 10790   0.307E-03    0.122E-02
RMM:   6    -0.671634279259E+03   -0.19530E-05   -0.10382E-06  9193   0.265E-03    0.669E-03
RMM:   7    -0.671634281395E+03   -0.21365E-05   -0.23150E-07  6487   0.230E-03    0.352E-03
RMM:   8    -0.671634283601E+03   -0.22058E-05   -0.67230E-08  5349   0.216E-03
 132 F= -.67163428E+03 E0= -.67122007E+03  d E =-.308309E-03  mag=    80.0802
       N       E                     dE             d eps       ncg     rms          rms(c)
DAV:   1    -0.671634407911E+03   -0.12652E-03   -0.71486E-03 27136   0.105E-01    0.452E-02
RMM:   2    -0.671634438714E+03   -0.30803E-04   -0.18690E-04 15558   0.220E-02    0.404E-02
RMM:   3    -0.671634453115E+03   -0.14401E-04   -0.38793E-05 14651   0.115E-02    0.381E-02
RMM:   4    -0.671634450198E+03    0.29164E-05   -0.11446E-05 13905   0.668E-03    0.155E-02
RMM:   5    -0.671634453472E+03   -0.32741E-05   -0.33368E-06 11676   0.330E-03    0.129E-02
RMM:   6    -0.671634455773E+03   -0.23004E-05   -0.12532E-06  9466   0.271E-03    0.752E-03
RMM:   7    -0.671634458154E+03   -0.23809E-05   -0.45473E-07  7084   0.241E-03    0.482E-03
RMM:   8    -0.671634459783E+03   -0.16298E-05   -0.12733E-07  5610   0.223E-03
 133 F= -.67163446E+03 E0= -.67122024E+03  d E =-.176182E-03  mag=    80.0802
       N       E                     dE             d eps       ncg     rms          rms(c)
DAV:   1    -0.671634473832E+03   -0.15679E-04   -0.21177E-03 26128   0.571E-02    0.248E-02
RMM:   2    -0.671634484571E+03   -0.10739E-04   -0.58631E-05 14732   0.124E-02    0.221E-02
RMM:   3    -0.671634489649E+03   -0.50780E-05   -0.11819E-05 14307   0.650E-03    0.203E-02
RMM:   4    -0.671634489953E+03   -0.30315E-06   -0.36964E-06 11950   0.391E-03    0.871E-03
RMM:   5    -0.671634491938E+03   -0.19856E-05   -0.41827E-07  6612   0.222E-03    0.677E-03
RMM:   6    -0.671634494266E+03   -0.23278E-05   -0.15529E-07  5863   0.211E-03    0.530E-03
RMM:   7    -0.671634496485E+03   -0.22193E-05   -0.27432E-08  5142   0.204E-03    0.309E-03
RMM:   8    -0.671634498336E+03   -0.18505E-05   -0.76127E-08  5389   0.212E-03
 134 F= -.67163450E+03 E0= -.67122028E+03  d E =-.214735E-03  mag=    80.0802
       N       E                     dE             d eps       ncg     rms          rms(c)
DAV:   1    -0.671634627059E+03   -0.13057E-03   -0.71698E-03 27072   0.103E-01    0.435E-02
RMM:   2    -0.671634657139E+03   -0.30080E-04   -0.19246E-04 15531   0.216E-02    0.393E-02
RMM:   3    -0.671634665214E+03   -0.80755E-05   -0.38898E-05 14598   0.114E-02    0.363E-02
RMM:   4    -0.671634660753E+03    0.44610E-05   -0.11452E-05 13675   0.662E-03    0.156E-02
RMM:   5    -0.671634659948E+03    0.80513E-06   -0.35621E-06 11604   0.338E-03    0.139E-02
RMM:   6    -0.671634658409E+03    0.15395E-05   -0.14780E-06  9671   0.281E-03    0.785E-03
RMM:   7    -0.671634658275E+03    0.13364E-06   -0.47572E-07  7020   0.241E-03    0.443E-03
RMM:   8    -0.671634659183E+03   -0.90804E-06   -0.13631E-07  5590   0.221E-03
 135 F= -.67163466E+03 E0= -.67122046E+03  d E =-.160847E-03  mag=    80.0802
       N       E                     dE             d eps       ncg     rms          rms(c)
DAV:   1    -0.671634670816E+03   -0.12541E-04   -0.24989E-03 26448   0.610E-02    0.259E-02
RMM:   2    -0.671634682431E+03   -0.11615E-04   -0.70283E-05 14804   0.130E-02    0.237E-02
RMM:   3    -0.671634685152E+03   -0.27209E-05   -0.13864E-05 14269   0.691E-03    0.212E-02
RMM:   4    -0.671634683882E+03    0.12694E-05   -0.42231E-06 11967   0.412E-03    0.942E-03
RMM:   5    -0.671634683751E+03    0.13178E-06   -0.64260E-07  7090   0.235E-03    0.758E-03
RMM:   6    -0.671634683807E+03   -0.56811E-07   -0.28114E-07  6202   0.223E-03    0.575E-03
RMM:   7    -0.671634684209E+03   -0.40140E-06   -0.46336E-08  5204   0.211E-03    0.333E-03
RMM:   8    -0.671634685087E+03   -0.87870E-06   -0.87060E-08  5362   0.217E-03
 136 F= -.67163469E+03 E0= -.67122049E+03  d E =-.186752E-03  mag=    80.0801
       N       E                     dE             d eps       ncg     rms          rms(c)
DAV:   1    -0.671634789665E+03   -0.10546E-03   -0.41764E-03 26608   0.757E-02    0.344E-02
RMM:   2    -0.671634806677E+03   -0.17012E-04   -0.11579E-04 15018   0.163E-02    0.308E-02
RMM:   3    -0.671634810951E+03   -0.42734E-05   -0.23004E-05 14479   0.859E-03    0.265E-02
RMM:   4    -0.671634809061E+03    0.18897E-05   -0.68656E-06 12553   0.510E-03    0.118E-02
RMM:   5    -0.671634809498E+03   -0.43726E-06   -0.17333E-06  9302   0.273E-03    0.888E-03
RMM:   6    -0.671634809949E+03   -0.45029E-06   -0.45719E-07  6692   0.237E-03    0.718E-03
RMM:   7    -0.671634810615E+03   -0.66683E-06   -0.14884E-07  5443   0.223E-03    0.456E-03
RMM:   8    -0.671634811675E+03   -0.10598E-05   -0.99077E-08  5235   0.220E-03
 137 F= -.67163481E+03 E0= -.67122062E+03  d E =-.126588E-03  mag=    80.0801
       N       E                     dE             d eps       ncg     rms          rms(c)
DAV:   1    -0.671634829615E+03   -0.18999E-04   -0.11115E-02 27120   0.123E-01    0.561E-02
RMM:   2    -0.671634874321E+03   -0.44706E-04   -0.30182E-04 16810   0.264E-02    0.508E-02
RMM:   3    -0.671634885344E+03   -0.11023E-04   -0.63151E-05 14685   0.139E-02    0.434E-02
RMM:   4    -0.671634879747E+03    0.55963E-05   -0.19764E-05 14065   0.861E-03    0.200E-02
RMM:   5    -0.671634879444E+03    0.30361E-06   -0.62226E-06 12185   0.426E-03    0.151E-02
RMM:   6    -0.671634878792E+03    0.65193E-06   -0.30746E-06 10993   0.336E-03    0.125E-02
RMM:   7    -0.671634878568E+03    0.22352E-06   -0.15905E-06  9311   0.281E-03    0.718E-03
RMM:   8    -0.671634879250E+03   -0.68126E-06   -0.24405E-07  6078   0.231E-03
 138 F= -.67163488E+03 E0= -.67122069E+03  d E =-.194162E-03  mag=    80.0800
       N       E                     dE             d eps       ncg     rms          rms(c)
DAV:   1    -0.671634979877E+03   -0.10131E-03   -0.43190E-03 26832   0.794E-02    0.330E-02
RMM:   2    -0.671634998419E+03   -0.18543E-04   -0.12412E-04 15037   0.172E-02    0.298E-02
RMM:   3    -0.671635003821E+03   -0.54021E-05   -0.23173E-05 14521   0.881E-03    0.250E-02
RMM:   4    -0.671635003401E+03    0.42003E-06   -0.71880E-06 12827   0.521E-03    0.131E-02
RMM:   5    -0.671635004264E+03   -0.86240E-06   -0.23148E-06 10095   0.300E-03    0.926E-03
RMM:   6    -0.671635005207E+03   -0.94296E-06   -0.97006E-07  8122   0.258E-03    0.683E-03
RMM:   7    -0.671635006196E+03   -0.98906E-06   -0.35442E-07  6548   0.230E-03    0.381E-03
RMM:   8    -0.671635007480E+03   -0.12838E-05   -0.81871E-08  5446   0.214E-03
 139 F= -.67163501E+03 E0= -.67122083E+03  d E =-.128230E-03  mag=    80.0799
