 ----------------------------------------------------
    OOO  PPPP  EEEEE N   N M   M PPPP
   O   O P   P E     NN  N MM MM P   P
   O   O PPPP  EEEEE N N N M M M PPPP   -- VERSION
   O   O P     E     N  NN M   M P
    OOO  P     EEEEE N   N M   M P
 ----------------------------------------------------
 running   16 mpi-ranks, with    4 threads/rank
 distrk:  each k-point on   16 cores,    1 groups
 distr:  one band on    1 cores,   16 groups
 vasp.6.2.1 16May21 (build Jul 28 2021 23:24:15) complex                        
  
 POSCAR found type information on POSCAR H IrO 
 POSCAR found :  3 types and     104 ions
 scaLAPACK will be used
 -----------------------------------------------------------------------------
|                                                                             |
|           W    W    AA    RRRRR   N    N  II  N    N   GGGG   !!!           |
|           W    W   A  A   R    R  NN   N  II  NN   N  G    G  !!!           |
|           W    W  A    A  R    R  N N  N  II  N N  N  G       !!!           |
|           W WW W  AAAAAA  RRRRR   N  N N  II  N  N N  G  GGG   !            |
|           WW  WW  A    A  R   R   N   NN  II  N   NN  G    G                |
|           W    W  A    A  R    R  N    N  II  N    N   GGGG   !!!           |
|                                                                             |
|     The real-space projection scheme for the treatment of the non-local     |
|     pseudopotentials has been switched on but on file POTCAR I have not     |
|     found any entries, signalling me that you have never performed a        |
|     real-space optimization of all non-local projectors! BE WARNED that     |
|     a calculation using the real-space projection scheme together with      |
|     non-local projectors which were not real-space optimized (according     |
|     to the plane-wave cutoff used in this calculation) might give more      |
|     or less inaccurate results. I hope you know what you are doing.         |
|                                                                             |
 -----------------------------------------------------------------------------

 LDA part: xc-table for Pade appr. of Perdew
 POSCAR, INCAR and KPOINTS ok, starting setup
 FFT: planning ...
 WAVECAR not read
 WARNING: random wavefunctions but no delay for mixing, default for NELMDL
 entering main loop
       N       E                     dE             d eps       ncg     rms          rms(c)
DAV:   1     0.759603841872E+04    0.75960E+04   -0.29776E+05 15104   0.126E+03
DAV:   2     0.597549499600E+03   -0.69985E+04   -0.63135E+04 16016   0.373E+02
DAV:   3    -0.762714343026E+03   -0.13603E+04   -0.13092E+04 18576   0.165E+02
DAV:   4    -0.836796066345E+03   -0.74082E+02   -0.72261E+02 20288   0.432E+01
DAV:   5    -0.838458092177E+03   -0.16620E+01   -0.16411E+01 19440   0.606E+00    0.188E+02
RMM:   6    -0.681225906622E+03    0.15723E+03   -0.60582E+02 14904   0.390E+01    0.158E+02
RMM:   7    -0.160330258527E+04   -0.92208E+03   -0.44765E+02 16763   0.263E+01    0.401E+02
RMM:   8    -0.134044731840E+04    0.26286E+03   -0.10113E+02 18851   0.107E+01    0.356E+02
RMM:   9    -0.133108901699E+04    0.93583E+01   -0.73644E+01 15621   0.123E+01    0.346E+02
RMM:  10    -0.788438376800E+03    0.54265E+03   -0.27053E+02 19747   0.206E+01    0.237E+02
RMM:  11    -0.856461486187E+03   -0.68023E+02   -0.51798E+01 16423   0.915E+00    0.228E+02
RMM:  12    -0.938918562445E+03   -0.82457E+02   -0.10572E+02 18436   0.147E+01    0.237E+02
RMM:  13    -0.982597486744E+03   -0.43679E+02   -0.12721E+02 18906   0.172E+01    0.209E+02
RMM:  14    -0.776592213591E+03    0.20601E+03   -0.16112E+01 15028   0.636E+00    0.176E+02
RMM:  15    -0.711590978945E+03    0.65001E+02   -0.14797E+01 15253   0.611E+00    0.151E+02
RMM:  16    -0.621279861305E+03    0.90311E+02   -0.25565E+01 17207   0.633E+00    0.999E+01
RMM:  17    -0.630752582958E+03   -0.94727E+01   -0.58823E+00 15101   0.408E+00    0.982E+01
RMM:  18    -0.627272823999E+03    0.34798E+01   -0.20053E+00 16799   0.208E+00    0.967E+01
RMM:  19    -0.633048455913E+03   -0.57756E+01   -0.61640E-01 15516   0.117E+00    0.933E+01
RMM:  20    -0.632120105040E+03    0.92835E+00   -0.73821E-01 15368   0.143E+00    0.869E+01
RMM:  21    -0.640802585310E+03   -0.86825E+01   -0.33535E+00 19351   0.280E+00    0.740E+01
RMM:  22    -0.655888311124E+03   -0.15086E+02   -0.50370E+00 20281   0.317E+00    0.603E+01
RMM:  23    -0.670593880505E+03   -0.14706E+02   -0.12739E+01 23107   0.488E+00    0.472E+01
RMM:  24    -0.673172749004E+03   -0.25789E+01   -0.16789E+00 17838   0.201E+00    0.461E+01
RMM:  25    -0.674513605377E+03   -0.13409E+01   -0.49145E-01 15161   0.113E+00    0.454E+01
RMM:  26    -0.676591511911E+03   -0.20779E+01   -0.37531E+00 21094   0.284E+00    0.518E+01
RMM:  27    -0.676063099693E+03    0.52841E+00   -0.50684E-01 15885   0.110E+00    0.501E+01
RMM:  28    -0.676316181281E+03   -0.25308E+00   -0.19773E-01 15938   0.681E-01    0.493E+01
RMM:  29    -0.676367883846E+03   -0.51703E-01   -0.79782E-02 15973   0.408E-01    0.484E+01
RMM:  30    -0.676823118861E+03   -0.45524E+00   -0.12589E+00 21184   0.147E+00    0.457E+01
RMM:  31    -0.680230391602E+03   -0.34073E+01   -0.22116E+00 22896   0.203E+00    0.470E+01
RMM:  32    -0.678295711899E+03    0.19347E+01   -0.22376E-01 17095   0.812E-01    0.416E+01
RMM:  33    -0.679875540991E+03   -0.15798E+01   -0.80808E-01 20881   0.132E+00    0.329E+01
RMM:  34    -0.682417070791E+03   -0.25415E+01   -0.25627E-01 18409   0.740E-01    0.322E+01
RMM:  35    -0.682858022582E+03   -0.44095E+00   -0.40056E-01 19677   0.964E-01    0.233E+01
RMM:  36    -0.683453753584E+03   -0.59573E+00   -0.81436E-01 22047   0.134E+00    0.100E+01
RMM:  37    -0.691305159159E+03   -0.78514E+01   -0.68633E-01 20240   0.113E+00    0.117E+01
RMM:  38    -0.693527316036E+03   -0.22222E+01   -0.52521E-01 20083   0.978E-01    0.140E+01
RMM:  39    -0.690854996008E+03    0.26723E+01   -0.30151E-01 19146   0.796E-01    0.126E+01
RMM:  40    -0.692961060562E+03   -0.21061E+01   -0.27324E-01 18860   0.728E-01    0.146E+01
RMM:  41    -0.694514898962E+03   -0.15538E+01   -0.22874E-01 18583   0.647E-01    0.153E+01
RMM:  42    -0.695318113983E+03   -0.80322E+00   -0.27728E-01 18986   0.735E-01    0.164E+01
RMM:  43    -0.695744666562E+03   -0.42655E+00   -0.10818E-01 16282   0.476E-01    0.165E+01
RMM:  44    -0.698050368970E+03   -0.23057E+01   -0.61155E-01 21160   0.986E-01    0.212E+01
RMM:  45    -0.698665435365E+03   -0.61507E+00   -0.21628E-01 18637   0.589E-01    0.243E+01
RMM:  46    -0.698591504178E+03    0.73931E-01   -0.21909E-02 15014   0.236E-01    0.238E+01
RMM:  47    -0.698740810274E+03   -0.14931E+00   -0.45211E-02 16543   0.299E-01    0.218E+01
RMM:  48    -0.699042833375E+03   -0.30202E+00   -0.10631E-01 19222   0.415E-01    0.191E+01
RMM:  49    -0.699261402055E+03   -0.21857E+00   -0.66234E-02 18169   0.329E-01    0.163E+01
RMM:  50    -0.699796477012E+03   -0.53507E+00   -0.86111E-02 19099   0.381E-01    0.136E+01
RMM:  51    -0.700693767586E+03   -0.89729E+00   -0.55849E-01 24993   0.985E-01    0.676E+00
RMM:  52    -0.701690940994E+03   -0.99717E+00   -0.13541E-01 19670   0.496E-01    0.548E+00
RMM:  53    -0.702258116126E+03   -0.56718E+00   -0.51560E-02 17678   0.329E-01    0.431E+00
RMM:  54    -0.701987968667E+03    0.27015E+00   -0.24524E-02 15871   0.243E-01    0.369E+00
RMM:  55    -0.701812192062E+03    0.17578E+00   -0.13511E-02 15364   0.172E-01    0.331E+00
RMM:  56    -0.701711737350E+03    0.10045E+00   -0.41309E-02 18908   0.292E-01    0.396E+00
RMM:  57    -0.702207217274E+03   -0.49548E+00   -0.32528E-02 17604   0.245E-01    0.294E+00
RMM:  58    -0.702401342004E+03   -0.19412E+00   -0.17686E-02 16301   0.182E-01    0.240E+00
RMM:  59    -0.702784228697E+03   -0.38289E+00   -0.17792E-02 17106   0.183E-01    0.203E+00
RMM:  60    -0.703252484230E+03   -0.46826E+00   -0.14683E-02 16511   0.168E-01    0.133E+00
RMM:  61    -0.703426012726E+03   -0.17353E+00   -0.15954E-02 17299   0.163E-01    0.957E-01
RMM:  62    -0.703546147493E+03   -0.12013E+00   -0.49010E-03 15407   0.988E-02    0.758E-01
RMM:  63    -0.703633237783E+03   -0.87090E-01   -0.38667E-03 15326   0.826E-02    0.701E-01
RMM:  64    -0.703717281600E+03   -0.84044E-01   -0.32379E-03 15325   0.722E-02    0.613E-01
RMM:  65    -0.703844362437E+03   -0.12708E+00   -0.34302E-03 15917   0.733E-02    0.535E-01
RMM:  66    -0.704023967785E+03   -0.17961E+00   -0.40989E-03 16699   0.721E-02    0.615E-01
RMM:  67    -0.704114852069E+03   -0.90884E-01   -0.90398E-04 13953   0.460E-02    0.500E-01
RMM:  68    -0.704185925604E+03   -0.71074E-01   -0.45659E-04 12437   0.352E-02    0.367E-01
RMM:  69    -0.704294542591E+03   -0.10862E+00   -0.64843E-04 12887   0.361E-02    0.253E-01
RMM:  70    -0.704370467412E+03   -0.75925E-01   -0.42091E-04 11582   0.285E-02    0.150E-01
RMM:  71    -0.704411520833E+03   -0.41053E-01   -0.25000E-04  9932   0.239E-02    0.144E-01
RMM:  72    -0.704430638093E+03   -0.19117E-01   -0.11988E-04  9029   0.193E-02    0.860E-02
RMM:  73    -0.704433712734E+03   -0.30746E-02   -0.46969E-05  8825   0.126E-02    0.444E-02
RMM:  74    -0.704435466807E+03   -0.17541E-02   -0.20482E-05  8579   0.856E-03    0.424E-02
RMM:  75    -0.704436332249E+03   -0.86544E-03   -0.10406E-05  8090   0.602E-03    0.278E-02
RMM:  76    -0.704436400728E+03   -0.68478E-04   -0.57577E-06  7069   0.464E-03
   1 F= -.70443640E+03 E0= -.70382170E+03  d E =-.704436E+03  mag=     1.9355
 curvature:   0.00 expect dE= 0.000E+00 dE for cont linesearch  0.000E+00
 trial: gam= 0.00000 g(F)=  0.224E+02 g(S)=  0.000E+00 ort = 0.000E+00 (trialstep = 0.100E+01)
 search vector abs. value=  0.224E+02
 bond charge predicted
       N       E                     dE             d eps       ncg     rms          rms(c)
DAV:   1    -0.656918134595E+03    0.47518E+02   -0.40233E+03 15488   0.848E+01    0.205E+01
RMM:   2    -0.700224172736E+03   -0.43306E+02   -0.32292E+02 15359   0.197E+01    0.552E+01
RMM:   3    -0.708519150606E+03   -0.82950E+01   -0.54720E+01 15791   0.832E+00    0.450E+01
RMM:   4    -0.693609254996E+03    0.14910E+02   -0.54992E+00 15136   0.398E+00    0.327E+01
RMM:   5    -0.691429441084E+03    0.21798E+01   -0.20552E+00 15095   0.238E+00    0.326E+01
RMM:   6    -0.690164305992E+03    0.12651E+01   -0.12144E+00 15262   0.159E+00    0.275E+01
RMM:   7    -0.688023621180E+03    0.21407E+01   -0.53007E-01 15174   0.124E+00    0.205E+01
RMM:   8    -0.688975520828E+03   -0.95190E+00   -0.65970E-01 15981   0.872E-01    0.248E+01
RMM:   9    -0.690753444444E+03   -0.17779E+01   -0.71544E-01 17376   0.106E+00    0.264E+01
RMM:  10    -0.686958461998E+03    0.37950E+01   -0.28512E+00 19925   0.181E+00    0.112E+01
RMM:  11    -0.686427629531E+03    0.53083E+00   -0.10080E-01 14918   0.575E-01    0.781E+00
RMM:  12    -0.686388794691E+03    0.38835E-01   -0.26854E-02 15156   0.322E-01    0.784E+00
RMM:  13    -0.686279189488E+03    0.10961E+00   -0.76282E-02 16066   0.342E-01    0.624E+00
RMM:  14    -0.686306611947E+03   -0.27422E-01   -0.80291E-02 17137   0.338E-01    0.480E+00
RMM:  15    -0.686314247281E+03   -0.76353E-02   -0.66382E-03 14946   0.147E-01    0.475E+00
RMM:  16    -0.686008575302E+03    0.30567E+00   -0.74852E-02 19024   0.299E-01    0.328E+00
RMM:  17    -0.685862059748E+03    0.14652E+00   -0.51087E-02 19864   0.303E-01    0.252E+00
RMM:  18    -0.685842148222E+03    0.19912E-01   -0.11023E-02 16363   0.153E-01    0.207E+00
RMM:  19    -0.685860013774E+03   -0.17866E-01   -0.85094E-03 16247   0.127E-01    0.192E+00
RMM:  20    -0.685888325929E+03   -0.28312E-01   -0.11930E-02 17416   0.142E-01    0.178E+00
RMM:  21    -0.685891141992E+03   -0.28161E-02   -0.88265E-04 14075   0.524E-02    0.181E+00
RMM:  22    -0.685889531797E+03    0.16102E-02   -0.11207E-03 13894   0.487E-02    0.177E+00
RMM:  23    -0.685894286242E+03   -0.47544E-02   -0.20427E-02 22536   0.174E-01    0.147E+00
RMM:  24    -0.685907059882E+03   -0.12774E-01   -0.11469E-02 20526   0.127E-01    0.117E+00
RMM:  25    -0.685922130422E+03   -0.15071E-01   -0.12498E-03 14373   0.603E-02    0.101E+00
RMM:  26    -0.685943920669E+03   -0.21790E-01   -0.10584E-03 14033   0.499E-02    0.712E-01
RMM:  27    -0.685975501266E+03   -0.31581E-01   -0.21989E-03 15521   0.633E-02    0.388E-01
RMM:  28    -0.686005131218E+03   -0.29630E-01   -0.86393E-04 13720   0.437E-02    0.308E-01
RMM:  29    -0.686049043182E+03   -0.43912E-01   -0.91931E-04 13297   0.412E-02    0.281E-01
RMM:  30    -0.686069465810E+03   -0.20423E-01   -0.45000E-04 11282   0.301E-02    0.250E-01
RMM:  31    -0.686086668839E+03   -0.17203E-01   -0.50247E-04 11321   0.295E-02    0.221E-01
RMM:  32    -0.686114127594E+03   -0.27459E-01   -0.62410E-04 11512   0.296E-02    0.251E-01
RMM:  33    -0.686143619542E+03   -0.29492E-01   -0.87583E-04 11565   0.306E-02    0.269E-01
RMM:  34    -0.686176131404E+03   -0.32512E-01   -0.13095E-03 12060   0.322E-02    0.327E-01
RMM:  35    -0.686192289635E+03   -0.16158E-01   -0.22789E-04  9653   0.194E-02    0.298E-01
RMM:  36    -0.686210088420E+03   -0.17799E-01   -0.17112E-04  9249   0.162E-02    0.225E-01
RMM:  37    -0.686236057068E+03   -0.25969E-01   -0.34268E-04  9939   0.199E-02    0.115E-01
RMM:  38    -0.686253196467E+03   -0.17139E-01   -0.11508E-04  9031   0.160E-02    0.808E-02
RMM:  39    -0.686270097273E+03   -0.16901E-01   -0.10424E-04  8917   0.152E-02    0.103E-01
RMM:  40    -0.686285816655E+03   -0.15719E-01   -0.60257E-05  8588   0.119E-02    0.974E-02
RMM:  41    -0.686304732956E+03   -0.18916E-01   -0.78158E-05  8714   0.107E-02    0.112E-01
RMM:  42    -0.686323626969E+03   -0.18894E-01   -0.10809E-04  8906   0.111E-02    0.128E-01
RMM:  43    -0.686333349432E+03   -0.97225E-02   -0.52678E-05  8029   0.874E-03    0.891E-02
RMM:  44    -0.686340370253E+03   -0.70208E-02   -0.44833E-05  8038   0.788E-03    0.557E-02
RMM:  45    -0.686346992455E+03   -0.66222E-02   -0.71376E-05  8473   0.908E-03    0.341E-02
RMM:  46    -0.686349201834E+03   -0.22094E-02   -0.30843E-05  7043   0.698E-03    0.208E-02
RMM:  47    -0.686349942475E+03   -0.74064E-03   -0.12016E-05  5852   0.514E-03    0.206E-02
RMM:  48    -0.686350735423E+03   -0.79295E-03   -0.89315E-06  4841   0.412E-03    0.149E-02
RMM:  49    -0.686351434398E+03   -0.69897E-03   -0.85503E-06  4960   0.405E-03    0.896E-03
RMM:  50    -0.686351914673E+03   -0.48028E-03   -0.61796E-06  4627   0.381E-03    0.644E-03
RMM:  51    -0.686352436849E+03   -0.52218E-03   -0.67364E-06  4790   0.376E-03    0.635E-03
RMM:  52    -0.686352370781E+03    0.66069E-04   -0.13972E-06  3227   0.319E-03
   2 F= -.68635237E+03 E0= -.68573406E+03  d E =0.180840E+02  mag=     0.0011
 trial-energy change:   18.084030  1 .order   10.709254  -22.355067   43.773576
 step:   0.2224(harm=  0.3381)  dis= 0.09987  next Energy=  -706.840690 (dE=-0.240E+01)
 bond charge predicted
       N       E                     dE             d eps       ncg     rms          rms(c)
DAV:   1    -0.694651094581E+03   -0.82987E+01   -0.28512E+03 14880   0.630E+01    0.246E+01
RMM:   2    -0.785119487382E+03   -0.90468E+02   -0.27676E+02 15058   0.156E+01    0.155E+02
RMM:   3    -0.753279780761E+03    0.31840E+02   -0.55459E+01 16133   0.739E+00    0.685E+01
RMM:   4    -0.720478712369E+03    0.32801E+02   -0.10788E+01 14999   0.426E+00    0.394E+01
RMM:   5    -0.718889841407E+03    0.15889E+01   -0.45691E+00 15092   0.358E+00    0.375E+01
RMM:   6    -0.711213697462E+03    0.76761E+01   -0.19192E+00 15494   0.190E+00    0.228E+01
RMM:   7    -0.710154990647E+03    0.10587E+01   -0.12456E+00 16060   0.142E+00    0.221E+01
RMM:   8    -0.708445853797E+03    0.17091E+01   -0.70735E-01 15948   0.113E+00    0.183E+01
RMM:   9    -0.707260539044E+03    0.11853E+01   -0.68730E-01 16691   0.109E+00    0.152E+01
RMM:  10    -0.706825817116E+03    0.43472E+00   -0.23914E+00 19157   0.155E+00    0.107E+01
RMM:  11    -0.706492257475E+03    0.33356E+00   -0.20529E-01 15185   0.709E-01    0.102E+01
RMM:  12    -0.706355672213E+03    0.13659E+00   -0.10511E-01 15342   0.520E-01    0.914E+00
RMM:  13    -0.706303313690E+03    0.52359E-01   -0.86943E-02 15622   0.414E-01    0.815E+00
RMM:  14    -0.706302056230E+03    0.12575E-02   -0.17292E-02 15361   0.228E-01    0.899E+00
RMM:  15    -0.706292328684E+03    0.97275E-02   -0.12926E-02 15410   0.166E-01    0.835E+00
RMM:  16    -0.706268148747E+03    0.24180E-01   -0.97799E-03 15711   0.138E-01    0.766E+00
RMM:  17    -0.706260258676E+03    0.78901E-02   -0.10754E-02 16398   0.128E-01    0.792E+00
RMM:  18    -0.706255972691E+03    0.42860E-02   -0.23534E-03 14636   0.858E-02    0.766E+00
RMM:  19    -0.706248953635E+03    0.70191E-02   -0.18029E-03 14444   0.678E-02    0.716E+00
RMM:  20    -0.706246639178E+03    0.23145E-02   -0.15434E-03 14483   0.582E-02    0.680E+00
RMM:  21    -0.706246199790E+03    0.43939E-03   -0.39747E-04 11725   0.346E-02    0.673E+00
RMM:  22    -0.706246379946E+03   -0.18016E-03   -0.10157E-04  9001   0.177E-02    0.676E+00
RMM:  23    -0.706246460912E+03   -0.80966E-04   -0.32098E-05  8480   0.110E-02
   3 F= -.70624646E+03 E0= -.70560487E+03  d E =-.181006E+01  mag=    -0.0045
 curvature:  -0.16 expect dE=-0.596E+00 dE for cont linesearch -0.268E-02
 trial: gam= 0.18977 g(F)=  0.364E+01 g(S)=  0.000E+00 ort =-0.605E+00 (trialstep = 0.844E+00)
 search vector abs. value=  0.421E+01
 bond charge predicted
       N       E                     dE             d eps       ncg     rms          rms(c)
DAV:   1    -0.700177117541E+03    0.60693E+01   -0.73098E+02 15056   0.383E+01    0.111E+01
RMM:   2    -0.713695895152E+03   -0.13519E+02   -0.19170E+01 14854   0.704E+00    0.400E+01
RMM:   3    -0.708556579473E+03    0.51393E+01   -0.43058E+00 15062   0.332E+00    0.336E+01
RMM:   4    -0.703689990687E+03    0.48666E+01   -0.11381E+00 15496   0.194E+00    0.166E+01
RMM:   5    -0.703155116658E+03    0.53487E+00   -0.38973E-01 15066   0.106E+00    0.150E+01
RMM:   6    -0.701768106445E+03    0.13870E+01   -0.55953E-01 15977   0.114E+00    0.673E+00
RMM:   7    -0.701636241080E+03    0.13187E+00   -0.37037E-01 15665   0.961E-01    0.488E+00
RMM:   8    -0.701631553240E+03    0.46878E-02   -0.99664E-02 14860   0.608E-01    0.560E+00
RMM:   9    -0.701619147772E+03    0.12405E-01   -0.41113E-02 15011   0.363E-01    0.460E+00
RMM:  10    -0.701531096844E+03    0.88051E-01   -0.17433E-02 15079   0.230E-01    0.291E+00
RMM:  11    -0.701505661709E+03    0.25435E-01   -0.91861E-03 14904   0.181E-01    0.214E+00
RMM:  12    -0.701494876097E+03    0.10786E-01   -0.65963E-03 15110   0.135E-01    0.148E+00
RMM:  13    -0.701488479963E+03    0.63961E-02   -0.31962E-03 14956   0.977E-02    0.101E+00
RMM:  14    -0.701486471027E+03    0.20089E-02   -0.13156E-03 14468   0.550E-02    0.812E-01
RMM:  15    -0.701485356268E+03    0.11148E-02   -0.52687E-04 12515   0.337E-02    0.685E-01
RMM:  16    -0.701483546275E+03    0.18100E-02   -0.72605E-04 12465   0.370E-02    0.439E-01
RMM:  17    -0.701482526527E+03    0.10197E-02   -0.40886E-04 11649   0.300E-02    0.187E-01
RMM:  18    -0.701482498013E+03    0.28514E-04   -0.17171E-04  9245   0.219E-02
   4 F= -.70148250E+03 E0= -.70084148E+03  d E =0.476396E+01  mag=    -0.0048
 trial-energy change:    4.763963  1 .order    3.465786   -2.974801    9.906373
 step:   0.1290(harm=  0.1950)  dis= 0.01030  next Energy=  -706.468970 (dE=-0.223E+00)
 bond charge predicted
       N       E                     dE             d eps       ncg     rms          rms(c)
DAV:   1    -0.705811806986E+03   -0.43293E+01   -0.52089E+02 14944   0.325E+01    0.128E+01
RMM:   2    -0.737555754440E+03   -0.31744E+02   -0.29959E+01 14971   0.718E+00    0.581E+01
RMM:   3    -0.713272514259E+03    0.24283E+02   -0.53548E+00 15123   0.393E+00    0.240E+01
RMM:   4    -0.709580930906E+03    0.36916E+01   -0.15965E+00 14852   0.231E+00    0.165E+01
RMM:   5    -0.706905535167E+03    0.26754E+01   -0.13525E+00 15334   0.157E+00    0.585E+00
RMM:   6    -0.706710540256E+03    0.19499E+00   -0.66454E-01 16139   0.101E+00    0.617E+00
RMM:   7    -0.706534790317E+03    0.17575E+00   -0.22241E-01 16569   0.571E-01    0.372E+00
RMM:   8    -0.706523689284E+03    0.11101E-01   -0.13587E-01 15544   0.497E-01    0.346E+00
RMM:   9    -0.706526109851E+03   -0.24206E-02   -0.65853E-02 14993   0.439E-01    0.356E+00
RMM:  10    -0.706519066533E+03    0.70433E-02   -0.63533E-02 15848   0.361E-01    0.337E+00
RMM:  11    -0.706459736691E+03    0.59330E-01   -0.22551E-02 14860   0.283E-01    0.115E+00
RMM:  12    -0.706459171973E+03    0.56472E-03   -0.63955E-03 14890   0.144E-01    0.110E+00
RMM:  13    -0.706455501743E+03    0.36702E-02   -0.24486E-03 14690   0.806E-02    0.671E-01
RMM:  14    -0.706454003918E+03    0.14978E-02   -0.16812E-03 14072   0.618E-02    0.520E-01
RMM:  15    -0.706452827700E+03    0.11762E-02   -0.10890E-03 13940   0.469E-02    0.238E-01
RMM:  16    -0.706452440607E+03    0.38709E-03   -0.48485E-04 12167   0.333E-02    0.217E-01
RMM:  17    -0.706452036106E+03    0.40450E-03   -0.17366E-04  9482   0.225E-02    0.201E-01
RMM:  18    -0.706452017657E+03    0.18449E-04   -0.41949E-05  8652   0.128E-02
   5 F= -.70645202E+03 E0= -.70581131E+03  d E =-.205557E+00  mag=    -0.0116
 curvature:  -0.12 expect dE=-0.391E+00 dE for cont linesearch -0.988E-03
 trial: gam= 1.01579 g(F)=  0.338E+01 g(S)=  0.000E+00 ort =-0.190E+00 (trialstep = 0.402E+00)
 search vector abs. value=  0.735E+01
 bond charge predicted
       N       E                     dE             d eps       ncg     rms          rms(c)
DAV:   1    -0.705018343506E+03    0.14337E+01   -0.25258E+02 15024   0.219E+01    0.419E+00
RMM:   2    -0.707295167898E+03   -0.22768E+01   -0.48721E+00 14848   0.432E+00    0.179E+01
RMM:   3    -0.705994015891E+03    0.13012E+01   -0.13156E+00 15838   0.182E+00    0.973E+00
RMM:   4    -0.705602222936E+03    0.39179E+00   -0.30156E-01 15526   0.997E-01    0.419E+00
RMM:   5    -0.705509629628E+03    0.92593E-01   -0.96520E-02 14902   0.578E-01    0.331E+00
RMM:   6    -0.705481600230E+03    0.28029E-01   -0.70535E-02 14966   0.428E-01    0.207E+00
RMM:   7    -0.705485272141E+03   -0.36719E-02   -0.39265E-02 15275   0.305E-01    0.240E+00
RMM:   8    -0.705483376567E+03    0.18956E-02   -0.32993E-02 15725   0.273E-01    0.222E+00
RMM:   9    -0.705490088929E+03   -0.67124E-02   -0.10536E-02 14917   0.189E-01    0.220E+00
RMM:  10    -0.705469570364E+03    0.20519E-01   -0.46473E-03 15422   0.117E-01    0.151E+00
RMM:  11    -0.705459384717E+03    0.10186E-01   -0.18825E-03 14493   0.713E-02    0.960E-01
RMM:  12    -0.705455747202E+03    0.36375E-02   -0.71741E-04 13231   0.434E-02    0.791E-01
RMM:  13    -0.705454843614E+03    0.90359E-03   -0.22866E-04 10017   0.232E-02    0.784E-01
RMM:  14    -0.705457208719E+03   -0.23651E-02   -0.13396E-04  9240   0.193E-02    0.816E-01
RMM:  15    -0.705459672364E+03   -0.24636E-02   -0.30706E-04 10233   0.266E-02    0.842E-01
RMM:  16    -0.705465673322E+03   -0.60010E-02   -0.35168E-03 16440   0.697E-02    0.696E-01
RMM:  17    -0.705466230083E+03   -0.55676E-03   -0.11056E-03 13345   0.423E-02    0.531E-01
RMM:  18    -0.705466711065E+03   -0.48098E-03   -0.12628E-04  9128   0.238E-02    0.521E-01
RMM:  19    -0.705466716181E+03   -0.51161E-05   -0.69175E-05  8811   0.163E-02
   6 F= -.70546672E+03 E0= -.70482523E+03  d E =0.985301E+00  mag=    -0.0118
 trial-energy change:    0.985301  1 .order    0.484305   -1.283880    2.252490
 step:   0.0877(harm=  0.1460)  dis= 0.01248  next Energy=  -706.586825 (dE=-0.135E+00)
 bond charge predicted
       N       E                     dE             d eps       ncg     rms          rms(c)
DAV:   1    -0.706288989717E+03   -0.82228E+00   -0.15410E+02 15104   0.171E+01    0.360E+00
RMM:   2    -0.707040067503E+03   -0.75108E+00   -0.30745E+00 14848   0.338E+00    0.895E+00
RMM:   3    -0.707734831155E+03   -0.69476E+00   -0.77519E-01 15965   0.140E+00    0.141E+01
RMM:   4    -0.706626448987E+03    0.11084E+01   -0.17641E-01 14947   0.819E-01    0.292E+00
RMM:   5    -0.706600909721E+03    0.25539E-01   -0.72163E-02 14970   0.486E-01    0.263E+00
RMM:   6    -0.706587992722E+03    0.12917E-01   -0.39188E-02 14891   0.345E-01    0.206E+00
RMM:   7    -0.706584235613E+03    0.37571E-02   -0.57009E-02 16117   0.333E-01    0.201E+00
RMM:   8    -0.706564509319E+03    0.19726E-01   -0.14375E-02 14915   0.207E-01    0.115E+00
RMM:   9    -0.706566839072E+03   -0.23298E-02   -0.11445E-02 15470   0.164E-01    0.117E+00
RMM:  10    -0.706562968649E+03    0.38704E-02   -0.32990E-03 14870   0.997E-02    0.781E-01
RMM:  11    -0.706560901031E+03    0.20676E-02   -0.11544E-03 13851   0.545E-02    0.609E-01
RMM:  12    -0.706559580015E+03    0.13210E-02   -0.43432E-04 11303   0.317E-02    0.570E-01
RMM:  13    -0.706559456268E+03    0.12375E-03   -0.10161E-04  9152   0.173E-02    0.570E-01
RMM:  14    -0.706559990382E+03   -0.53411E-03   -0.14442E-04  9187   0.180E-02    0.581E-01
RMM:  15    -0.706561049134E+03   -0.10588E-02   -0.37134E-04 10312   0.268E-02    0.601E-01
RMM:  16    -0.706562236494E+03   -0.11874E-02   -0.10114E-03 13044   0.410E-02    0.556E-01
RMM:  17    -0.706561801758E+03    0.43474E-03   -0.63013E-04 12090   0.338E-02    0.347E-01
RMM:  18    -0.706561596172E+03    0.20559E-03   -0.16073E-04  9205   0.240E-02    0.250E-01
RMM:  19    -0.706561488753E+03    0.10742E-03   -0.51802E-05  8650   0.143E-02    0.204E-01
RMM:  20    -0.706561456126E+03    0.32627E-04   -0.25896E-05  8337   0.958E-03
   7 F= -.70656146E+03 E0= -.70591978E+03  d E =-.109438E+00  mag=    -0.0147
 curvature:  -0.16 expect dE=-0.617E+00 dE for cont linesearch -0.808E-02
 trial: gam= 0.73722 g(F)=  0.387E+01 g(S)=  0.000E+00 ort =-0.610E+00 (trialstep = 0.339E+00)
 search vector abs. value=  0.697E+01
 bond charge predicted
       N       E                     dE             d eps       ncg     rms          rms(c)
DAV:   1    -0.706137242767E+03    0.42425E+00   -0.15140E+02 15248   0.163E+01    0.855E+00
RMM:   2    -0.716870495490E+03   -0.10733E+02   -0.87377E+00 15019   0.444E+00    0.350E+01
RMM:   3    -0.711758428015E+03    0.51121E+01   -0.20979E+00 15077   0.255E+00    0.269E+01
RMM:   4    -0.707332473490E+03    0.44260E+01   -0.77033E-01 14860   0.166E+00    0.103E+01
RMM:   5    -0.706223942055E+03    0.11085E+01   -0.62728E-01 15204   0.106E+00    0.445E+00
RMM:   6    -0.706144651279E+03    0.79291E-01   -0.24763E-01 16174   0.671E-01    0.434E+00
RMM:   7    -0.706090308666E+03    0.54343E-01   -0.73962E-02 16256   0.367E-01    0.279E+00
RMM:   8    -0.706091900357E+03   -0.15917E-02   -0.31419E-02 15534   0.258E-01    0.246E+00
RMM:   9    -0.706087487464E+03    0.44129E-02   -0.43049E-02 16699   0.311E-01    0.224E+00
RMM:  10    -0.706069770476E+03    0.17717E-01   -0.18189E-02 15304   0.208E-01    0.138E+00
RMM:  11    -0.706067612836E+03    0.21576E-02   -0.77038E-03 16032   0.131E-01    0.132E+00
RMM:  12    -0.706063453213E+03    0.41596E-02   -0.26996E-03 14588   0.838E-02    0.925E-01
RMM:  13    -0.706059793801E+03    0.36594E-02   -0.16731E-03 14136   0.679E-02    0.610E-01
RMM:  14    -0.706058881382E+03    0.91242E-03   -0.94978E-04 13330   0.457E-02    0.563E-01
RMM:  15    -0.706058361037E+03    0.52035E-03   -0.30797E-04 10541   0.258E-02    0.536E-01
RMM:  16    -0.706060748476E+03   -0.23874E-02   -0.70940E-04 11910   0.361E-02    0.652E-01
RMM:  17    -0.706062327592E+03   -0.15791E-02   -0.94067E-04 12710   0.381E-02    0.750E-01
RMM:  18    -0.706060387752E+03    0.19398E-02   -0.56911E-04 11748   0.338E-02    0.440E-01
RMM:  19    -0.706059612620E+03    0.77513E-03   -0.22527E-04  9607   0.266E-02    0.295E-01
RMM:  20    -0.706059489184E+03    0.12344E-03   -0.97935E-05  8840   0.186E-02    0.265E-01
RMM:  21    -0.706059258401E+03    0.23078E-03   -0.60725E-05  8650   0.139E-02    0.196E-01
RMM:  22    -0.706059086847E+03    0.17155E-03   -0.40549E-05  8480   0.118E-02    0.143E-01
RMM:  23    -0.706058983557E+03    0.10329E-03   -0.19922E-05  7941   0.818E-03    0.120E-01
RMM:  24    -0.706058915547E+03    0.68009E-04   -0.92951E-06  7010   0.551E-03
   8 F= -.70605892E+03 E0= -.70541716E+03  d E =0.502541E+00  mag=    -0.0064
 trial-energy change:    0.502541  1 .order    0.169957   -1.161618    1.501533
 step:   0.0963(harm=  0.1480)  dis= 0.01658  next Energy=  -706.718718 (dE=-0.157E+00)
 bond charge predicted
       N       E                     dE             d eps       ncg     rms          rms(c)
DAV:   1    -0.706757529535E+03   -0.69855E+00   -0.77390E+01 15344   0.116E+01    0.401E+00
RMM:   2    -0.709541984023E+03   -0.27845E+01   -0.21102E+00 14854   0.242E+00    0.204E+01
RMM:   3    -0.707698420214E+03    0.18436E+01   -0.52440E-01 15303   0.127E+00    0.120E+01
RMM:   4    -0.706928249100E+03    0.77017E+00   -0.20777E-01 14895   0.828E-01    0.506E+00
RMM:   5    -0.706801059377E+03    0.12719E+00   -0.76797E-02 14971   0.520E-01    0.241E+00
RMM:   6    -0.706782190115E+03    0.18869E-01   -0.35497E-02 14933   0.339E-01    0.197E+00
RMM:   7    -0.706775168551E+03    0.70216E-02   -0.31233E-02 15242   0.290E-01    0.156E+00
RMM:   8    -0.706769427580E+03    0.57410E-02   -0.11686E-02 14947   0.188E-01    0.108E+00
RMM:   9    -0.706762248732E+03    0.71788E-02   -0.91206E-03 15378   0.144E-01    0.502E-01
RMM:  10    -0.706762473828E+03   -0.22510E-03   -0.23666E-03 14592   0.901E-02    0.579E-01
RMM:  11    -0.706761086155E+03    0.13877E-02   -0.93357E-04 13729   0.448E-02    0.320E-01
RMM:  12    -0.706760337546E+03    0.74861E-03   -0.18877E-04  9687   0.246E-02    0.184E-01
RMM:  13    -0.706759814450E+03    0.52310E-03   -0.14070E-04  9272   0.190E-02    0.159E-01
RMM:  14    -0.706759474655E+03    0.33979E-03   -0.56881E-05  8822   0.132E-02    0.156E-01
RMM:  15    -0.706759820079E+03   -0.34542E-03   -0.41527E-05  8802   0.114E-02    0.159E-01
RMM:  16    -0.706760477132E+03   -0.65705E-03   -0.14195E-04  9095   0.174E-02    0.151E-01
RMM:  17    -0.706761579768E+03   -0.11026E-02   -0.88139E-04 12352   0.356E-02    0.820E-02
RMM:  18    -0.706761774492E+03   -0.19472E-03   -0.10475E-04  8882   0.200E-02    0.823E-02
RMM:  19    -0.706761883599E+03   -0.10911E-03   -0.30447E-05  8445   0.120E-02    0.702E-02
RMM:  20    -0.706761858845E+03    0.24755E-04   -0.14857E-05  7936   0.676E-03
   9 F= -.70676186E+03 E0= -.70612093E+03  d E =-.200403E+00  mag=    -0.0060
 curvature:  -0.14 expect dE=-0.557E+00 dE for cont linesearch -0.776E-02
 trial: gam= 0.44629 g(F)=  0.399E+01 g(S)=  0.000E+00 ort = 0.622E+00 (trialstep = 0.291E+00)
 search vector abs. value=  0.594E+01
 bond charge predicted
       N       E                     dE             d eps       ncg     rms          rms(c)
DAV:   1    -0.705724298464E+03    0.10376E+01   -0.12300E+02 14928   0.158E+01    0.834E+00
RMM:   2    -0.716705044121E+03   -0.10981E+02   -0.89338E+00 14995   0.395E+00    0.344E+01
RMM:   3    -0.710628741900E+03    0.60763E+01   -0.18836E+00 15002   0.245E+00    0.246E+01
RMM:   4    -0.706685660568E+03    0.39431E+01   -0.68313E-01 14850   0.157E+00    0.883E+00
RMM:   5    -0.705789773165E+03    0.89589E+00   -0.62115E-01 15265   0.104E+00    0.399E+00
RMM:   6    -0.705725936082E+03    0.63837E-01   -0.20812E-01 16368   0.598E-01    0.341E+00
RMM:   7    -0.705688824774E+03    0.37111E-01   -0.65642E-02 16137   0.332E-01    0.224E+00
RMM:   8    -0.705683084826E+03    0.57399E-02   -0.25145E-02 15974   0.219E-01    0.198E+00
RMM:   9    -0.705669434827E+03    0.13650E-01   -0.17553E-02 15426   0.207E-01    0.119E+00
RMM:  10    -0.705663222377E+03    0.62124E-02   -0.90138E-03 15141   0.152E-01    0.636E-01
RMM:  11    -0.705662592192E+03    0.63019E-03   -0.48664E-03 15601   0.104E-01    0.570E-01
RMM:  12    -0.705662373755E+03    0.21844E-03   -0.13250E-03 14318   0.520E-02    0.514E-01
RMM:  13    -0.705661343660E+03    0.10301E-02   -0.59402E-04 12427   0.406E-02    0.219E-01
RMM:  14    -0.705661043949E+03    0.29971E-03   -0.38925E-04 11168   0.315E-02    0.208E-01
RMM:  15    -0.705660819471E+03    0.22448E-03   -0.15403E-04  9435   0.203E-02    0.162E-01
RMM:  16    -0.705660964725E+03   -0.14525E-03   -0.39647E-05  8498   0.126E-02    0.179E-01
RMM:  17    -0.705661324702E+03   -0.35998E-03   -0.22223E-04  9486   0.200E-02    0.169E-01
RMM:  18    -0.705661163936E+03    0.16077E-03   -0.34753E-04 10178   0.236E-02    0.132E-01
RMM:  19    -0.705661255691E+03   -0.91755E-04   -0.88883E-05  8740   0.179E-02
  10 F= -.70566126E+03 E0= -.70502454E+03  d E =0.110060E+01  mag=    -0.0030
 trial-energy change:    1.100603  1 .order    0.132898   -1.241672    1.507468
 step:   0.1313(harm=  0.1313)  dis= 0.02380  next Energy=  -707.042265 (dE=-0.280E+00)
 bond charge predicted
       N       E                     dE             d eps       ncg     rms          rms(c)
DAV:   1    -0.706576389026E+03   -0.91523E+00   -0.37001E+01 14880   0.866E+00    0.324E+00
RMM:   2    -0.709190324862E+03   -0.26139E+01   -0.13318E+00 14856   0.172E+00    0.199E+01
RMM:   3    -0.707431353139E+03    0.17590E+01   -0.34210E-01 14890   0.107E+00    0.116E+01
RMM:   4    -0.706621682317E+03    0.80967E+00   -0.12886E-01 14903   0.675E-01    0.274E+00
RMM:   5    -0.706596133679E+03    0.25549E-01   -0.42222E-02 15021   0.366E-01    0.212E+00
RMM:   6    -0.706586494175E+03    0.96395E-02   -0.16468E-02 15529   0.210E-01    0.161E+00
RMM:   7    -0.706576775916E+03    0.97183E-02   -0.64547E-03 14740   0.137E-01    0.115E+00
RMM:   8    -0.706577376308E+03   -0.60039E-03   -0.38635E-03 14817   0.101E-01    0.954E-01
RMM:   9    -0.706572051251E+03    0.53251E-02   -0.24365E-03 14637   0.842E-02    0.382E-01
RMM:  10    -0.706571646822E+03    0.40443E-03   -0.11128E-03 13820   0.577E-02    0.174E-01
RMM:  11    -0.706571717769E+03   -0.70947E-04   -0.46776E-04 12113   0.354E-02
  11 F= -.70657172E+03 E0= -.70593179E+03  d E =0.190141E+00  mag=    -0.0001
 curvature:  -0.09 expect dE=-0.619E+00 dE for cont linesearch -0.405E+00
 ZBRENT: interpolating
 opt :   0.0597  next Energy=  -706.889243 (dE=-0.127E+00)
 bond charge predicted
       N       E                     dE             d eps       ncg     rms          rms(c)
DAV:   1    -0.706844329161E+03   -0.27268E+00   -0.74751E+00 15392   0.391E+00    0.162E+00
RMM:   2    -0.707661643260E+03   -0.81731E+00   -0.32683E-01 14879   0.816E-01    0.125E+01
RMM:   3    -0.707021636878E+03    0.64001E+00   -0.89807E-02 14858   0.564E-01    0.556E+00
RMM:   4    -0.706851283495E+03    0.17035E+00   -0.33904E-02 14898   0.349E-01    0.128E+00
RMM:   5    -0.706846645474E+03    0.46380E-02   -0.11412E-02 14950   0.184E-01    0.988E-01
RMM:   6    -0.706846765266E+03   -0.11979E-03   -0.41083E-03 15369   0.100E-01    0.959E-01
RMM:   7    -0.706843406686E+03    0.33586E-02   -0.14708E-03 13724   0.654E-02    0.695E-01
RMM:   8    -0.706843310758E+03    0.95928E-04   -0.90242E-04 13386   0.470E-02
  12 F= -.70684331E+03 E0= -.70620592E+03  d E =-.814519E-01  mag=     0.0065
 curvature:  -0.03 expect dE=-0.388E-01 dE for cont linesearch -0.106E-01
 ZBRENT: interpolating
 opt :   0.0443  next Energy=  -706.854640 (dE=-0.928E-01)
 bond charge predicted
       N       E                     dE             d eps       ncg     rms          rms(c)
DAV:   1    -0.706853802585E+03   -0.10396E-01   -0.34498E-01 15712   0.844E-01    0.597E-01
RMM:   2    -0.707119963239E+03   -0.26616E+00   -0.34335E-02 14885   0.247E-01    0.709E+00
RMM:   3    -0.706858346248E+03    0.26162E+00   -0.15576E-02 14848   0.258E-01    0.151E+00
RMM:   4    -0.706851468752E+03    0.68775E-02   -0.42572E-03 14400   0.128E-01    0.356E-01
RMM:   5    -0.706850946960E+03    0.52179E-03   -0.16272E-03 13394   0.650E-02    0.272E-01
RMM:   6    -0.706850199020E+03    0.74794E-03   -0.46535E-04 11320   0.331E-02    0.245E-01
RMM:   7    -0.706849511258E+03    0.68776E-03   -0.12174E-04  9024   0.181E-02    0.220E-01
RMM:   8    -0.706850820277E+03   -0.13090E-02   -0.15164E-04  8946   0.182E-02    0.224E-01
RMM:   9    -0.706852391487E+03   -0.15712E-02   -0.36989E-04  9948   0.257E-02    0.159E-01
RMM:  10    -0.706853746305E+03   -0.13548E-02   -0.32449E-04  9910   0.236E-02    0.216E-01
RMM:  11    -0.706854136013E+03   -0.38971E-03   -0.24190E-04  9610   0.221E-02    0.185E-01
RMM:  12    -0.706854258947E+03   -0.12293E-03   -0.10095E-04  8663   0.184E-02    0.168E-01
RMM:  13    -0.706854199881E+03    0.59066E-04   -0.45895E-05  8369   0.143E-02
  13 F= -.70685420E+03 E0= -.70621420E+03  d E =-.923410E-01  mag=    -0.0020
 curvature:  -0.03 expect dE=-0.225E-01 dE for cont linesearch -0.119E-03
 ZBRENT: interpolating
 opt :   0.0426  next Energy=  -706.854332 (dE=-0.925E-01)
 bond charge predicted
       N       E                     dE             d eps       ncg     rms          rms(c)
DAV:   1    -0.706854332457E+03   -0.73510E-04   -0.41290E-03 15456   0.943E-02    0.855E-02
RMM:   2    -0.706856202987E+03   -0.18705E-02   -0.53753E-04 11251   0.315E-02    0.608E-01
RMM:   3    -0.706854928278E+03    0.12747E-02   -0.24409E-04  9530   0.312E-02    0.334E-01
RMM:   4    -0.706854326683E+03    0.60159E-03   -0.79510E-05  8110   0.191E-02    0.465E-02
RMM:   5    -0.706854349157E+03   -0.22474E-04   -0.21469E-05  7506   0.925E-03    0.284E-02
RMM:   6    -0.706854357309E+03   -0.81519E-05   -0.80000E-06  5960   0.523E-03    0.319E-02
RMM:   7    -0.706854362053E+03   -0.47439E-05   -0.25131E-06  4053   0.374E-03    0.340E-02
RMM:   8    -0.706854363719E+03   -0.16657E-05   -0.48688E-07  2505   0.281E-03
  14 F= -.70685436E+03 E0= -.70621394E+03  d E =-.925049E-01  mag=    -0.0018
 curvature:  -0.03 expect dE=-0.241E-01 dE for cont linesearch -0.128E-05
 trial: gam= 0.11320 g(F)=  0.702E+00 g(S)=  0.000E+00 ort = 0.149E-01 (trialstep = 0.241E+00)
 search vector abs. value=  0.781E+00
 bond charge predicted
       N       E                     dE             d eps       ncg     rms          rms(c)
DAV:   1    -0.706735612680E+03    0.11875E+00   -0.10572E+01 14944   0.483E+00    0.742E-01
RMM:   2    -0.706763930612E+03   -0.28318E-01   -0.21619E-01 14848   0.911E-01    0.143E+00
RMM:   3    -0.706762336029E+03    0.15946E-02   -0.44506E-02 16358   0.356E-01    0.937E-01
RMM:   4    -0.706785699783E+03   -0.23364E-01   -0.94842E-03 15075   0.176E-01    0.224E+00
RMM:   5    -0.706766777859E+03    0.18922E-01   -0.40343E-03 14916   0.127E-01    0.127E+00
RMM:   6    -0.706759908155E+03    0.68697E-02   -0.22526E-03 14428   0.798E-02    0.911E-01
RMM:   7    -0.706757122140E+03    0.27860E-02   -0.21174E-03 14755   0.727E-02    0.406E-01
RMM:   8    -0.706757292157E+03   -0.17002E-03   -0.16265E-03 14924   0.604E-02    0.306E-01
RMM:   9    -0.706756961303E+03    0.33085E-03   -0.40414E-04 12026   0.387E-02    0.223E-01
RMM:  10    -0.706756832807E+03    0.12850E-03   -0.14730E-04  9162   0.204E-02    0.138E-01
RMM:  11    -0.706756784102E+03    0.48704E-04   -0.55060E-05  8678   0.146E-02
  15 F= -.70675678E+03 E0= -.70611858E+03  d E =0.975796E-01  mag=    -0.0031
 trial-energy change:    0.097580  1 .order    0.072310   -0.169662    0.314283
 step:   0.0691(harm=  0.0845)  dis= 0.00341  next Energy=  -706.878076 (dE=-0.237E-01)
 bond charge predicted
       N       E                     dE             d eps       ncg     rms          rms(c)
DAV:   1    -0.706868140158E+03   -0.11131E+00   -0.53790E+00 15312   0.345E+00    0.544E-01
RMM:   2    -0.706900183164E+03   -0.32043E-01   -0.11151E-01 14848   0.653E-01    0.198E+00
RMM:   3    -0.706879744192E+03    0.20439E-01   -0.22818E-02 16136   0.260E-01    0.604E-01
RMM:   4    -0.706888184511E+03   -0.84403E-02   -0.48431E-03 15017   0.129E-01    0.138E+00
RMM:   5    -0.706881287860E+03    0.68967E-02   -0.21523E-03 14612   0.859E-02    0.768E-01
RMM:   6    -0.706878589405E+03    0.26985E-02   -0.12120E-03 14010   0.556E-02    0.569E-01
RMM:   7    -0.706876902844E+03    0.16866E-02   -0.13962E-03 14446   0.554E-02    0.378E-01
RMM:   8    -0.706876095442E+03    0.80740E-03   -0.50242E-04 11984   0.349E-02    0.348E-01
RMM:   9    -0.706875796980E+03    0.29846E-03   -0.14132E-04  9153   0.203E-02    0.344E-01
RMM:  10    -0.706876551495E+03   -0.75452E-03   -0.27581E-04  9859   0.245E-02    0.351E-01
RMM:  11    -0.706877863858E+03   -0.13124E-02   -0.15502E-03 13442   0.485E-02    0.297E-01
RMM:  12    -0.706878513282E+03   -0.64942E-03   -0.73684E-04 12021   0.361E-02    0.241E-01
RMM:  13    -0.706878689218E+03   -0.17594E-03   -0.14860E-04  9081   0.218E-02    0.197E-01
RMM:  14    -0.706878706165E+03   -0.16948E-04   -0.92740E-05  8604   0.176E-02
  16 F= -.70687871E+03 E0= -.70623813E+03  d E =-.243424E-01  mag=    -0.0010
 curvature:  -0.05 expect dE=-0.113E-01 dE for cont linesearch -0.343E-05
 trial: gam= 0.29137 g(F)=  0.243E+00 g(S)=  0.000E+00 ort = 0.760E-02 (trialstep = 0.207E+00)
 search vector abs. value=  0.314E+00
 bond charge predicted
       N       E                     dE             d eps       ncg     rms          rms(c)
DAV:   1    -0.706881232159E+03   -0.25429E-02   -0.23355E+00 15440   0.208E+00    0.507E-01
RMM:   2    -0.706896293089E+03   -0.15061E-01   -0.46629E-02 14848   0.437E-01    0.142E+00
RMM:   3    -0.706888475307E+03    0.78178E-02   -0.10372E-02 15573   0.187E-01    0.746E-01
RMM:   4    -0.706910153720E+03   -0.21678E-01   -0.55551E-03 15578   0.112E-01    0.217E+00
RMM:   5    -0.706893249136E+03    0.16905E-01   -0.16677E-03 14233   0.888E-02    0.125E+00
RMM:   6    -0.706887241228E+03    0.60079E-02   -0.12975E-03 14222   0.587E-02    0.839E-01
RMM:   7    -0.706884878041E+03    0.23632E-02   -0.98102E-04 14005   0.502E-02    0.412E-01
RMM:   8    -0.706884721759E+03    0.15628E-03   -0.68695E-04 13173   0.406E-02    0.250E-01
RMM:   9    -0.706884518732E+03    0.20303E-03   -0.20233E-04  9737   0.269E-02    0.185E-01
RMM:  10    -0.706884506590E+03    0.12142E-04   -0.71025E-05  8642   0.169E-02
  17 F= -.70688451E+03 E0= -.70624583E+03  d E =-.580042E-02  mag=    -0.0025
 trial-energy change:   -0.005800  1 .order   -0.003171   -0.050746    0.044404
 step:   0.1186(harm=  0.1102)  dis= 0.00348  next Energy=  -706.893764 (dE=-0.151E-01)
 bond charge predicted
       N       E                     dE             d eps       ncg     rms          rms(c)
DAV:   1    -0.706892810648E+03   -0.82919E-02   -0.42469E-01 15456   0.886E-01    0.244E-01
RMM:   2    -0.706926516781E+03   -0.33706E-01   -0.10615E-02 14864   0.199E-01    0.233E+00
RMM:   3    -0.706893213858E+03    0.33303E-01   -0.23884E-03 14712   0.105E-01    0.419E-01
RMM:   4    -0.706893497483E+03   -0.28363E-03   -0.91551E-04 13775   0.552E-02    0.451E-01
RMM:   5    -0.706893165806E+03    0.33168E-03   -0.34760E-04 11218   0.348E-02    0.373E-01
RMM:   6    -0.706892577784E+03    0.58802E-03   -0.23399E-04  9626   0.249E-02    0.328E-01
RMM:   7    -0.706892645202E+03   -0.67418E-04   -0.44601E-05  8369   0.136E-02    0.336E-01
RMM:   8    -0.706892600325E+03    0.44877E-04   -0.14817E-05  7323   0.709E-03
  18 F= -.70689260E+03 E0= -.70625192E+03  d E =-.138942E-01  mag=    -0.0049
 curvature:  -0.07 expect dE=-0.254E-01 dE for cont linesearch -0.110E-06
 trial: gam= 1.44939 g(F)=  0.364E+00 g(S)=  0.000E+00 ort =-0.702E-03 (trialstep = 0.581E-01)
 search vector abs. value=  0.102E+01
 bond charge predicted
       N       E                     dE             d eps       ncg     rms          rms(c)
DAV:   1    -0.706906160937E+03   -0.13516E-01   -0.48663E-01 15504   0.880E-01    0.392E-01
RMM:   2    -0.707014226960E+03   -0.10807E+00   -0.18035E-02 14894   0.232E-01    0.409E+00
RMM:   3    -0.706906054242E+03    0.10817E+00   -0.55873E-03 14848   0.164E-01    0.702E-01
RMM:   4    -0.706905222120E+03    0.83212E-03   -0.14180E-03 13998   0.750E-02    0.294E-01
RMM:   5    -0.706905005563E+03    0.21656E-03   -0.56897E-04 12489   0.387E-02    0.318E-01
RMM:   6    -0.706904547557E+03    0.45801E-03   -0.17949E-04  9425   0.219E-02    0.308E-01
RMM:   7    -0.706905938137E+03   -0.13906E-02   -0.31643E-04  9960   0.252E-02    0.409E-01
RMM:   8    -0.706906751454E+03   -0.81332E-03   -0.34889E-04 10080   0.266E-02    0.422E-01
RMM:   9    -0.706907592535E+03   -0.84108E-03   -0.12166E-03 13230   0.444E-02    0.327E-01
RMM:  10    -0.706907998530E+03   -0.40599E-03   -0.44244E-04 11365   0.315E-02    0.322E-01
RMM:  11    -0.706907674514E+03    0.32402E-03   -0.32564E-04 10508   0.285E-02    0.165E-01
RMM:  12    -0.706907744149E+03   -0.69635E-04   -0.14868E-04  8781   0.233E-02
  19 F= -.70690774E+03 E0= -.70626922E+03  d E =-.151438E-01  mag=     0.0013
 trial-energy change:   -0.015144  1 .order   -0.012777   -0.021082   -0.004471
 step:   0.0661(harm=  0.0738)  dis= 0.00402  next Energy=  -706.908055 (dE=-0.155E-01)
 bond charge predicted
       N       E                     dE             d eps       ncg     rms          rms(c)
DAV:   1    -0.706908002984E+03   -0.32847E-03   -0.93835E-03 15712   0.129E-01    0.635E-02
RMM:   2    -0.706908511557E+03   -0.50857E-03   -0.30387E-04 10560   0.328E-02    0.275E-01
RMM:   3    -0.706908201560E+03    0.31000E-03   -0.95470E-05  8343   0.206E-02    0.171E-01
RMM:   4    -0.706908095691E+03    0.10587E-03   -0.46023E-05  8149   0.130E-02    0.111E-01
RMM:   5    -0.706908108714E+03   -0.13023E-04   -0.22266E-05  7880   0.959E-03    0.907E-02
RMM:   6    -0.706908051351E+03    0.57363E-04   -0.18284E-05  7816   0.740E-03    0.610E-02
RMM:   7    -0.706908027441E+03    0.23910E-04   -0.88688E-06  6461   0.538E-03    0.439E-02
RMM:   8    -0.706908046606E+03   -0.19165E-04   -0.29024E-06  4804   0.393E-03
  20 F= -.70690805E+03 E0= -.70626827E+03  d E =-.154463E-01  mag=     0.0017
 curvature:  -0.08 expect dE=-0.134E-01 dE for cont linesearch -0.563E-04
 trial: gam= 0.05067 g(F)=  0.170E+00 g(S)=  0.000E+00 ort = 0.270E-01 (trialstep = 0.597E-01)
 search vector abs. value=  0.175E+00
 bond charge predicted
       N       E                     dE             d eps       ncg     rms          rms(c)
DAV:   1    -0.706913264488E+03   -0.52370E-02   -0.14669E-01 15728   0.594E-01    0.128E-01
RMM:   2    -0.706913939212E+03   -0.67472E-03   -0.31661E-03 14782   0.112E-01    0.323E-01
RMM:   3    -0.706914228761E+03   -0.28955E-03   -0.64122E-04 13492   0.490E-02    0.390E-01
RMM:   4    -0.706913667364E+03    0.56140E-03   -0.18379E-04  9315   0.262E-02    0.238E-01
RMM:   5    -0.706913683875E+03   -0.16512E-04   -0.52149E-05  8442   0.157E-02    0.247E-01
RMM:   6    -0.706913567002E+03    0.11687E-03   -0.63226E-05  8398   0.126E-02    0.242E-01
RMM:   7    -0.706913203415E+03    0.36359E-03   -0.10032E-04  8585   0.159E-02    0.180E-01
RMM:   8    -0.706913186609E+03    0.16806E-04   -0.21954E-05  7703   0.946E-03
  21 F= -.70691319E+03 E0= -.70627305E+03  d E =-.514000E-02  mag=     0.0030
 trial-energy change:   -0.005140  1 .order   -0.005569   -0.010241   -0.000896
 step:   0.0681(harm=  0.0655)  dis= 0.00110  next Energy=  -706.913248 (dE=-0.520E-02)
 bond charge predicted
       N       E                     dE             d eps       ncg     rms          rms(c)
DAV:   1    -0.706913278339E+03   -0.74924E-04   -0.29604E-03 15440   0.865E-02    0.157E-01
RMM:   2    -0.706921444827E+03   -0.81665E-02   -0.85992E-04 13728   0.431E-02    0.115E+00
RMM:   3    -0.706913811859E+03    0.76330E-02   -0.56478E-04 12788   0.492E-02    0.457E-01
RMM:   4    -0.706913154202E+03    0.65766E-03   -0.16788E-04  8916   0.275E-02    0.238E-01
RMM:   5    -0.706912708297E+03    0.44590E-03   -0.71077E-05  8327   0.155E-02    0.191E-01
RMM:   6    -0.706913241929E+03   -0.53363E-03   -0.18164E-04  8734   0.185E-02    0.245E-01
RMM:   7    -0.706913440331E+03   -0.19840E-03   -0.25195E-04  9307   0.214E-02    0.147E-01
RMM:   8    -0.706913580184E+03   -0.13985E-03   -0.89295E-05  8492   0.174E-02    0.890E-02
RMM:   9    -0.706913627962E+03   -0.47778E-04   -0.40008E-05  8155   0.120E-02
  22 F= -.70691363E+03 E0= -.70627397E+03  d E =-.558136E-02  mag=     0.0000
 curvature:  -0.03 expect dE=-0.217E-02 dE for cont linesearch -0.471E-05
 trial: gam= 0.52504 g(F)=  0.820E-01 g(S)=  0.000E+00 ort =-0.558E-02 (trialstep = 0.614E-01)
 search vector abs. value=  0.124E+00
 bond charge predicted
       N       E                     dE             d eps       ncg     rms          rms(c)
DAV:   1    -0.706917235290E+03   -0.36551E-02   -0.87694E-02 15552   0.381E-01    0.138E-01
RMM:   2    -0.706920507327E+03   -0.32720E-02   -0.18765E-03 14734   0.881E-02    0.742E-01
RMM:   3    -0.706918230637E+03    0.22767E-02   -0.59035E-04 13271   0.467E-02    0.418E-01
RMM:   4    -0.706917379215E+03    0.85142E-03   -0.18820E-04  9308   0.292E-02    0.118E-01
RMM:   5    -0.706917341097E+03    0.38119E-04   -0.92267E-05  8354   0.193E-02    0.958E-02
RMM:   6    -0.706917374497E+03   -0.33400E-04   -0.65014E-05  8219   0.145E-02    0.130E-01
RMM:   7    -0.706917266013E+03    0.10848E-03   -0.35142E-05  8030   0.117E-02    0.749E-02
RMM:   8    -0.706917196398E+03    0.69615E-04   -0.25233E-05  7759   0.843E-03
  23 F= -.70691720E+03 E0= -.70627755E+03  d E =-.356844E-02  mag=    -0.0017
 trial-energy change:   -0.003568  1 .order   -0.003714   -0.004854   -0.002574
 step:   0.1307(harm=  0.1307)  dis= 0.00146  next Energy=  -706.918795 (dE=-0.517E-02)
 bond charge predicted
       N       E                     dE             d eps       ncg     rms          rms(c)
DAV:   1    -0.706918434359E+03   -0.11683E-02   -0.11165E-01 15616   0.429E-01    0.125E-01
RMM:   2    -0.706918824050E+03   -0.38969E-03   -0.22035E-03 14715   0.964E-02    0.281E-01
RMM:   3    -0.706918780050E+03    0.44000E-04   -0.58865E-04 12831   0.394E-02    0.275E-01
RMM:   4    -0.706918634915E+03    0.14513E-03   -0.14392E-04  8850   0.236E-02    0.226E-01
RMM:   5    -0.706918328219E+03    0.30670E-03   -0.12315E-04  8652   0.209E-02    0.198E-01
RMM:   6    -0.706918058055E+03    0.27016E-03   -0.55647E-05  8321   0.144E-02    0.136E-01
RMM:   7    -0.706918009818E+03    0.48237E-04   -0.16359E-05  7556   0.793E-03    0.139E-01
RMM:   8    -0.706918095759E+03   -0.85941E-04   -0.10085E-05  7016   0.598E-03
  24 F= -.70691810E+03 E0= -.70627805E+03  d E =-.446780E-02  mag=    -0.0036
 curvature:  -0.10 expect dE=-0.946E-02 dE for cont linesearch -0.984E-06
 trial: gam= 1.02304 g(F)=  0.919E-01 g(S)=  0.000E+00 ort =-0.109E-02 (trialstep = 0.426E-01)
 search vector abs. value=  0.220E+00
 bond charge predicted
       N       E                     dE             d eps       ncg     rms          rms(c)
DAV:   1    -0.706921383413E+03   -0.33736E-02   -0.67703E-02 15600   0.328E-01    0.174E-01
RMM:   2    -0.706932181677E+03   -0.10798E-01   -0.21751E-03 14863   0.810E-02    0.140E+00
RMM:   3    -0.706921089583E+03    0.11092E-01   -0.69502E-04 13475   0.570E-02    0.318E-01
RMM:   4    -0.706920962948E+03    0.12664E-03   -0.21333E-04  9660   0.291E-02    0.211E-01
RMM:   5    -0.706920684020E+03    0.27893E-03   -0.12792E-04  8749   0.202E-02    0.212E-01
RMM:   6    -0.706920435402E+03    0.24862E-03   -0.41665E-05  8113   0.116E-02    0.195E-01
RMM:   7    -0.706920769042E+03   -0.33364E-03   -0.49271E-05  7921   0.110E-02    0.171E-01
RMM:   8    -0.706921554032E+03   -0.78499E-03   -0.27151E-04  9326   0.211E-02    0.228E-01
RMM:   9    -0.706921769607E+03   -0.21558E-03   -0.13026E-04  8599   0.191E-02    0.133E-01
RMM:  10    -0.706921812248E+03   -0.42641E-04   -0.46684E-04 10569   0.261E-02
  25 F= -.70692181E+03 E0= -.70628238E+03  d E =-.371649E-02  mag=     0.0027
 trial-energy change:   -0.003716  1 .order   -0.003199   -0.003867   -0.002531
 step:   0.1233(harm=  0.1233)  dis= 0.00271  next Energy=  -706.923694 (dE=-0.560E-02)
 bond charge predicted
       N       E                     dE             d eps       ncg     rms          rms(c)
DAV:   1    -0.706923623326E+03   -0.18537E-02   -0.24240E-01 15616   0.620E-01    0.204E-01
RMM:   2    -0.706925507795E+03   -0.18845E-02   -0.47790E-03 14847   0.135E-01    0.561E-01
RMM:   3    -0.706924004707E+03    0.15031E-02   -0.10883E-03 14115   0.625E-02    0.261E-01
RMM:   4    -0.706924439731E+03   -0.43502E-03   -0.35811E-04 11138   0.322E-02    0.293E-01
RMM:   5    -0.706925624765E+03   -0.11850E-02   -0.32266E-04 10945   0.285E-02    0.575E-01
RMM:   6    -0.706924131588E+03    0.14932E-02   -0.18862E-04  9275   0.279E-02    0.319E-01
RMM:   7    -0.706923474921E+03    0.65667E-03   -0.14295E-04  8783   0.216E-02    0.183E-01
RMM:   8    -0.706923078486E+03    0.39643E-03   -0.93055E-05  8566   0.170E-02    0.107E-01
RMM:   9    -0.706922866157E+03    0.21233E-03   -0.34354E-05  8124   0.110E-02    0.957E-02
RMM:  10    -0.706923116164E+03   -0.25001E-03   -0.18190E-05  7631   0.775E-03    0.922E-02
RMM:  11    -0.706923644484E+03   -0.52832E-03   -0.79328E-05  8231   0.123E-02    0.853E-02
RMM:  12    -0.706924004391E+03   -0.35991E-03   -0.17507E-04  9007   0.165E-02    0.534E-02
RMM:  13    -0.706923960085E+03    0.44307E-04   -0.53080E-05  8258   0.126E-02
  26 F= -.70692396E+03 E0= -.70628391E+03  d E =-.586433E-02  mag=    -0.0001
 curvature:  -0.15 expect dE=-0.143E-01 dE for cont linesearch -0.711E-04
 trial: gam= 1.03537 g(F)=  0.956E-01 g(S)=  0.000E+00 ort =-0.102E-01 (trialstep = 0.417E-01)
 search vector abs. value=  0.310E+00
 bond charge predicted
       N       E                     dE             d eps       ncg     rms          rms(c)
DAV:   1    -0.706926925010E+03   -0.29206E-02   -0.85246E-02 15408   0.337E-01    0.104E-01
RMM:   2    -0.706927785942E+03   -0.86093E-03   -0.14759E-03 14534   0.740E-02    0.394E-01
RMM:   3    -0.706927210324E+03    0.57562E-03   -0.36400E-04 11237   0.337E-02    0.200E-01
RMM:   4    -0.706927359803E+03   -0.14948E-03   -0.13532E-04  8836   0.219E-02    0.266E-01
RMM:   5    -0.706927146318E+03    0.21348E-03   -0.61945E-05  8291   0.164E-02    0.182E-01
RMM:   6    -0.706927022921E+03    0.12340E-03   -0.43758E-05  8082   0.121E-02    0.147E-01
RMM:   7    -0.706926904013E+03    0.11891E-03   -0.53101E-05  8185   0.128E-02    0.833E-02
RMM:   8    -0.706926825906E+03    0.78107E-04   -0.24518E-05  7731   0.936E-03
  27 F= -.70692683E+03 E0= -.70628647E+03  d E =-.286582E-02  mag=    -0.0026
 trial-energy change:   -0.002866  1 .order   -0.002958   -0.003540   -0.002375
 step:   0.1266(harm=  0.1266)  dis= 0.00360  next Energy=  -706.929339 (dE=-0.538E-02)
 bond charge predicted
       N       E                     dE             d eps       ncg     rms          rms(c)
DAV:   1    -0.706928637172E+03   -0.17332E-02   -0.35465E-01 15504   0.688E-01    0.207E-01
RMM:   2    -0.706942962738E+03   -0.14326E-01   -0.64971E-03 14851   0.148E-01    0.159E+00
RMM:   3    -0.706928667793E+03    0.14295E-01   -0.15180E-03 14258   0.781E-02    0.327E-01
RMM:   4    -0.706929177888E+03   -0.51009E-03   -0.51226E-04 12570   0.409E-02    0.357E-01
RMM:   5    -0.706928625106E+03    0.55278E-03   -0.20675E-04  9591   0.264E-02    0.281E-01
RMM:   6    -0.706928201125E+03    0.42398E-03   -0.22097E-04  9570   0.256E-02    0.308E-01
RMM:   7    -0.706927505427E+03    0.69570E-03   -0.15439E-04  9040   0.204E-02    0.239E-01
RMM:   8    -0.706927185488E+03    0.31994E-03   -0.44043E-05  8212   0.127E-02    0.214E-01
RMM:   9    -0.706927877584E+03   -0.69210E-03   -0.58778E-05  8236   0.120E-02    0.251E-01
RMM:  10    -0.706928074144E+03   -0.19656E-03   -0.46436E-05  8067   0.118E-02    0.196E-01
RMM:  11    -0.706929068816E+03   -0.99467E-03   -0.50547E-04 10474   0.263E-02    0.123E-01
RMM:  12    -0.706929204100E+03   -0.13528E-03   -0.11999E-04  8781   0.178E-02    0.829E-02
RMM:  13    -0.706929289490E+03   -0.85390E-04   -0.32100E-05  8167   0.117E-02
  28 F= -.70692929E+03 E0= -.70628909E+03  d E =-.532941E-02  mag=     0.0007
 curvature:  -0.23 expect dE=-0.237E-01 dE for cont linesearch -0.488E-04
 trial: gam= 0.67191 g(F)=  0.103E+00 g(S)=  0.000E+00 ort =-0.810E-02 (trialstep = 0.586E-01)
 search vector abs. value=  0.232E+00
 bond charge predicted
       N       E                     dE             d eps       ncg     rms          rms(c)
DAV:   1    -0.706933210092E+03   -0.40060E-02   -0.14839E-01 15504   0.471E-01    0.135E-01
RMM:   2    -0.706934229676E+03   -0.10196E-02   -0.26358E-03 14777   0.998E-02    0.452E-01
RMM:   3    -0.706933451926E+03    0.77775E-03   -0.60157E-04 12946   0.470E-02    0.178E-01
RMM:   4    -0.706933488144E+03   -0.36218E-04   -0.18996E-04  9503   0.236E-02    0.128E-01
RMM:   5    -0.706934090902E+03   -0.60276E-03   -0.99103E-05  8475   0.183E-02    0.359E-01
RMM:   6    -0.706933514968E+03    0.57593E-03   -0.49253E-05  8154   0.158E-02    0.183E-01
RMM:   7    -0.706933436964E+03    0.78004E-04   -0.56435E-05  8092   0.126E-02    0.120E-01
RMM:   8    -0.706933402094E+03    0.34870E-04   -0.71921E-05  8094   0.145E-02
  29 F= -.70693340E+03 E0= -.70629229E+03  d E =-.411260E-02  mag=     0.0004
 trial-energy change:   -0.004113  1 .order   -0.004083   -0.005709   -0.002458
 step:   0.1030(harm=  0.1030)  dis= 0.00163  next Energy=  -706.934302 (dE=-0.501E-02)
 bond charge predicted
       N       E                     dE             d eps       ncg     rms          rms(c)
DAV:   1    -0.706934332840E+03   -0.89588E-03   -0.85067E-02 15488   0.358E-01    0.105E-01
RMM:   2    -0.706941613935E+03   -0.72811E-02   -0.19162E-03 14721   0.791E-02    0.107E+00
RMM:   3    -0.706934323883E+03    0.72901E-02   -0.46317E-04 12321   0.452E-02    0.201E-01
RMM:   4    -0.706934472164E+03   -0.14828E-03   -0.16766E-04  9298   0.251E-02    0.207E-01
RMM:   5    -0.706934515402E+03   -0.43238E-04   -0.63074E-05  8311   0.161E-02    0.191E-01
RMM:   6    -0.706934351562E+03    0.16384E-03   -0.37990E-05  8084   0.111E-02    0.149E-01
RMM:   7    -0.706934300435E+03    0.51127E-04   -0.18479E-05  7538   0.771E-03    0.140E-01
RMM:   8    -0.706934275540E+03    0.24895E-04   -0.69017E-06  5864   0.492E-03
  30 F= -.70693428E+03 E0= -.70629420E+03  d E =-.498605E-02  mag=     0.0002
 curvature:  -0.12 expect dE=-0.993E-02 dE for cont linesearch -0.193E-04
 trial: gam= 0.65534 g(F)=  0.810E-01 g(S)=  0.000E+00 ort = 0.605E-02 (trialstep = 0.675E-01)
 search vector abs. value=  0.189E+00
 bond charge predicted
       N       E                     dE             d eps       ncg     rms          rms(c)
DAV:   1    -0.706938353242E+03   -0.40528E-02   -0.16162E-01 15392   0.466E-01    0.183E-01
RMM:   2    -0.706952641236E+03   -0.14288E-01   -0.33861E-03 14862   0.105E-01    0.152E+00
RMM:   3    -0.706938820690E+03    0.13821E-01   -0.11743E-03 13973   0.695E-02    0.472E-01
RMM:   4    -0.706938742065E+03    0.78625E-04   -0.35189E-04 11155   0.382E-02    0.292E-01
RMM:   5    -0.706938358137E+03    0.38393E-03   -0.10732E-04  8748   0.203E-02    0.223E-01
RMM:   6    -0.706938196045E+03    0.16209E-03   -0.60937E-05  8373   0.140E-02    0.182E-01
RMM:   7    -0.706938076515E+03    0.11953E-03   -0.53818E-05  8146   0.114E-02    0.198E-01
RMM:   8    -0.706938099596E+03   -0.23081E-04   -0.12720E-05  7249   0.759E-03
  31 F= -.70693810E+03 E0= -.70629768E+03  d E =-.382406E-02  mag=    -0.0002
 trial-energy change:   -0.003824  1 .order   -0.004063   -0.005734   -0.002393
 step:   0.1158(harm=  0.1158)  dis= 0.00147  next Energy=  -706.939195 (dE=-0.492E-02)
 bond charge predicted
       N       E                     dE             d eps       ncg     rms          rms(c)
DAV:   1    -0.706938645136E+03   -0.56862E-03   -0.82899E-02 15472   0.334E-01    0.203E-01
RMM:   2    -0.706948483809E+03   -0.98387E-02   -0.18704E-03 14745   0.785E-02    0.130E+00
RMM:   3    -0.706938640172E+03    0.98436E-02   -0.79686E-04 13601   0.571E-02    0.427E-01
RMM:   4    -0.706938516464E+03    0.12371E-03   -0.26824E-04 10200   0.325E-02    0.325E-01
RMM:   5    -0.706938536087E+03   -0.19622E-04   -0.80525E-05  8543   0.175E-02    0.350E-01
RMM:   6    -0.706938188016E+03    0.34807E-03   -0.27001E-05  7979   0.103E-02    0.262E-01
RMM:   7    -0.706938216359E+03   -0.28344E-04   -0.13482E-05  7120   0.763E-03    0.253E-01
RMM:   8    -0.706938418587E+03   -0.20223E-03   -0.41004E-05  7971   0.951E-03    0.279E-01
RMM:   9    -0.706938739628E+03   -0.32104E-03   -0.91004E-05  8175   0.139E-02    0.324E-01
RMM:  10    -0.706939536262E+03   -0.79663E-03   -0.48818E-04 11373   0.323E-02    0.493E-01
RMM:  11    -0.706939259108E+03    0.27715E-03   -0.41330E-04 10410   0.288E-02    0.428E-01
RMM:  12    -0.706939542153E+03   -0.28305E-03   -0.12438E-04  8712   0.213E-02    0.548E-01
RMM:  13    -0.706939627625E+03   -0.85472E-04   -0.62082E-05  8394   0.157E-02
  32 F= -.70693963E+03 E0= -.70629826E+03  d E =-.535209E-02  mag=    -0.0001
 curvature:  -0.13 expect dE=-0.542E-02 dE for cont linesearch -0.452E-04
 trial: gam= 0.52284 g(F)=  0.422E-01 g(S)=  0.000E+00 ort =-0.814E-02 (trialstep = 0.772E-01)
 search vector abs. value=  0.852E-01
 bond charge predicted
       N       E                     dE             d eps       ncg     rms          rms(c)
DAV:   1    -0.706940953152E+03   -0.14110E-02   -0.98460E-02 15616   0.388E-01    0.645E-01
RMM:   2    -0.706944510288E+03   -0.35571E-02   -0.25318E-03 14787   0.968E-02    0.968E-01
RMM:   3    -0.706945536893E+03   -0.10266E-02   -0.11879E-03 14080   0.599E-02    0.723E-01
RMM:   4    -0.707004681699E+03   -0.59145E-01   -0.65627E-03 16818   0.103E-01    0.328E+00
RMM:   5    -0.706944696211E+03    0.59985E-01   -0.35080E-03 15299   0.114E-01    0.103E+00
RMM:   6    -0.706940210263E+03    0.44859E-02   -0.12712E-03 13893   0.576E-02    0.503E-01
RMM:   7    -0.706940232672E+03   -0.22409E-04   -0.42008E-04 11310   0.332E-02    0.448E-01
RMM:   8    -0.706940749750E+03   -0.51708E-03   -0.18234E-04  9204   0.220E-02    0.479E-01
RMM:   9    -0.706940522500E+03    0.22725E-03   -0.87621E-04 12522   0.403E-02    0.353E-01
RMM:  10    -0.706940572350E+03   -0.49850E-04   -0.82822E-04 12193   0.374E-02
  33 F= -.70694057E+03 E0= -.70629971E+03  d E =-.944725E-03  mag=    -0.0009
 trial-energy change:   -0.000945  1 .order   -0.001353   -0.002927    0.000221
 step:   0.0625(harm=  0.0717)  dis= 0.00081  next Energy=  -706.940596 (dE=-0.969E-03)
 bond charge predicted
       N       E                     dE             d eps       ncg     rms          rms(c)
DAV:   1    -0.706940181881E+03    0.34062E-03   -0.57227E-03 16736   0.113E-01    0.179E-01
RMM:   2    -0.706948207024E+03   -0.80251E-02   -0.98427E-04 13716   0.504E-02    0.116E+00
RMM:   3    -0.706943196912E+03    0.50101E-02   -0.74737E-04 13559   0.542E-02    0.687E-01
RMM:   4    -0.706940713310E+03    0.24836E-02   -0.23692E-04  9386   0.341E-02    0.150E-01
RMM:   5    -0.706940758509E+03   -0.45198E-04   -0.87004E-05  8363   0.185E-02    0.138E-01
RMM:   6    -0.706940680725E+03    0.77783E-04   -0.54208E-05  8351   0.130E-02    0.924E-02
RMM:   7    -0.706940649993E+03    0.30732E-04   -0.15654E-05  7608   0.788E-03    0.772E-02
RMM:   8    -0.706940664655E+03   -0.14662E-04   -0.57007E-06  6113   0.487E-03
  34 F= -.70694066E+03 E0= -.70629845E+03  d E =-.103703E-02  mag=    -0.0006
 curvature:   0.15 expect dE= 0.232E-02 dE for cont linesearch  0.828E-04
 ZBRENT: interpolating
 opt :   0.0728  next Energy=  -706.940579 (dE=-0.951E-03)
 bond charge predicted
       N       E                     dE             d eps       ncg     rms          rms(c)
DAV:   1    -0.706940738653E+03   -0.88660E-04   -0.18006E-03 14912   0.537E-02    0.112E-01
RMM:   2    -0.706944622507E+03   -0.38839E-02   -0.60644E-04 12569   0.355E-02    0.871E-01
RMM:   3    -0.706940959442E+03    0.36631E-02   -0.27838E-04  9967   0.368E-02    0.343E-01
RMM:   4    -0.706940623867E+03    0.33558E-03   -0.92832E-05  8289   0.203E-02    0.180E-01
RMM:   5    -0.706940670539E+03   -0.46672E-04   -0.22031E-05  7488   0.103E-02    0.163E-01
RMM:   6    -0.706940627106E+03    0.43433E-04   -0.19626E-05  7369   0.698E-03    0.903E-02
RMM:   7    -0.706940695685E+03   -0.68580E-04   -0.22547E-05  7416   0.746E-03    0.864E-02
RMM:   8    -0.706940697333E+03   -0.16482E-05   -0.11898E-04  8590   0.150E-02
  35 F= -.70694070E+03 E0= -.70629931E+03  d E =-.106971E-02  mag=    -0.0014
 curvature:  -0.01 expect dE=-0.167E-03 dE for cont linesearch -0.912E-08
 trial: gam= 0.08272 g(F)=  0.145E-01 g(S)=  0.000E+00 ort = 0.260E-03 (trialstep = 0.763E-01)
 search vector abs. value=  0.151E-01
 bond charge predicted
       N       E                     dE             d eps       ncg     rms          rms(c)
DAV:   1    -0.706941342903E+03   -0.64722E-03   -0.14166E-02 15376   0.167E-01    0.160E-01
RMM:   2    -0.706951085947E+03   -0.97430E-02   -0.10672E-03 14247   0.517E-02    0.128E+00
RMM:   3    -0.706943412759E+03    0.76732E-02   -0.82515E-04 13556   0.561E-02    0.656E-01
RMM:   4    -0.706942500211E+03    0.91255E-03   -0.23753E-04  9726   0.344E-02    0.432E-01
RMM:   5    -0.706941457949E+03    0.10423E-02   -0.49297E-05  8026   0.164E-02    0.136E-01
RMM:   6    -0.706941525956E+03   -0.68007E-04   -0.14428E-05  7488   0.782E-03    0.119E-01
RMM:   7    -0.706941511175E+03    0.14781E-04   -0.97431E-06  6880   0.547E-03    0.918E-02
RMM:   8    -0.706941498887E+03    0.12288E-04   -0.46674E-06  5602   0.441E-03
  36 F= -.70694150E+03 E0= -.70630002E+03  d E =-.801553E-03  mag=    -0.0017
 trial-energy change:   -0.000802  1 .order   -0.000725   -0.001106   -0.000344
 step:   0.1107(harm=  0.1107)  dis= 0.00057  next Energy=  -706.941499 (dE=-0.802E-03)
 bond charge predicted
       N       E                     dE             d eps       ncg     rms          rms(c)
DAV:   1    -0.706941603441E+03   -0.92266E-04   -0.27778E-03 15360   0.738E-02    0.945E-02
RMM:   2    -0.706950403182E+03   -0.87997E-02   -0.64306E-04 13089   0.339E-02    0.119E+00
RMM:   3    -0.706941324876E+03    0.90783E-02   -0.41983E-04 11631   0.446E-02    0.201E-01
RMM:   4    -0.706941571879E+03   -0.24700E-03   -0.10056E-04  8270   0.216E-02    0.103E-01
RMM:   5    -0.706941474564E+03    0.97315E-04   -0.23935E-05  8043   0.112E-02    0.570E-02
RMM:   6    -0.706941452903E+03    0.21661E-04   -0.66887E-06  6154   0.473E-03    0.543E-02
RMM:   7    -0.706941534850E+03   -0.81947E-04   -0.18214E-05  7057   0.664E-03    0.681E-02
RMM:   8    -0.706941587253E+03   -0.52403E-04   -0.22465E-05  7347   0.702E-03
  37 F= -.70694159E+03 E0= -.70629981E+03  d E =-.889919E-03  mag=    -0.0010
 curvature:  -0.06 expect dE=-0.579E-03 dE for cont linesearch -0.205E-06
 trial: gam= 0.68731 g(F)=  0.100E-01 g(S)=  0.000E+00 ort = 0.232E-03 (trialstep = 0.718E-01)
 search vector abs. value=  0.175E-01
 bond charge predicted
       N       E                     dE             d eps       ncg     rms          rms(c)
DAV:   1    -0.706942071609E+03   -0.53676E-03   -0.14960E-02 15200   0.157E-01    0.498E-02
RMM:   2    -0.706942223979E+03   -0.15237E-03   -0.29733E-04 10129   0.345E-02    0.146E-01
RMM:   3    -0.706942140842E+03    0.83137E-04   -0.62918E-05  8063   0.172E-02    0.909E-02
RMM:   4    -0.706942230865E+03   -0.90023E-04   -0.28296E-05  7916   0.995E-03    0.160E-01
RMM:   5    -0.706942100245E+03    0.13062E-03   -0.18559E-05  7677   0.908E-03    0.729E-02
RMM:   6    -0.706942080655E+03    0.19590E-04   -0.12307E-05  7093   0.654E-03    0.642E-02
RMM:   7    -0.706942054403E+03    0.26252E-04   -0.75258E-06  6762   0.533E-03    0.344E-02
RMM:   8    -0.706942038121E+03    0.16282E-04   -0.33830E-06  4714   0.372E-03
  38 F= -.70694204E+03 E0= -.70630010E+03  d E =-.450868E-03  mag=    -0.0012
 trial-energy change:   -0.000451  1 .order   -0.000486   -0.000732   -0.000239
 step:   0.1066(harm=  0.1066)  dis= 0.00068  next Energy=  -706.942131 (dE=-0.543E-03)
 bond charge predicted
       N       E                     dE             d eps       ncg     rms          rms(c)
DAV:   1    -0.706942110097E+03   -0.55694E-04   -0.34946E-03 15168   0.761E-02    0.407E-02
RMM:   2    -0.706942293662E+03   -0.18356E-03   -0.92844E-05  8126   0.179E-02    0.204E-01
RMM:   3    -0.706942080190E+03    0.21347E-03   -0.30578E-05  8004   0.122E-02    0.834E-02
RMM:   4    -0.706942073302E+03    0.68882E-05   -0.13050E-05  7444   0.701E-03    0.762E-02
RMM:   5    -0.706942051756E+03    0.21546E-04   -0.39617E-06  6095   0.459E-03    0.604E-02
RMM:   6    -0.706942046859E+03    0.48965E-05   -0.48502E-07  2400   0.269E-03    0.610E-02
RMM:   7    -0.706942048888E+03   -0.20292E-05   -0.15580E-06  3394   0.308E-03    0.421E-02
RMM:   8    -0.706942113388E+03   -0.64500E-04   -0.20586E-05  7022   0.650E-03
  39 F= -.70694211E+03 E0= -.70630013E+03  d E =-.526136E-03  mag=    -0.0010
 curvature:  -0.09 expect dE=-0.398E-03 dE for cont linesearch -0.121E-06
 trial: gam= 0.38192 g(F)=  0.435E-02 g(S)=  0.000E+00 ort = 0.152E-03 (trialstep = 0.788E-01)
 search vector abs. value=  0.702E-02
 bond charge predicted
       N       E                     dE             d eps       ncg     rms          rms(c)
DAV:   1    -0.706942375276E+03   -0.32639E-03   -0.62817E-03 15424   0.102E-01    0.676E-02
RMM:   2    -0.706945437706E+03   -0.30624E-02   -0.31854E-04 10803   0.287E-02    0.712E-01
RMM:   3    -0.706942257970E+03    0.31797E-02   -0.17582E-04  8434   0.289E-02    0.134E-01
RMM:   4    -0.706942376026E+03   -0.11806E-03   -0.47898E-05  8016   0.159E-02    0.570E-02
RMM:   5    -0.706942347540E+03    0.28486E-04   -0.17871E-05  7633   0.857E-03    0.508E-02
RMM:   6    -0.706942319970E+03    0.27569E-04   -0.67687E-06  6477   0.529E-03    0.363E-02
RMM:   7    -0.706942318666E+03    0.13040E-05   -0.10349E-06  3063   0.294E-03    0.371E-02
RMM:   8    -0.706942318684E+03   -0.17695E-07   -0.57786E-07  2643   0.274E-03
  40 F= -.70694232E+03 E0= -.70630029E+03  d E =-.205296E-03  mag=    -0.0011
 trial-energy change:   -0.000205  1 .order   -0.000228   -0.000347   -0.000108
 step:   0.1141(harm=  0.1141)  dis= 0.00054  next Energy=  -706.942365 (dE=-0.252E-03)
 bond charge predicted
       N       E                     dE             d eps       ncg     rms          rms(c)
DAV:   1    -0.706942343951E+03   -0.25284E-04   -0.12651E-03 14816   0.457E-02    0.399E-02
RMM:   2    -0.706942322766E+03    0.21185E-04   -0.48264E-05  7967   0.128E-02    0.887E-02
RMM:   3    -0.706942269688E+03    0.53078E-04   -0.17546E-05  7819   0.946E-03    0.566E-02
RMM:   4    -0.706942267772E+03    0.19158E-05   -0.31319E-06  4711   0.382E-03    0.552E-02
RMM:   5    -0.706942266253E+03    0.15187E-05   -0.62102E-07  2614   0.292E-03    0.563E-02
RMM:   6    -0.706942276688E+03   -0.10435E-04   -0.15206E-06  3753   0.316E-03    0.810E-02
RMM:   7    -0.706942257491E+03    0.19197E-04   -0.11045E-06  3264   0.312E-03    0.567E-02
RMM:   8    -0.706942271995E+03   -0.14504E-04   -0.59302E-06  5388   0.412E-03
  41 F= -.70694227E+03 E0= -.70630056E+03  d E =-.158607E-03  mag=    -0.0013
 curvature:  -0.09 expect dE=-0.282E-03 dE for cont linesearch -0.153E-06
 trial: gam= 0.72339 g(F)=  0.310E-02 g(S)=  0.000E+00 ort = 0.109E-03 (trialstep = 0.858E-01)
 search vector abs. value=  0.693E-02
 bond charge predicted
       N       E                     dE             d eps       ncg     rms          rms(c)
DAV:   1    -0.706942435233E+03   -0.17774E-03   -0.84093E-03 15536   0.117E-01    0.760E-02
RMM:   2    -0.706943758134E+03   -0.13229E-02   -0.32915E-04 10495   0.306E-02    0.521E-01
RMM:   3    -0.706942535954E+03    0.12222E-02   -0.13035E-04  8246   0.250E-02    0.177E-01
RMM:   4    -0.706942445601E+03    0.90353E-04   -0.32904E-05  7932   0.134E-02    0.677E-02
RMM:   5    -0.706942435475E+03    0.10126E-04   -0.20830E-05  7302   0.740E-03    0.998E-02
RMM:   6    -0.706942360873E+03    0.74602E-04   -0.17342E-05  7034   0.702E-03    0.882E-02
RMM:   7    -0.706942465140E+03   -0.10427E-03   -0.11413E-05  6354   0.577E-03    0.126E-01
RMM:   8    -0.706942530295E+03   -0.65155E-04   -0.20304E-05  7376   0.688E-03
  42 F= -.70694253E+03 E0= -.70629973E+03  d E =-.258300E-03  mag=    -0.0008
 trial-energy change:   -0.000258  1 .order   -0.000137   -0.000273   -0.000001
 step:   0.0861(harm=  0.0861)  dis= 0.00051  next Energy=  -706.942409 (dE=-0.137E-03)
 bond charge predicted
       N       E                     dE             d eps       ncg     rms          rms(c)
DAV:   1    -0.706942447549E+03    0.17591E-04   -0.65937E-04 11952   0.346E-02    0.377E-02
RMM:   2    -0.706942935656E+03   -0.48811E-03   -0.59253E-05  8148   0.143E-02    0.251E-01
RMM:   3    -0.706942564808E+03    0.37085E-03   -0.34510E-05  7949   0.122E-02    0.936E-02
RMM:   4    -0.706942560934E+03    0.38741E-05   -0.12349E-05  7274   0.771E-03    0.411E-02
RMM:   5    -0.706942559230E+03    0.17041E-05   -0.40134E-06  5642   0.420E-03    0.356E-02
RMM:   6    -0.706942541826E+03    0.17404E-04   -0.15693E-06  3478   0.319E-03    0.287E-02
RMM:   7    -0.706942522530E+03    0.19296E-04   -0.18485E-06  3512   0.325E-03    0.267E-02
RMM:   8    -0.706942529813E+03   -0.72833E-05   -0.28118E-07  2125   0.271E-03
  43 F= -.70694253E+03 E0= -.70630042E+03  d E =-.257818E-03  mag=    -0.0007
 curvature:  -0.09 expect dE=-0.204E-03 dE for cont linesearch -0.651E-07
 trial: gam= 0.69295 g(F)=  0.217E-02 g(S)=  0.000E+00 ort = 0.694E-04 (trialstep = 0.859E-01)
 search vector abs. value=  0.560E-02
 bond charge predicted
       N       E                     dE             d eps       ncg     rms          rms(c)
DAV:   1    -0.706942650491E+03   -0.12796E-03   -0.77797E-03 15600   0.103E-01    0.520E-02
RMM:   2    -0.706945328093E+03   -0.26776E-02   -0.32861E-04 10736   0.280E-02    0.664E-01
RMM:   3    -0.706942463899E+03    0.28642E-02   -0.13490E-04  8241   0.260E-02    0.618E-02
RMM:   4    -0.706942581923E+03   -0.11802E-03   -0.37237E-05  8007   0.133E-02    0.358E-02
RMM:   5    -0.706942583304E+03   -0.13813E-05   -0.15808E-05  7455   0.778E-03    0.495E-02
RMM:   6    -0.706942568883E+03    0.14421E-04   -0.40972E-06  5806   0.448E-03    0.450E-02
RMM:   7    -0.706942581876E+03   -0.12993E-04   -0.10846E-06  3279   0.307E-03    0.474E-02
RMM:   8    -0.706942595874E+03   -0.13998E-04   -0.11755E-06  2996   0.310E-03
  44 F= -.70694260E+03 E0= -.70630079E+03  d E =-.660610E-04  mag=    -0.0007
 trial-energy change:   -0.000066  1 .order   -0.000111   -0.000191   -0.000031
 step:   0.1028(harm=  0.1028)  dis= 0.00068  next Energy=  -706.942644 (dE=-0.114E-03)
 reached required accuracy - stopping structural energy minimisation
 writing wavefunctions
