       N       E                     dE             d eps       ncg     rms          rms(c)
DAV:   1     0.766010260527E+04    0.76601E+04   -0.30474E+05 13664   0.124E+03
DAV:   2     0.576784034466E+03   -0.70833E+04   -0.63835E+04 14528   0.366E+02
DAV:   3    -0.777808875611E+03   -0.13546E+04   -0.12954E+04 16656   0.162E+02
DAV:   4    -0.850090398483E+03   -0.72282E+02   -0.70527E+02 18448   0.423E+01
DAV:   5    -0.851580721328E+03   -0.14903E+01   -0.14742E+01 17376   0.570E+00    0.196E+02
RMM:   6    -0.740278120598E+03    0.11130E+03   -0.67469E+02 13459   0.412E+01    0.197E+02
RMM:   7    -0.109067864578E+04   -0.35040E+03   -0.24874E+02 13915   0.259E+01    0.363E+02
RMM:   8    -0.978029222740E+03    0.11265E+03   -0.76930E+01 16065   0.985E+00    0.341E+02
RMM:   9    -0.137910557134E+04   -0.40108E+03   -0.12860E+02 15573   0.157E+01    0.439E+02
RMM:  10    -0.828697145878E+03    0.55041E+03   -0.20942E+02 16898   0.196E+01    0.296E+02
RMM:  11    -0.696879052067E+03    0.13182E+03   -0.11416E+02 15691   0.162E+01    0.153E+02
RMM:  12    -0.627835316381E+03    0.69044E+02   -0.16995E+01 13532   0.684E+00    0.985E+01
RMM:  13    -0.631915845788E+03   -0.40805E+01   -0.26299E+01 14392   0.745E+00    0.760E+01
RMM:  14    -0.615630559197E+03    0.16285E+02   -0.23394E+01 14735   0.742E+00    0.926E+01
RMM:  15    -0.616752567274E+03   -0.11220E+01   -0.71203E+00 14611   0.397E+00    0.935E+01
RMM:  16    -0.625214396651E+03   -0.84618E+01   -0.87008E+00 13719   0.445E+00    0.850E+01
RMM:  17    -0.621898401642E+03    0.33160E+01   -0.12880E+01 15726   0.538E+00    0.625E+01
RMM:  18    -0.625791840301E+03   -0.38934E+01   -0.20601E+00 13521   0.230E+00    0.609E+01
RMM:  19    -0.634477317396E+03   -0.86855E+01   -0.52893E+00 15242   0.314E+00    0.517E+01
RMM:  20    -0.640686483303E+03   -0.62092E+01   -0.34697E+00 14412   0.264E+00    0.430E+01
RMM:  21    -0.645912072982E+03   -0.52256E+01   -0.27265E+00 14620   0.233E+00    0.358E+01
RMM:  22    -0.652380077198E+03   -0.64680E+01   -0.36013E+00 15541   0.253E+00    0.276E+01
RMM:  23    -0.660252176125E+03   -0.78721E+01   -0.48141E+00 16390   0.297E+00    0.214E+01
RMM:  24    -0.670955205367E+03   -0.10703E+02   -0.91013E+00 18229   0.408E+00    0.254E+01
RMM:  25    -0.675206696402E+03   -0.42515E+01   -0.17852E+00 14606   0.207E+00    0.320E+01
RMM:  26    -0.675161890762E+03    0.44806E-01   -0.31742E-01 13449   0.101E+00    0.293E+01
RMM:  27    -0.676375517442E+03   -0.12136E+01   -0.55248E-01 14174   0.106E+00    0.271E+01
RMM:  28    -0.677213767162E+03   -0.83825E+00   -0.32772E-01 13887   0.834E-01    0.259E+01
RMM:  29    -0.677930728911E+03   -0.71696E+00   -0.19256E-01 13811   0.657E-01    0.258E+01
RMM:  30    -0.679613298429E+03   -0.16826E+01   -0.50111E-01 15620   0.942E-01    0.256E+01
RMM:  31    -0.681596934258E+03   -0.19836E+01   -0.12931E+00 18372   0.143E+00    0.216E+01
RMM:  32    -0.682549775574E+03   -0.95284E+00   -0.21261E-01 14663   0.648E-01    0.202E+01
RMM:  33    -0.682719694992E+03   -0.16992E+00   -0.37150E-02 15448   0.259E-01    0.199E+01
RMM:  34    -0.682887446112E+03   -0.16775E+00   -0.11067E-02 14224   0.153E-01    0.196E+01
RMM:  35    -0.684306496762E+03   -0.14191E+01   -0.28139E-01 20171   0.681E-01    0.182E+01
RMM:  36    -0.686523784673E+03   -0.22173E+01   -0.87125E-01 22604   0.113E+00    0.144E+01
RMM:  37    -0.687676831827E+03   -0.11530E+01   -0.21834E-01 19725   0.582E-01    0.115E+01
RMM:  38    -0.688408475712E+03   -0.73164E+00   -0.68521E-02 17260   0.345E-01    0.995E+00
RMM:  39    -0.689086102861E+03   -0.67763E+00   -0.49462E-02 16197   0.291E-01    0.877E+00
RMM:  40    -0.689745077860E+03   -0.65897E+00   -0.63021E-02 17106   0.320E-01    0.746E+00
RMM:  41    -0.691126899858E+03   -0.13818E+01   -0.20961E-01 19705   0.565E-01    0.468E+00
RMM:  42    -0.691552975774E+03   -0.42608E+00   -0.13383E-01 18614   0.444E-01    0.368E+00
RMM:  43    -0.691815271579E+03   -0.26230E+00   -0.88986E-02 17420   0.361E-01    0.432E+00
RMM:  44    -0.691900891813E+03   -0.85620E-01   -0.19491E-02 14657   0.194E-01    0.447E+00
RMM:  45    -0.692156957239E+03   -0.25607E+00   -0.12710E-02 14046   0.162E-01    0.443E+00
RMM:  46    -0.692588106764E+03   -0.43115E+00   -0.19600E-02 15432   0.193E-01    0.403E+00
RMM:  47    -0.692968247901E+03   -0.38014E+00   -0.16245E-02 15293   0.178E-01    0.326E+00
RMM:  48    -0.693435804585E+03   -0.46756E+00   -0.19957E-02 16359   0.190E-01    0.260E+00
RMM:  49    -0.693779542526E+03   -0.34374E+00   -0.15232E-02 15591   0.172E-01    0.181E+00
RMM:  50    -0.693998406228E+03   -0.21886E+00   -0.11039E-02 14512   0.149E-01    0.111E+00
RMM:  51    -0.694170549361E+03   -0.17214E+00   -0.51476E-03 13602   0.111E-01    0.563E-01
RMM:  52    -0.694247942136E+03   -0.77393E-01   -0.30746E-03 13491   0.857E-02    0.447E-01
RMM:  53    -0.694270708312E+03   -0.22766E-01   -0.28807E-03 13273   0.691E-02    0.363E-01
RMM:  54    -0.694303403653E+03   -0.32695E-01   -0.20875E-03 13156   0.555E-02    0.301E-01
RMM:  55    -0.694364802989E+03   -0.61399E-01   -0.23553E-03 13642   0.553E-02    0.264E-01
RMM:  56    -0.694407377417E+03   -0.42574E-01   -0.73709E-04 12182   0.386E-02    0.199E-01
RMM:  57    -0.694509837851E+03   -0.10246E+00   -0.12080E-03 12450   0.384E-02    0.249E-01
RMM:  58    -0.694567683630E+03   -0.57846E-01   -0.27336E-04  9944   0.229E-02    0.170E-01
RMM:  59    -0.694621796200E+03   -0.54113E-01   -0.22295E-04  9351   0.196E-02    0.137E-01
RMM:  60    -0.694643126429E+03   -0.21330E-01   -0.73466E-05  8196   0.143E-02    0.117E-01
RMM:  61    -0.694652753576E+03   -0.96271E-02   -0.50429E-05  8026   0.120E-02    0.110E-01
RMM:  62    -0.694663457159E+03   -0.10704E-01   -0.33163E-05  7823   0.928E-03    0.639E-02
RMM:  63    -0.694670181275E+03   -0.67241E-02   -0.26027E-05  7790   0.770E-03    0.388E-02
RMM:  64    -0.694672980709E+03   -0.27994E-02   -0.15198E-05  7099   0.608E-03    0.257E-02
RMM:  65    -0.694674136731E+03   -0.11560E-02   -0.88842E-06  6347   0.489E-03    0.195E-02
RMM:  66    -0.694674898097E+03   -0.76137E-03   -0.61538E-06  5383   0.397E-03    0.137E-02
RMM:  67    -0.694675672015E+03   -0.77392E-03   -0.49092E-06  5082   0.356E-03    0.922E-03
RMM:  68    -0.694676176847E+03   -0.50483E-03   -0.33488E-06  4561   0.336E-03    0.767E-03
RMM:  69    -0.694676652932E+03   -0.47609E-03   -0.35926E-06  4620   0.334E-03    0.684E-03
RMM:  70    -0.694676967662E+03   -0.31473E-03   -0.21486E-06  4095   0.314E-03    0.522E-03
RMM:  71    -0.694677089769E+03   -0.12211E-03   -0.55604E-07  3070   0.284E-03    0.414E-03
RMM:  72    -0.694677560354E+03   -0.47059E-03   -0.37269E-06  4465   0.316E-03    0.404E-03
RMM:  73    -0.694677866620E+03   -0.30627E-03   -0.30568E-06  4252   0.310E-03    0.316E-03
RMM:  74    -0.694678035549E+03   -0.16893E-03   -0.19210E-06  3683   0.297E-03    0.231E-03
RMM:  75    -0.694678131881E+03   -0.96332E-04   -0.14626E-06  3484   0.295E-03
   1 F= -.69467813E+03 E0= -.69406051E+03  d E =-.694678E+03  mag=     7.5425
       N       E                     dE             d eps       ncg     rms          rms(c)
DAV:   1    -0.694472942889E+03    0.20509E+00   -0.19325E+02 13888   0.174E+01    0.492E+00
RMM:   2    -0.695871735474E+03   -0.13988E+01   -0.68046E+00 13440   0.517E+00    0.203E+01
RMM:   3    -0.695343701865E+03    0.52803E+00   -0.21031E+00 15994   0.203E+00    0.124E+01
RMM:   4    -0.695543533172E+03   -0.19983E+00   -0.21650E-01 13571   0.733E-01    0.118E+01
RMM:   5    -0.695029452813E+03    0.51408E+00   -0.14267E-01 13493   0.618E-01    0.721E+00
RMM:   6    -0.694955884760E+03    0.73568E-01   -0.94883E-02 13598   0.463E-01    0.512E+00
RMM:   7    -0.694895750781E+03    0.60134E-01   -0.93362E-02 14250   0.447E-01    0.390E+00
RMM:   8    -0.694887544704E+03    0.82061E-02   -0.40713E-02 13611   0.317E-01    0.298E+00
RMM:   9    -0.694868974134E+03    0.18571E-01   -0.19556E-02 13744   0.236E-01    0.195E+00
RMM:  10    -0.694860780239E+03    0.81939E-02   -0.67458E-03 14902   0.116E-01    0.158E+00
RMM:  11    -0.694855971670E+03    0.48086E-02   -0.17543E-03 12835   0.665E-02    0.134E+00
RMM:  12    -0.694850482449E+03    0.54892E-02   -0.44786E-03 13964   0.823E-02    0.980E-01
RMM:  13    -0.694848377684E+03    0.21048E-02   -0.21560E-03 13339   0.627E-02    0.731E-01
RMM:  14    -0.694848191545E+03    0.18614E-03   -0.75604E-04 12451   0.398E-02    0.625E-01
RMM:  15    -0.694848950896E+03   -0.75935E-03   -0.22425E-04  9003   0.230E-02    0.524E-01
RMM:  16    -0.694851538661E+03   -0.25878E-02   -0.21385E-04  8778   0.233E-02    0.353E-01
RMM:  17    -0.694854593904E+03   -0.30552E-02   -0.24942E-04  9093   0.231E-02    0.202E-01
RMM:  18    -0.694856677185E+03   -0.20833E-02   -0.13959E-04  8382   0.184E-02    0.127E-01
RMM:  19    -0.694859777947E+03   -0.31008E-02   -0.15149E-04  8432   0.175E-02    0.749E-02
RMM:  20    -0.694862591468E+03   -0.28135E-02   -0.86255E-05  8021   0.145E-02    0.654E-02
RMM:  21    -0.694865989772E+03   -0.33983E-02   -0.82654E-05  7980   0.131E-02    0.684E-02
RMM:  22    -0.694869067392E+03   -0.30776E-02   -0.60841E-05  7641   0.112E-02    0.838E-02
RMM:  23    -0.694871308413E+03   -0.22410E-02   -0.29027E-05  6885   0.832E-03    0.716E-02
RMM:  24    -0.694873217468E+03   -0.19091E-02   -0.21923E-05  6338   0.592E-03    0.589E-02
RMM:  25    -0.694875319535E+03   -0.21021E-02   -0.28205E-05  7135   0.619E-03    0.446E-02
RMM:  26    -0.694877078821E+03   -0.17593E-02   -0.33719E-05  7059   0.631E-03    0.375E-02
RMM:  27    -0.694878414143E+03   -0.13353E-02   -0.35191E-05  7159   0.667E-03    0.335E-02
RMM:  28    -0.694879127799E+03   -0.71366E-03   -0.21242E-05  5900   0.580E-03    0.264E-02
RMM:  29    -0.694879578224E+03   -0.45042E-03   -0.14524E-05  5255   0.482E-03    0.206E-02
RMM:  30    -0.694879926939E+03   -0.34871E-03   -0.10180E-05  4921   0.430E-03    0.148E-02
RMM:  31    -0.694880139785E+03   -0.21285E-03   -0.56787E-06  4472   0.386E-03    0.113E-02
RMM:  32    -0.694880289023E+03   -0.14924E-03   -0.25403E-06  3648   0.326E-03    0.796E-03
RMM:  33    -0.694880466327E+03   -0.17730E-03   -0.12137E-06  3098   0.297E-03    0.568E-03
RMM:  34    -0.694880683752E+03   -0.21742E-03   -0.11258E-06  3143   0.293E-03    0.665E-03
RMM:  35    -0.694880843507E+03   -0.15975E-03   -0.98048E-07  3038   0.288E-03    0.659E-03
RMM:  36    -0.694881101756E+03   -0.25825E-03   -0.23868E-06  3853   0.303E-03    0.656E-03
RMM:  37    -0.694881295804E+03   -0.19405E-03   -0.16276E-06  3298   0.288E-03    0.597E-03
RMM:  38    -0.694881419306E+03   -0.12350E-03   -0.10587E-06  2914   0.278E-03    0.489E-03
RMM:  39    -0.694881511279E+03   -0.91973E-04   -0.93026E-07  2777   0.276E-03
   2 F= -.69488151E+03 E0= -.69427097E+03  d E =-.203379E+00  mag=     7.8628
       N       E                     dE             d eps       ncg     rms          rms(c)
DAV:   1    -0.694890768742E+03   -0.93494E-02   -0.24104E+01 13856   0.609E+00    0.242E+00
RMM:   2    -0.694950626378E+03   -0.59858E-01   -0.41141E-01 13440   0.124E+00    0.302E+00
RMM:   3    -0.694930070652E+03    0.20556E-01   -0.91978E-02 14267   0.493E-01    0.111E+00
RMM:   4    -0.695043199053E+03   -0.11313E+00   -0.34165E-02 13495   0.294E-01    0.483E+00
RMM:   5    -0.694930022205E+03    0.11318E+00   -0.12193E-02 13481   0.209E-01    0.128E+00
RMM:   6    -0.694925870807E+03    0.41514E-02   -0.96264E-03 13594   0.154E-01    0.966E-01
RMM:   7    -0.694921796123E+03    0.40747E-02   -0.45281E-03 13407   0.109E-01    0.342E-01
RMM:   8    -0.694921348419E+03    0.44770E-03   -0.15217E-03 13207   0.617E-02    0.267E-01
RMM:   9    -0.694921182531E+03    0.16589E-03   -0.44911E-04 10882   0.328E-02    0.136E-01
RMM:  10    -0.694921365101E+03   -0.18257E-03   -0.15608E-04  8534   0.200E-02    0.133E-01
RMM:  11    -0.694921725382E+03   -0.36028E-03   -0.18572E-04  8554   0.195E-02    0.109E-01
RMM:  12    -0.694922085992E+03   -0.36061E-03   -0.14620E-04  8339   0.175E-02    0.732E-02
RMM:  13    -0.694922300074E+03   -0.21408E-03   -0.38368E-05  7818   0.132E-02    0.367E-02
RMM:  14    -0.694922470462E+03   -0.17039E-03   -0.10409E-05  7021   0.576E-03    0.251E-02
RMM:  15    -0.694922688960E+03   -0.21850E-03   -0.60647E-06  6215   0.431E-03    0.194E-02
RMM:  16    -0.694923042143E+03   -0.35318E-03   -0.71793E-06  6085   0.394E-03    0.148E-02
RMM:  17    -0.694923410030E+03   -0.36789E-03   -0.49920E-06  4879   0.353E-03    0.123E-02
RMM:  18    -0.694923712625E+03   -0.30260E-03   -0.37530E-06  4210   0.334E-03    0.108E-02
RMM:  19    -0.694923982731E+03   -0.27011E-03   -0.32611E-06  3950   0.325E-03    0.123E-02
RMM:  20    -0.694924534981E+03   -0.55225E-03   -0.11523E-05  5789   0.406E-03    0.153E-02
RMM:  21    -0.694924898691E+03   -0.36371E-03   -0.70328E-06  4849   0.360E-03    0.123E-02
RMM:  22    -0.694925189786E+03   -0.29110E-03   -0.63946E-06  4835   0.365E-03    0.105E-02
RMM:  23    -0.694925318983E+03   -0.12920E-03   -0.26383E-06  3777   0.324E-03    0.776E-03
RMM:  24    -0.694925475437E+03   -0.15645E-03   -0.27508E-06  3704   0.310E-03    0.622E-03
RMM:  25    -0.694925640259E+03   -0.16482E-03   -0.35546E-06  4181   0.322E-03    0.357E-03
RMM:  26    -0.694925738649E+03   -0.98390E-04   -0.15876E-06  3393   0.304E-03
   3 F= -.69492574E+03 E0= -.69431398E+03  d E =-.247607E+00  mag=     7.7839
       N       E                     dE             d eps       ncg     rms          rms(c)
DAV:   1    -0.694736448769E+03    0.18919E+00   -0.45346E+01 13728   0.917E+00    0.242E+00
RMM:   2    -0.695085772545E+03   -0.34932E+00   -0.12148E+00 13440   0.225E+00    0.985E+00
RMM:   3    -0.694910076561E+03    0.17570E+00   -0.29300E-01 15241   0.841E-01    0.639E+00
RMM:   4    -0.694995790192E+03   -0.85714E-01   -0.48326E-02 14765   0.338E-01    0.735E+00
RMM:   5    -0.694882180521E+03    0.11361E+00   -0.23700E-02 13456   0.247E-01    0.518E+00
RMM:   6    -0.694851939344E+03    0.30241E-01   -0.44522E-02 14853   0.287E-01    0.354E+00
RMM:   7    -0.694832744048E+03    0.19195E-01   -0.35056E-02 15079   0.271E-01    0.201E+00
RMM:   8    -0.694826374233E+03    0.63698E-02   -0.71533E-03 13448   0.147E-01    0.168E+00
RMM:   9    -0.694824317049E+03    0.20572E-02   -0.29072E-03 13165   0.938E-02    0.146E+00
RMM:  10    -0.694820777023E+03    0.35400E-02   -0.24388E-03 13166   0.700E-02    0.108E+00
RMM:  11    -0.694818337325E+03    0.24397E-02   -0.27030E-03 13724   0.665E-02    0.743E-01
RMM:  12    -0.694817731456E+03    0.60587E-03   -0.26888E-03 14388   0.651E-02    0.442E-01
RMM:  13    -0.694817769301E+03   -0.37845E-04   -0.43712E-04 10888   0.328E-02
   4 F= -.69481777E+03 E0= -.69420607E+03  d E =0.107969E+00  mag=     7.7504
       N       E                     dE             d eps       ncg     rms          rms(c)
DAV:   1    -0.694957323097E+03   -0.13959E+00   -0.19965E+01 13776   0.605E+00    0.230E+00
RMM:   2    -0.695085597108E+03   -0.12827E+00   -0.40728E-01 13440   0.121E+00    0.518E+00
RMM:   3    -0.695037229706E+03    0.48367E-01   -0.86385E-02 14841   0.478E-01    0.372E+00
RMM:   4    -0.695131997553E+03   -0.94768E-01   -0.24561E-02 13478   0.274E-01    0.548E+00
RMM:   5    -0.695000207455E+03    0.13179E+00   -0.32883E-02 14032   0.276E-01    0.146E+00
RMM:   6    -0.695006303508E+03   -0.60961E-02   -0.14820E-02 13590   0.210E-01    0.169E+00
RMM:   7    -0.694994923065E+03    0.11380E-01   -0.48229E-03 13445   0.137E-01    0.105E+00
RMM:   8    -0.694995035559E+03   -0.11249E-03   -0.18592E-03 13353   0.671E-02    0.893E-01
RMM:   9    -0.694993119124E+03    0.19164E-02   -0.72465E-04 12135   0.474E-02    0.620E-01
RMM:  10    -0.694992336802E+03    0.78232E-03   -0.67823E-04 12179   0.373E-02    0.404E-01
RMM:  11    -0.694992171763E+03    0.16504E-03   -0.79887E-04 12174   0.358E-02    0.280E-01
RMM:  12    -0.694992188420E+03   -0.16657E-04   -0.23015E-04  8943   0.236E-02
   5 F= -.69499219E+03 E0= -.69438047E+03  d E =-.664498E-01  mag=     7.7541
       N       E                     dE             d eps       ncg     rms          rms(c)
DAV:   1    -0.694866804081E+03    0.12537E+00   -0.28795E+01 13760   0.752E+00    0.183E+00
RMM:   2    -0.695096924502E+03   -0.23012E+00   -0.70098E-01 13440   0.171E+00    0.761E+00
RMM:   3    -0.694976034979E+03    0.12089E+00   -0.15520E-01 14772   0.645E-01    0.489E+00
RMM:   4    -0.695023549873E+03   -0.47515E-01   -0.31999E-02 15561   0.274E-01    0.558E+00
RMM:   5    -0.694963840955E+03    0.59709E-01   -0.14785E-02 13440   0.188E-01    0.409E+00
RMM:   6    -0.694944371551E+03    0.19469E-01   -0.25914E-02 14912   0.228E-01    0.288E+00
RMM:   7    -0.694930299786E+03    0.14072E-01   -0.20192E-02 15005   0.206E-01    0.156E+00
RMM:   8    -0.694926893426E+03    0.34064E-02   -0.44594E-03 13365   0.117E-01    0.127E+00
RMM:   9    -0.694925166104E+03    0.17273E-02   -0.19489E-03 13175   0.751E-02    0.109E+00
RMM:  10    -0.694922801630E+03    0.23645E-02   -0.15985E-03 13060   0.566E-02    0.814E-01
RMM:  11    -0.694921079300E+03    0.17223E-02   -0.18185E-03 13648   0.548E-02    0.560E-01
RMM:  12    -0.694920305794E+03    0.77351E-03   -0.17113E-03 13759   0.533E-02    0.329E-01
RMM:  13    -0.694920247856E+03    0.57938E-04   -0.29333E-04  9505   0.283E-02
   6 F= -.69492025E+03 E0= -.69430811E+03  d E =0.719406E-01  mag=     7.7534
       N       E                     dE             d eps       ncg     rms          rms(c)
DAV:   1    -0.695001504650E+03   -0.81199E-01   -0.13702E+01 13648   0.518E+00    0.190E+00
RMM:   2    -0.695072000714E+03   -0.70496E-01   -0.28090E-01 13440   0.101E+00    0.379E+00
RMM:   3    -0.695057806507E+03    0.14194E-01   -0.58871E-02 14753   0.399E-01    0.311E+00
RMM:   4    -0.695127353951E+03   -0.69547E-01   -0.17772E-02 13463   0.233E-01    0.464E+00
RMM:   5    -0.695030179787E+03    0.97174E-01   -0.15464E-02 13618   0.210E-01    0.156E+00
RMM:   6    -0.695038442942E+03   -0.82632E-02   -0.16259E-02 14336   0.192E-01    0.165E+00
RMM:   7    -0.695028840439E+03    0.96025E-02   -0.52003E-03 13445   0.134E-01    0.983E-01
RMM:   8    -0.695028811338E+03    0.29102E-04   -0.19374E-03 12945   0.733E-02    0.863E-01
RMM:   9    -0.695027339247E+03    0.14721E-02   -0.68793E-04 11976   0.474E-02    0.737E-01
RMM:  10    -0.695026454368E+03    0.88488E-03   -0.51481E-04 11442   0.336E-02    0.557E-01
RMM:  11    -0.695025847184E+03    0.60718E-03   -0.85765E-04 12276   0.380E-02    0.397E-01
RMM:  12    -0.695025711097E+03    0.13609E-03   -0.26085E-04  9234   0.252E-02    0.339E-01
RMM:  13    -0.695025694731E+03    0.16366E-04   -0.65937E-05  8012   0.164E-02
   7 F= -.69502569E+03 E0= -.69441384E+03  d E =-.335063E-01  mag=     7.7550
       N       E                     dE             d eps       ncg     rms          rms(c)
DAV:   1    -0.695045947070E+03   -0.20236E-01   -0.98060E+00 13840   0.445E+00    0.894E-01
RMM:   2    -0.695122709985E+03   -0.76763E-01   -0.19241E-01 13440   0.872E-01    0.400E+00
RMM:   3    -0.695071043804E+03    0.51666E-01   -0.41645E-02 14525   0.352E-01    0.190E+00
RMM:   4    -0.695078285512E+03   -0.72417E-02   -0.99090E-03 16282   0.153E-01    0.213E+00
RMM:   5    -0.695070753142E+03    0.75324E-02   -0.33003E-03 13357   0.888E-02    0.174E+00
RMM:   6    -0.695066624427E+03    0.41287E-02   -0.65033E-03 14753   0.112E-01    0.112E+00
RMM:   7    -0.695063586110E+03    0.30383E-02   -0.39643E-03 14371   0.982E-02    0.561E-01
RMM:   8    -0.695062692731E+03    0.89338E-03   -0.10197E-03 12819   0.558E-02    0.419E-01
RMM:   9    -0.695062409887E+03    0.28284E-03   -0.33935E-04 10375   0.308E-02    0.358E-01
RMM:  10    -0.695062103569E+03    0.30632E-03   -0.20443E-04  8828   0.234E-02    0.289E-01
RMM:  11    -0.695061672709E+03    0.43086E-03   -0.54620E-04 11134   0.298E-02    0.160E-01
RMM:  12    -0.695061571500E+03    0.10121E-03   -0.18577E-04  8395   0.216E-02    0.883E-02
RMM:  13    -0.695061561746E+03    0.97547E-05   -0.48334E-05  7961   0.152E-02
   8 F= -.69506156E+03 E0= -.69444947E+03  d E =-.358670E-01  mag=     7.7460
       N       E                     dE             d eps       ncg     rms          rms(c)
DAV:   1    -0.695068502886E+03   -0.69314E-02   -0.79092E-01 13824   0.127E+00    0.327E-01
RMM:   2    -0.695071516963E+03   -0.30141E-02   -0.14642E-02 13440   0.230E-01    0.784E-01
RMM:   3    -0.695070598449E+03    0.91851E-03   -0.30339E-03 14743   0.937E-02    0.537E-01
RMM:   4    -0.695073926005E+03   -0.33276E-02   -0.74375E-04 12743   0.461E-02    0.940E-01
RMM:   5    -0.695070243028E+03    0.36830E-02   -0.57905E-04 12313   0.422E-02    0.350E-01
RMM:   6    -0.695070464742E+03   -0.22171E-03   -0.56255E-04 11740   0.361E-02    0.305E-01
RMM:   7    -0.695070193726E+03    0.27102E-03   -0.25022E-04  9511   0.290E-02    0.156E-01
RMM:   8    -0.695070167227E+03    0.26499E-04   -0.86159E-05  7714   0.184E-02
   9 F= -.69507017E+03 E0= -.69445813E+03  d E =-.444725E-01  mag=     7.7428
       N       E                     dE             d eps       ncg     rms          rms(c)
DAV:   1    -0.695051010031E+03    0.19184E-01   -0.52540E+00 13712   0.338E+00    0.573E-01
RMM:   2    -0.695071245722E+03   -0.20236E-01   -0.94191E-02 13440   0.587E-01    0.177E+00
RMM:   3    -0.695062348285E+03    0.88974E-02   -0.18637E-02 14677   0.240E-01    0.865E-01
RMM:   4    -0.695066601437E+03   -0.42532E-02   -0.41002E-03 15261   0.105E-01    0.118E+00
RMM:   5    -0.695061785107E+03    0.48163E-02   -0.14139E-03 13235   0.642E-02    0.705E-01
RMM:   6    -0.695061424213E+03    0.36089E-03   -0.21308E-03 13888   0.675E-02    0.482E-01
RMM:   7    -0.695060839216E+03    0.58500E-03   -0.10149E-03 12807   0.551E-02    0.252E-01
RMM:   8    -0.695060687120E+03    0.15210E-03   -0.32455E-04 10254   0.310E-02    0.180E-01
RMM:   9    -0.695060643406E+03    0.43714E-04   -0.92716E-05  8131   0.188E-02
  10 F= -.69506064E+03 E0= -.69444840E+03  d E =0.952382E-02  mag=     7.7416
       N       E                     dE             d eps       ncg     rms          rms(c)
DAV:   1    -0.695082037708E+03   -0.21351E-01   -0.16580E+00 14080   0.190E+00    0.372E-01
RMM:   2    -0.695091101270E+03   -0.90636E-02   -0.29244E-02 13440   0.324E-01    0.121E+00
RMM:   3    -0.695085346731E+03    0.57545E-02   -0.55496E-03 14389   0.134E-01    0.450E-01
RMM:   4    -0.695086410887E+03   -0.10642E-02   -0.13609E-03 13688   0.643E-02    0.599E-01
RMM:   5    -0.695084885343E+03    0.15255E-02   -0.58969E-04 12432   0.440E-02    0.280E-01
RMM:   6    -0.695084968847E+03   -0.83504E-04   -0.53036E-04 11868   0.371E-02    0.238E-01
RMM:   7    -0.695084823190E+03    0.14566E-03   -0.32679E-04  9919   0.314E-02    0.146E-01
RMM:   8    -0.695084720047E+03    0.10314E-03   -0.97078E-05  7989   0.194E-02    0.763E-02
RMM:   9    -0.695084710667E+03    0.93804E-05   -0.35004E-05  7453   0.112E-02
  11 F= -.69508471E+03 E0= -.69447259E+03  d E =-.145434E-01  mag=     7.7398
       N       E                     dE             d eps       ncg     rms          rms(c)
DAV:   1    -0.695073614077E+03    0.11106E-01   -0.30437E+00 13600   0.264E+00    0.461E-01
RMM:   2    -0.695081739485E+03   -0.81254E-02   -0.58008E-02 13440   0.463E-01    0.105E+00
RMM:   3    -0.695080314248E+03    0.14252E-02   -0.11122E-02 14658   0.185E-01    0.615E-01
RMM:   4    -0.695086111965E+03   -0.57977E-02   -0.23017E-03 13850   0.857E-02    0.119E+00
RMM:   5    -0.695080376107E+03    0.57359E-02   -0.10205E-03 12967   0.597E-02    0.598E-01
RMM:   6    -0.695079744851E+03    0.63126E-03   -0.10005E-03 12938   0.499E-02    0.369E-01
RMM:   7    -0.695079477940E+03    0.26691E-03   -0.67138E-04 12515   0.430E-02    0.258E-01
RMM:   8    -0.695079300937E+03    0.17700E-03   -0.18288E-04  8798   0.257E-02    0.193E-01
RMM:   9    -0.695079244213E+03    0.56724E-04   -0.71925E-05  8071   0.168E-02
  12 F= -.69507924E+03 E0= -.69446702E+03  d E =0.546645E-02  mag=     7.7341
       N       E                     dE             d eps       ncg     rms          rms(c)
DAV:   1    -0.695092819113E+03   -0.13518E-01   -0.95571E-01 13920   0.148E+00    0.270E-01
RMM:   2    -0.695097158207E+03   -0.43391E-02   -0.18220E-02 13440   0.260E-01    0.851E-01
RMM:   3    -0.695095028216E+03    0.21300E-02   -0.33308E-03 14112   0.107E-01    0.350E-01
RMM:   4    -0.695095402489E+03   -0.37427E-03   -0.83154E-04 13086   0.509E-02    0.432E-01
RMM:   5    -0.695094893787E+03    0.50870E-03   -0.31533E-04 10046   0.325E-02    0.292E-01
RMM:   6    -0.695094937637E+03   -0.43850E-04   -0.27660E-04  9732   0.292E-02    0.238E-01
RMM:   7    -0.695094840539E+03    0.97098E-04   -0.24325E-04  9071   0.273E-02    0.128E-01
RMM:   8    -0.695094799108E+03    0.41432E-04   -0.80230E-05  7819   0.179E-02
  13 F= -.69509480E+03 E0= -.69448262E+03  d E =-.100884E-01  mag=     7.7317
       N       E                     dE             d eps       ncg     rms          rms(c)
DAV:   1    -0.695100116986E+03   -0.52764E-02   -0.83706E-01 13776   0.143E+00    0.232E-01
RMM:   2    -0.695102081694E+03   -0.19647E-02   -0.17283E-02 13440   0.255E-01    0.461E-01
RMM:   3    -0.695102011651E+03    0.70042E-04   -0.31545E-03 14477   0.101E-01    0.263E-01
RMM:   4    -0.695103340901E+03   -0.13292E-02   -0.69376E-04 12779   0.470E-02    0.556E-01
RMM:   5    -0.695102023451E+03    0.13174E-02   -0.30058E-04  9632   0.323E-02    0.272E-01
RMM:   6    -0.695101910615E+03    0.11284E-03   -0.17386E-04  8330   0.246E-02    0.159E-01
RMM:   7    -0.695101885081E+03    0.25534E-04   -0.12723E-04  8142   0.200E-02    0.998E-02
RMM:   8    -0.695101878191E+03    0.68899E-05   -0.54197E-05  7850   0.152E-02
  14 F= -.69510188E+03 E0= -.69448971E+03  d E =-.707908E-02  mag=     7.7321
       N       E                     dE             d eps       ncg     rms          rms(c)
DAV:   1    -0.695102628717E+03   -0.74364E-03   -0.51449E-02 13632   0.354E-01    0.716E-02
RMM:   2    -0.695103163157E+03   -0.53444E-03   -0.10980E-03 13285   0.645E-02    0.304E-01
RMM:   3    -0.695102808699E+03    0.35446E-03   -0.20619E-04  8021   0.280E-02    0.138E-01
RMM:   4    -0.695102730567E+03    0.78133E-04   -0.51898E-05  7313   0.165E-02    0.531E-02
RMM:   5    -0.695102748538E+03   -0.17971E-04   -0.15836E-05  7093   0.772E-03    0.572E-02
RMM:   6    -0.695102749713E+03   -0.11746E-05   -0.11638E-05  6626   0.617E-03    0.480E-02
RMM:   7    -0.695102768402E+03   -0.18689E-04   -0.14275E-05  7081   0.687E-03    0.413E-02
RMM:   8    -0.695102769888E+03   -0.14859E-05   -0.55243E-06  6330   0.484E-03
  15 F= -.69510277E+03 E0= -.69449056E+03  d E =-.797078E-02  mag=     7.7321
       N       E                     dE             d eps       ncg     rms          rms(c)
DAV:   1    -0.695107683461E+03   -0.49151E-02   -0.47104E-01 13904   0.106E+00    0.184E-01
RMM:   2    -0.695109616481E+03   -0.19330E-02   -0.96935E-03 13440   0.191E-01    0.546E-01
RMM:   3    -0.695108806210E+03    0.81027E-03   -0.18620E-03 14416   0.763E-02    0.279E-01
RMM:   4    -0.695109483166E+03   -0.67696E-03   -0.36999E-04 10539   0.363E-02    0.441E-01
RMM:   5    -0.695108740591E+03    0.74257E-03   -0.21638E-04  8535   0.287E-02    0.248E-01
RMM:   6    -0.695108648001E+03    0.92589E-04   -0.14398E-04  8102   0.229E-02    0.177E-01
RMM:   7    -0.695108561395E+03    0.86607E-04   -0.94475E-05  7952   0.175E-02    0.942E-02
RMM:   8    -0.695108551182E+03    0.10213E-04   -0.46098E-05  7619   0.134E-02
  16 F= -.69510855E+03 E0= -.69449649E+03  d E =-.578129E-02  mag=     7.7337
       N       E                     dE             d eps       ncg     rms          rms(c)
DAV:   1    -0.695108538530E+03    0.22864E-04   -0.51660E-05  9024   0.205E-02    0.678E-02
RMM:   2    -0.695109244691E+03   -0.70616E-03   -0.13458E-04  7742   0.185E-02    0.364E-01
RMM:   3    -0.695108577685E+03    0.66701E-03   -0.78470E-05  7292   0.189E-02    0.115E-01
RMM:   4    -0.695108530440E+03    0.47245E-04   -0.22685E-05  6983   0.873E-03    0.445E-02
RMM:   5    -0.695108528605E+03    0.18351E-05   -0.77633E-06  6461   0.550E-03    0.249E-02
RMM:   6    -0.695108531071E+03   -0.24655E-05   -0.27388E-06  5257   0.374E-03    0.155E-02
RMM:   7    -0.695108534976E+03   -0.39054E-05   -0.86706E-07  3396   0.302E-03    0.108E-02
RMM:   8    -0.695108538812E+03   -0.38361E-05   -0.17689E-08  1576   0.261E-03
  17 F= -.69510854E+03 E0= -.69449655E+03  d E =-.576892E-02  mag=     7.7352
       N       E                     dE             d eps       ncg     rms          rms(c)
DAV:   1    -0.695112316202E+03   -0.37812E-02   -0.10050E-01 13920   0.488E-01    0.822E-02
RMM:   2    -0.695112693724E+03   -0.37752E-03   -0.20360E-03 13398   0.881E-02    0.242E-01
RMM:   3    -0.695112554691E+03    0.13903E-03   -0.38313E-04 10622   0.350E-02    0.127E-01
RMM:   4    -0.695112738752E+03   -0.18406E-03   -0.87158E-05  7842   0.198E-02    0.226E-01
RMM:   5    -0.695112535580E+03    0.20317E-03   -0.46389E-05  7471   0.139E-02    0.114E-01
RMM:   6    -0.695112520166E+03    0.15414E-04   -0.29991E-05  7278   0.101E-02    0.978E-02
RMM:   7    -0.695112491849E+03    0.28317E-04   -0.17839E-05  6969   0.796E-03    0.524E-02
RMM:   8    -0.695112488571E+03    0.32774E-05   -0.10938E-05  6712   0.603E-03
  18 F= -.69511249E+03 E0= -.69450057E+03  d E =-.394976E-02  mag=     7.7373
       N       E                     dE             d eps       ncg     rms          rms(c)
DAV:   1    -0.695114367891E+03   -0.18760E-02   -0.79917E-01 13856   0.138E+00    0.239E-01
RMM:   2    -0.695116738416E+03   -0.23705E-02   -0.16253E-02 13440   0.250E-01    0.578E-01
RMM:   3    -0.695116233530E+03    0.50489E-03   -0.31919E-03 14751   0.986E-02    0.337E-01
RMM:   4    -0.695118283250E+03   -0.20497E-02   -0.68098E-04 12881   0.480E-02    0.712E-01
RMM:   5    -0.695116131091E+03    0.21522E-02   -0.34921E-04 10810   0.355E-02    0.321E-01
RMM:   6    -0.695115998864E+03    0.13223E-03   -0.21772E-04  8767   0.267E-02    0.262E-01
RMM:   7    -0.695115831383E+03    0.16748E-03   -0.13599E-04  8239   0.213E-02    0.163E-01
RMM:   8    -0.695115835120E+03   -0.37369E-05   -0.76023E-05  7918   0.161E-02
  19 F= -.69511584E+03 E0= -.69450409E+03  d E =-.729631E-02  mag=     7.7416
       N       E                     dE             d eps       ncg     rms          rms(c)
DAV:   1    -0.695116113185E+03   -0.28180E-03   -0.72517E-02 14144   0.416E-01    0.138E-01
RMM:   2    -0.695118773534E+03   -0.26603E-02   -0.18265E-03 13381   0.817E-02    0.710E-01
RMM:   3    -0.695116483630E+03    0.22899E-02   -0.40311E-04 11281   0.416E-02    0.243E-01
RMM:   4    -0.695116199334E+03    0.28430E-03   -0.12744E-04  7596   0.230E-02    0.831E-02
RMM:   5    -0.695116206410E+03   -0.70762E-05   -0.37965E-05  7248   0.137E-02    0.731E-02
RMM:   6    -0.695116231825E+03   -0.25415E-04   -0.27002E-05  7177   0.852E-03    0.734E-02
RMM:   7    -0.695116252728E+03   -0.20903E-04   -0.22268E-05  7054   0.896E-03    0.516E-02
RMM:   8    -0.695116260228E+03   -0.75005E-05   -0.10986E-05  6650   0.631E-03
  20 F= -.69511626E+03 E0= -.69450455E+03  d E =-.772142E-02  mag=     7.7444
       N       E                     dE             d eps       ncg     rms          rms(c)
DAV:   1    -0.695122234291E+03   -0.59816E-02   -0.17958E-01 13968   0.658E-01    0.106E-01
RMM:   2    -0.695122808520E+03   -0.57423E-03   -0.37133E-03 13432   0.120E-01    0.275E-01
RMM:   3    -0.695122666696E+03    0.14182E-03   -0.67006E-04 12636   0.466E-02    0.154E-01
RMM:   4    -0.695122956646E+03   -0.28995E-03   -0.14029E-04  8121   0.231E-02    0.269E-01
RMM:   5    -0.695122715513E+03    0.24113E-03   -0.71240E-05  7714   0.182E-02    0.162E-01
RMM:   6    -0.695122662222E+03    0.53291E-04   -0.50737E-05  7510   0.127E-02    0.946E-02
RMM:   7    -0.695122667051E+03   -0.48295E-05   -0.34448E-05  7371   0.105E-02    0.535E-02
RMM:   8    -0.695122674002E+03   -0.69506E-05   -0.14803E-05  6859   0.781E-03
  21 F= -.69512267E+03 E0= -.69451115E+03  d E =-.641377E-02  mag=     7.7467
       N       E                     dE             d eps       ncg     rms          rms(c)
DAV:   1    -0.695124206984E+03   -0.15399E-02   -0.63439E-02 14048   0.392E-01    0.858E-02
RMM:   2    -0.695124363123E+03   -0.15614E-03   -0.13510E-03 13300   0.721E-02    0.120E-01
RMM:   3    -0.695124367930E+03   -0.48070E-05   -0.24479E-04  8630   0.282E-02    0.706E-02
RMM:   4    -0.695124666048E+03   -0.29812E-03   -0.78000E-05  7678   0.182E-02    0.249E-01
RMM:   5    -0.695124395854E+03    0.27019E-03   -0.33263E-05  7412   0.121E-02    0.862E-02
RMM:   6    -0.695124383864E+03    0.11990E-04   -0.19011E-05  7154   0.786E-03    0.526E-02
RMM:   7    -0.695124384917E+03   -0.10522E-05   -0.81100E-06  6369   0.604E-03    0.391E-02
RMM:   8    -0.695124393454E+03   -0.85369E-05   -0.39846E-06  5777   0.409E-03
  22 F= -.69512439E+03 E0= -.69451300E+03  d E =-.813323E-02  mag=     7.7488
       N       E                     dE             d eps       ncg     rms          rms(c)
DAV:   1    -0.695124553554E+03   -0.16864E-03   -0.12866E-02 14240   0.176E-01    0.426E-02
RMM:   2    -0.695124611417E+03   -0.57863E-04   -0.28686E-04  8448   0.328E-02    0.874E-02
RMM:   3    -0.695124602849E+03    0.85683E-05   -0.46657E-05  7278   0.154E-02    0.594E-02
RMM:   4    -0.695124593133E+03    0.97155E-05   -0.11193E-05  7007   0.710E-03    0.351E-02
RMM:   5    -0.695124606464E+03   -0.13330E-04   -0.71991E-06  6529   0.537E-03    0.416E-02
RMM:   6    -0.695124608479E+03   -0.20150E-05   -0.47590E-06  5995   0.464E-03    0.256E-02
RMM:   7    -0.695124611311E+03   -0.28325E-05   -0.12963E-06  3801   0.321E-03    0.139E-02
RMM:   8    -0.695124615014E+03   -0.37022E-05   -0.17463E-07  2117   0.276E-03
  23 F= -.69512462E+03 E0= -.69451327E+03  d E =-.835479E-02  mag=     7.7504
       N       E                     dE             d eps       ncg     rms          rms(c)
DAV:   1    -0.695129749487E+03   -0.51382E-02   -0.79577E-02 13808   0.455E-01    0.750E-02
RMM:   2    -0.695129965078E+03   -0.21559E-03   -0.17766E-03 13379   0.839E-02    0.169E-01
RMM:   3    -0.695129962167E+03    0.29103E-05   -0.29887E-04  9195   0.317E-02    0.103E-01
RMM:   4    -0.695130191335E+03   -0.22917E-03   -0.78174E-05  7659   0.184E-02    0.224E-01
RMM:   5    -0.695129960670E+03    0.23067E-03   -0.37018E-05  7384   0.126E-02    0.975E-02
RMM:   6    -0.695129961893E+03   -0.12232E-05   -0.99160E-06  6714   0.625E-03    0.926E-02
RMM:   7    -0.695129976374E+03   -0.14482E-04   -0.89658E-06  6597   0.512E-03    0.872E-02
RMM:   8    -0.695129982421E+03   -0.60469E-05   -0.72958E-06  6597   0.529E-03
  24 F= -.69512998E+03 E0= -.69451886E+03  d E =-.536741E-02  mag=     7.7513
       N       E                     dE             d eps       ncg     rms          rms(c)
DAV:   1    -0.695132544391E+03   -0.25680E-02   -0.29145E-01 13728   0.870E-01    0.172E-01
RMM:   2    -0.695133269939E+03   -0.72555E-03   -0.65324E-03 13440   0.161E-01    0.336E-01
RMM:   3    -0.695133442354E+03   -0.17242E-03   -0.11467E-03 13209   0.609E-02    0.314E-01
RMM:   4    -0.695134092871E+03   -0.65052E-03   -0.33430E-04 10410   0.354E-02    0.452E-01
RMM:   5    -0.695133289335E+03    0.80354E-03   -0.15007E-04  8065   0.227E-02    0.246E-01
RMM:   6    -0.695133263919E+03    0.25416E-04   -0.63896E-05  7741   0.164E-02    0.291E-01
RMM:   7    -0.695133252925E+03    0.10994E-04   -0.39801E-05  7622   0.109E-02    0.310E-01
RMM:   8    -0.695133365665E+03   -0.11274E-03   -0.17206E-04  7816   0.204E-02    0.424E-01
RMM:   9    -0.695133505265E+03   -0.13960E-03   -0.18882E-04  7836   0.223E-02    0.575E-01
RMM:  10    -0.695133617659E+03   -0.11239E-03   -0.88874E-05  7609   0.180E-02    0.666E-01
RMM:  11    -0.695133678824E+03   -0.61166E-04   -0.40155E-05  7306   0.119E-02
  25 F= -.69513368E+03 E0= -.69452271E+03  d E =-.906381E-02  mag=     7.7521
       N       E                     dE             d eps       ncg     rms          rms(c)
DAV:   1    -0.695135877613E+03   -0.22600E-02   -0.10259E-01 13984   0.519E-01    0.699E-01
RMM:   2    -0.695136015177E+03   -0.13756E-03   -0.34377E-03 13440   0.108E-01    0.616E-01
RMM:   3    -0.695139140998E+03   -0.31258E-02   -0.20383E-03 13384   0.814E-02    0.739E-01
RMM:   4    -0.695153794403E+03   -0.14653E-01   -0.28670E-03 14314   0.843E-02    0.180E+00
RMM:   5    -0.695136844548E+03    0.16950E-01   -0.19501E-03 13655   0.720E-02    0.417E-01
RMM:   6    -0.695135930296E+03    0.91425E-03   -0.46084E-04 11284   0.397E-02    0.121E-01
RMM:   7    -0.695135888779E+03    0.41517E-04   -0.15348E-04  8061   0.214E-02    0.989E-02
RMM:   8    -0.695135837883E+03    0.50896E-04   -0.44127E-05  7322   0.149E-02
  26 F= -.69513584E+03 E0= -.69452489E+03  d E =-.215906E-02  mag=     7.7529
       N       E                     dE             d eps       ncg     rms          rms(c)
DAV:   1    -0.695135839692E+03    0.49087E-04   -0.15054E-04  9488   0.236E-02    0.334E-02
RMM:   2    -0.695135887384E+03   -0.47692E-04   -0.50556E-05  7262   0.159E-02    0.974E-02
RMM:   3    -0.695135855626E+03    0.31758E-04   -0.16554E-05  7010   0.921E-03    0.570E-02
RMM:   4    -0.695135843428E+03    0.12198E-04   -0.34225E-06  5349   0.365E-03    0.260E-02
RMM:   5    -0.695135841648E+03    0.17805E-05   -0.73893E-07  3212   0.281E-03    0.138E-02
RMM:   6    -0.695135841133E+03    0.51427E-06   -0.76819E-09  1654   0.240E-03    0.887E-03
RMM:   7    -0.695135841767E+03   -0.63362E-06   -0.19504E-08  1545   0.245E-03    0.102E-02
RMM:   8    -0.695135841407E+03    0.36015E-06   -0.28023E-10  1433   0.240E-03
  27 F= -.69513584E+03 E0= -.69452492E+03  d E =-.216258E-02  mag=     7.7536
       N       E                     dE             d eps       ncg     rms          rms(c)
DAV:   1    -0.695138485718E+03   -0.26440E-02   -0.34875E-02 13888   0.302E-01    0.413E-02
RMM:   2    -0.695138555773E+03   -0.70056E-04   -0.70151E-04 12245   0.515E-02    0.802E-02
RMM:   3    -0.695138560867E+03   -0.50936E-05   -0.11194E-04  7317   0.208E-02    0.380E-02
RMM:   4    -0.695138562353E+03   -0.14858E-05   -0.21020E-05  7235   0.109E-02    0.424E-02
RMM:   5    -0.695138564700E+03   -0.23475E-05   -0.60124E-06  6762   0.479E-03    0.414E-02
RMM:   6    -0.695138566768E+03   -0.20678E-05   -0.23714E-06  4806   0.358E-03    0.435E-02
RMM:   7    -0.695138578367E+03   -0.11599E-04   -0.30425E-06  5085   0.344E-03    0.562E-02
RMM:   8    -0.695138565631E+03    0.12736E-04   -0.20013E-06  4695   0.347E-03
  28 F= -.69513857E+03 E0= -.69452766E+03  d E =-.272422E-02  mag=     7.7543
       N       E                     dE             d eps       ncg     rms          rms(c)
DAV:   1    -0.695140084554E+03   -0.15062E-02   -0.10752E-01 13712   0.531E-01    0.817E-02
RMM:   2    -0.695140307300E+03   -0.22275E-03   -0.21730E-03 13423   0.906E-02    0.148E-01
RMM:   3    -0.695140318910E+03   -0.11610E-04   -0.35973E-04 10266   0.356E-02    0.924E-02
RMM:   4    -0.695140662808E+03   -0.34390E-03   -0.91871E-05  7705   0.196E-02    0.268E-01
RMM:   5    -0.695140310464E+03    0.35234E-03   -0.39255E-05  7380   0.136E-02    0.868E-02
RMM:   6    -0.695140321585E+03   -0.11121E-04   -0.16198E-05  6994   0.720E-03    0.725E-02
RMM:   7    -0.695140334186E+03   -0.12602E-04   -0.10949E-05  6884   0.624E-03    0.760E-02
RMM:   8    -0.695140327062E+03    0.71246E-05   -0.71069E-06  6613   0.534E-03
  29 F= -.69514033E+03 E0= -.69452944E+03  d E =-.448566E-02  mag=     7.7549
       N       E                     dE             d eps       ncg     rms          rms(c)
DAV:   1    -0.695142067522E+03   -0.17333E-02   -0.56300E-02 13936   0.380E-01    0.742E-02
RMM:   2    -0.695142238105E+03   -0.17058E-03   -0.11637E-03 13297   0.660E-02    0.134E-01
RMM:   3    -0.695142251508E+03   -0.13403E-04   -0.20308E-04  8093   0.269E-02    0.129E-01
RMM:   4    -0.695142192253E+03    0.59256E-04   -0.47816E-05  7340   0.167E-02    0.521E-02
RMM:   5    -0.695142212221E+03   -0.19968E-04   -0.22862E-05  7241   0.875E-03    0.760E-02
RMM:   6    -0.695142198169E+03    0.14053E-04   -0.14033E-05  6830   0.775E-03    0.408E-02
RMM:   7    -0.695142198038E+03    0.13087E-06   -0.88378E-06  6451   0.557E-03    0.325E-02
RMM:   8    -0.695142191247E+03    0.67909E-05   -0.38100E-06  5694   0.434E-03
  30 F= -.69514219E+03 E0= -.69453135E+03  d E =-.186419E-02  mag=     7.7555
       N       E                     dE             d eps       ncg     rms          rms(c)
DAV:   1    -0.695142621322E+03   -0.42328E-03   -0.58599E-02 14032   0.388E-01    0.568E-02
RMM:   2    -0.695142751669E+03   -0.13035E-03   -0.11840E-03 13304   0.668E-02    0.110E-01
RMM:   3    -0.695142750044E+03    0.16249E-05   -0.19772E-04  8068   0.264E-02    0.560E-02
RMM:   4    -0.695142863557E+03   -0.11351E-03   -0.47710E-05  7446   0.160E-02    0.154E-01
RMM:   5    -0.695142750095E+03    0.11346E-03   -0.18386E-05  7251   0.856E-03    0.623E-02
RMM:   6    -0.695142753377E+03   -0.32819E-05   -0.79272E-06  6522   0.556E-03    0.528E-02
RMM:   7    -0.695142753776E+03   -0.39904E-06   -0.49383E-06  6112   0.439E-03    0.475E-02
RMM:   8    -0.695142754012E+03   -0.23584E-06   -0.48275E-06  6327   0.430E-03
  31 F= -.69514275E+03 E0= -.69453200E+03  d E =-.242695E-02  mag=     7.7561
       N       E                     dE             d eps       ncg     rms          rms(c)
DAV:   1    -0.695144424683E+03   -0.16709E-02   -0.56979E-02 13824   0.382E-01    0.666E-02
RMM:   2    -0.695144639122E+03   -0.21444E-03   -0.12010E-03 13308   0.679E-02    0.179E-01
RMM:   3    -0.695144549590E+03    0.89532E-04   -0.20241E-04  8164   0.267E-02    0.674E-02
RMM:   4    -0.695144609284E+03   -0.59694E-04   -0.48009E-05  7417   0.161E-02    0.123E-01
RMM:   5    -0.695144555885E+03    0.53399E-04   -0.20101E-05  7280   0.928E-03    0.782E-02
RMM:   6    -0.695144564051E+03   -0.81656E-05   -0.11564E-05  6796   0.629E-03    0.740E-02
RMM:   7    -0.695144557488E+03    0.65633E-05   -0.77096E-06  6474   0.554E-03    0.600E-02
RMM:   8    -0.695144546778E+03    0.10710E-04   -0.43403E-06  5873   0.436E-03
  32 F= -.69514455E+03 E0= -.69453379E+03  d E =-.179277E-02  mag=     7.7568
       N       E                     dE             d eps       ncg     rms          rms(c)
DAV:   1    -0.695144827583E+03   -0.27010E-03   -0.54350E-02 13920   0.373E-01    0.668E-02
RMM:   2    -0.695145021684E+03   -0.19410E-03   -0.11502E-03 13278   0.667E-02    0.149E-01
RMM:   3    -0.695144968877E+03    0.52807E-04   -0.19870E-04  8121   0.265E-02    0.949E-02
RMM:   4    -0.695144948517E+03    0.20360E-04   -0.40597E-05  7396   0.157E-02    0.513E-02
RMM:   5    -0.695144981586E+03   -0.33069E-04   -0.20770E-05  7292   0.794E-03    0.953E-02
RMM:   6    -0.695144972023E+03    0.95630E-05   -0.15854E-05  6903   0.767E-03    0.719E-02
RMM:   7    -0.695144958565E+03    0.13459E-04   -0.13000E-05  6835   0.647E-03    0.430E-02
RMM:   8    -0.695144946232E+03    0.12333E-04   -0.66940E-06  6370   0.541E-03
  33 F= -.69514495E+03 E0= -.69453430E+03  d E =-.219222E-02  mag=     7.7574
       N       E                     dE             d eps       ncg     rms          rms(c)
DAV:   1    -0.695145918827E+03   -0.96026E-03   -0.24801E-02 14112   0.249E-01    0.453E-02
RMM:   2    -0.695146011832E+03   -0.93005E-04   -0.53701E-04 10182   0.452E-02    0.101E-01
RMM:   3    -0.695145998267E+03    0.13565E-04   -0.90702E-05  7413   0.196E-02    0.845E-02
RMM:   4    -0.695145975252E+03    0.23015E-04   -0.18495E-05  7175   0.999E-03    0.431E-02
RMM:   5    -0.695145979715E+03   -0.44632E-05   -0.81244E-06  6726   0.528E-03    0.527E-02
RMM:   6    -0.695145976058E+03    0.36569E-05   -0.89443E-06  6675   0.539E-03    0.443E-02
RMM:   7    -0.695145965303E+03    0.10755E-04   -0.52660E-06  6137   0.487E-03    0.135E-02
RMM:   8    -0.695145965954E+03   -0.65094E-06   -0.17262E-06  4122   0.325E-03
  34 F= -.69514597E+03 E0= -.69453537E+03  d E =-.101972E-02  mag=     7.7581
       N       E                     dE             d eps       ncg     rms          rms(c)
DAV:   1    -0.695146367463E+03   -0.40216E-03   -0.44311E-02 13824   0.332E-01    0.572E-02
RMM:   2    -0.695146532337E+03   -0.16487E-03   -0.94466E-04 12493   0.603E-02    0.132E-01
RMM:   3    -0.695146502933E+03    0.29404E-04   -0.16467E-04  7849   0.244E-02    0.110E-01
RMM:   4    -0.695146467958E+03    0.34975E-04   -0.33397E-05  7306   0.139E-02    0.599E-02
RMM:   5    -0.695146471178E+03   -0.32205E-05   -0.12775E-05  7001   0.630E-03    0.664E-02
RMM:   6    -0.695146470697E+03    0.48152E-06   -0.13384E-05  6840   0.642E-03    0.613E-02
RMM:   7    -0.695146455893E+03    0.14804E-04   -0.12352E-05  6755   0.684E-03    0.312E-02
RMM:   8    -0.695146448403E+03    0.74897E-05   -0.57282E-06  6327   0.482E-03
  35 F= -.69514645E+03 E0= -.69453594E+03  d E =-.150217E-02  mag=     7.7591
       N       E                     dE             d eps       ncg     rms          rms(c)
DAV:   1    -0.695147841100E+03   -0.13852E-02   -0.83275E-03 13984   0.151E-01    0.338E-02
RMM:   2    -0.695148009545E+03   -0.16845E-03   -0.20210E-04  7776   0.283E-02    0.167E-01
RMM:   3    -0.695147867742E+03    0.14180E-03   -0.39366E-05  7250   0.147E-02    0.611E-02
RMM:   4    -0.695147863813E+03    0.39287E-05   -0.78102E-06  7042   0.618E-03    0.399E-02
RMM:   5    -0.695147859396E+03    0.44173E-05   -0.15667E-06  4561   0.332E-03    0.330E-02
RMM:   6    -0.695147860015E+03   -0.61927E-06   -0.27434E-06  5055   0.350E-03    0.335E-02
RMM:   7    -0.695147855787E+03    0.42277E-05   -0.21345E-06  4844   0.366E-03    0.123E-02
RMM:   8    -0.695147857415E+03   -0.16273E-05   -0.12753E-07  1766   0.261E-03
  36 F= -.69514786E+03 E0= -.69453737E+03  d E =-.140901E-02  mag=     7.7601
       N       E                     dE             d eps       ncg     rms          rms(c)
DAV:   1    -0.695149191260E+03   -0.13355E-02   -0.63110E-02 13776   0.415E-01    0.615E-02
RMM:   2    -0.695149356830E+03   -0.16557E-03   -0.13679E-03 13344   0.749E-02    0.139E-01
RMM:   3    -0.695149339784E+03    0.17047E-04   -0.22245E-04  8278   0.285E-02    0.736E-02
RMM:   4    -0.695149385650E+03   -0.45867E-04   -0.45122E-05  7368   0.160E-02    0.117E-01
RMM:   5    -0.695149345578E+03    0.40072E-04   -0.18923E-05  7272   0.841E-03    0.918E-02
RMM:   6    -0.695149338562E+03    0.70159E-05   -0.10782E-05  6769   0.621E-03    0.790E-02
RMM:   7    -0.695149332907E+03    0.56557E-05   -0.96040E-06  6890   0.562E-03    0.619E-02
RMM:   8    -0.695149316222E+03    0.16685E-04   -0.64880E-06  6428   0.503E-03
  37 F= -.69514932E+03 E0= -.69453889E+03  d E =-.286782E-02  mag=     7.7615
       N       E                     dE             d eps       ncg     rms          rms(c)
DAV:   1    -0.695150266827E+03   -0.93392E-03   -0.70822E-03 13952   0.137E-01    0.320E-02
RMM:   2    -0.695150287175E+03   -0.20347E-04   -0.14515E-04  7513   0.238E-02    0.520E-02
RMM:   3    -0.695150284898E+03    0.22769E-05   -0.20322E-05  7151   0.108E-02    0.311E-02
RMM:   4    -0.695150302977E+03   -0.18079E-04   -0.69763E-06  6924   0.522E-03    0.611E-02
RMM:   5    -0.695150289922E+03    0.13054E-04   -0.36908E-06  6072   0.437E-03    0.268E-02
RMM:   6    -0.695150291846E+03   -0.19237E-05   -0.12383E-06  3647   0.313E-03    0.192E-02
RMM:   7    -0.695150294454E+03   -0.26076E-05   -0.21805E-07  2610   0.277E-03    0.946E-03
RMM:   8    -0.695150296936E+03   -0.24827E-05   -0.99744E-09  1519   0.254E-03
  38 F= -.69515030E+03 E0= -.69453986E+03  d E =-.980714E-03  mag=     7.7627
       N       E                     dE             d eps       ncg     rms          rms(c)
DAV:   1    -0.695151961459E+03   -0.16670E-02   -0.63746E-02 13872   0.411E-01    0.528E-02
RMM:   2    -0.695152090853E+03   -0.12939E-03   -0.11998E-03 13215   0.698E-02    0.107E-01
RMM:   3    -0.695152098525E+03   -0.76722E-05   -0.20414E-04  8055   0.271E-02    0.620E-02
RMM:   4    -0.695152154083E+03   -0.55558E-04   -0.40405E-05  7291   0.148E-02    0.118E-01
RMM:   5    -0.695152091739E+03    0.62344E-04   -0.11011E-05  7122   0.687E-03    0.486E-02
RMM:   6    -0.695152099956E+03   -0.82169E-05   -0.58746E-06  6152   0.452E-03    0.655E-02
RMM:   7    -0.695152110238E+03   -0.10282E-04   -0.58910E-06  6464   0.459E-03    0.622E-02
RMM:   8    -0.695152105809E+03    0.44293E-05   -0.53571E-06  6558   0.442E-03
  39 F= -.69515211E+03 E0= -.69454168E+03  d E =-.278959E-02  mag=     7.7636
       N       E                     dE             d eps       ncg     rms          rms(c)
DAV:   1    -0.695152217349E+03   -0.10711E-03   -0.13531E-02 14112   0.189E-01    0.485E-02
RMM:   2    -0.695152280291E+03   -0.62942E-04   -0.27470E-04  8245   0.328E-02    0.104E-01
RMM:   3    -0.695152247716E+03    0.32575E-04   -0.40443E-05  7234   0.150E-02    0.429E-02
RMM:   4    -0.695152270324E+03   -0.22608E-04   -0.13568E-05  7149   0.750E-03    0.659E-02
RMM:   5    -0.695152260209E+03    0.10115E-04   -0.11306E-05  6708   0.719E-03    0.498E-02
RMM:   6    -0.695152257377E+03    0.28318E-05   -0.37824E-06  5697   0.419E-03    0.265E-02
RMM:   7    -0.695152259172E+03   -0.17943E-05   -0.79758E-07  3438   0.294E-03    0.196E-02
RMM:   8    -0.695152259091E+03    0.80821E-07   -0.18276E-08  1836   0.245E-03
  40 F= -.69515226E+03 E0= -.69454189E+03  d E =-.294287E-02  mag=     7.7645
       N       E                     dE             d eps       ncg     rms          rms(c)
DAV:   1    -0.695153778915E+03   -0.15197E-02   -0.16581E-02 14128   0.207E-01    0.280E-02
RMM:   2    -0.695153852788E+03   -0.73873E-04   -0.28742E-04  8488   0.336E-02    0.979E-02
RMM:   3    -0.695153813012E+03    0.39777E-04   -0.45930E-05  7232   0.156E-02    0.368E-02
RMM:   4    -0.695153813700E+03   -0.68849E-06   -0.97419E-06  7050   0.687E-03    0.234E-02
RMM:   5    -0.695153822386E+03   -0.86859E-05   -0.40724E-06  6295   0.433E-03    0.353E-02
RMM:   6    -0.695153825687E+03   -0.33014E-05   -0.19656E-06  4123   0.334E-03    0.290E-02
RMM:   7    -0.695153827143E+03   -0.14556E-05   -0.20233E-06  4739   0.347E-03    0.786E-03
RMM:   8    -0.695153829346E+03   -0.22032E-05   -0.18444E-07  2070   0.263E-03
  41 F= -.69515383E+03 E0= -.69454345E+03  d E =-.157026E-02  mag=     7.7649
       N       E                     dE             d eps       ncg     rms          rms(c)
DAV:   1    -0.695154801874E+03   -0.97473E-03   -0.63660E-02 14000   0.406E-01    0.501E-02
RMM:   2    -0.695154920319E+03   -0.11844E-03   -0.10661E-03 13143   0.656E-02    0.103E-01
RMM:   3    -0.695154918916E+03    0.14032E-05   -0.18814E-04  7986   0.263E-02    0.529E-02
RMM:   4    -0.695154970965E+03   -0.52049E-04   -0.39566E-05  7304   0.148E-02    0.108E-01
RMM:   5    -0.695154926343E+03    0.44622E-04   -0.14627E-05  7168   0.753E-03    0.588E-02
RMM:   6    -0.695154927012E+03   -0.66853E-06   -0.76516E-06  6545   0.554E-03    0.482E-02
RMM:   7    -0.695154927996E+03   -0.98463E-06   -0.61092E-06  6542   0.473E-03    0.323E-02
RMM:   8    -0.695154926526E+03    0.14705E-05   -0.26641E-06  5153   0.364E-03
  42 F= -.69515493E+03 E0= -.69454452E+03  d E =-.266743E-02  mag=     7.7648
       N       E                     dE             d eps       ncg     rms          rms(c)
DAV:   1    -0.695155785792E+03   -0.85780E-03   -0.13487E-02 13696   0.189E-01    0.379E-02
RMM:   2    -0.695155831919E+03   -0.46127E-04   -0.30232E-04  8401   0.340E-02    0.876E-02
RMM:   3    -0.695155817790E+03    0.14129E-04   -0.43226E-05  7257   0.150E-02    0.414E-02
RMM:   4    -0.695155833174E+03   -0.15385E-04   -0.10928E-05  7095   0.701E-03    0.637E-02
RMM:   5    -0.695155819271E+03    0.13903E-04   -0.53965E-06  6352   0.494E-03    0.350E-02
RMM:   6    -0.695155821159E+03   -0.18875E-05   -0.29166E-06  4983   0.358E-03    0.246E-02
RMM:   7    -0.695155821262E+03   -0.10354E-06   -0.10166E-06  3811   0.321E-03    0.122E-02
RMM:   8    -0.695155822012E+03   -0.74953E-06   -0.32366E-08  1712   0.253E-03
  43 F= -.69515582E+03 E0= -.69454540E+03  d E =-.895486E-03  mag=     7.7647
       N       E                     dE             d eps       ncg     rms          rms(c)
DAV:   1    -0.695155841514E+03   -0.20252E-04   -0.45094E-04 13200   0.349E-02    0.125E-02
RMM:   2    -0.695155852192E+03   -0.10678E-04   -0.12901E-05  7183   0.689E-03    0.407E-02
RMM:   3    -0.695155844068E+03    0.81246E-05   -0.21112E-06  5630   0.374E-03    0.178E-02
RMM:   4    -0.695155844549E+03   -0.48154E-06   -0.10501E-07  1742   0.230E-03    0.123E-02
RMM:   5    -0.695155845138E+03   -0.58892E-06   -0.74969E-09  1383   0.206E-03    0.105E-02
RMM:   6    -0.695155846663E+03   -0.15248E-05   -0.67666E-09  1286   0.209E-03    0.118E-02
RMM:   7    -0.695155845877E+03    0.78561E-06    0.00000E+00  1188   0.202E-03    0.237E-03
RMM:   8    -0.695155846255E+03   -0.37765E-06    0.00000E+00  1053   0.201E-03
  44 F= -.69515585E+03 E0= -.69454541E+03  d E =-.919729E-03  mag=     7.7647
       N       E                     dE             d eps       ncg     rms          rms(c)
DAV:   1    -0.695156112700E+03   -0.26682E-03   -0.28624E-03 13376   0.863E-02    0.141E-02
RMM:   2    -0.695156121219E+03   -0.85193E-05   -0.68161E-05  7266   0.163E-02    0.374E-02
RMM:   3    -0.695156119736E+03    0.14833E-05   -0.93027E-06  7072   0.720E-03    0.201E-02
RMM:   4    -0.695156125617E+03   -0.58807E-05   -0.21356E-06  4754   0.351E-03    0.371E-02
RMM:   5    -0.695156119233E+03    0.63838E-05   -0.41124E-07  2788   0.277E-03    0.154E-02
RMM:   6    -0.695156120186E+03   -0.95275E-06   -0.38422E-08  1507   0.245E-03    0.153E-02
RMM:   7    -0.695156120884E+03   -0.69799E-06   -0.59037E-08  1573   0.262E-03    0.129E-02
RMM:   8    -0.695156120797E+03    0.86606E-07   -0.27204E-08  1361   0.260E-03
  45 F= -.69515612E+03 E0= -.69454569E+03  d E =-.274542E-03  mag=     7.7647
       N       E                     dE             d eps       ncg     rms          rms(c)
DAV:   1    -0.695156219894E+03   -0.99010E-04   -0.45581E-03 14000   0.109E-01    0.229E-02
RMM:   2    -0.695156232540E+03   -0.12646E-04   -0.10887E-04  7352   0.206E-02    0.494E-02
RMM:   3    -0.695156235598E+03   -0.30579E-05   -0.15392E-05  7122   0.908E-03    0.447E-02
RMM:   4    -0.695156244912E+03   -0.93141E-05   -0.59012E-06  6694   0.462E-03    0.619E-02
RMM:   5    -0.695156230247E+03    0.14665E-04   -0.32841E-06  5417   0.410E-03    0.253E-02
RMM:   6    -0.695156230169E+03    0.78573E-07   -0.37215E-07  2779   0.274E-03    0.307E-02
RMM:   7    -0.695156230824E+03   -0.65553E-06   -0.15091E-07  1923   0.258E-03    0.333E-02
RMM:   8    -0.695156231800E+03   -0.97577E-06   -0.57020E-07  2601   0.288E-03
  46 F= -.69515623E+03 E0= -.69454581E+03  d E =-.385545E-03  mag=     7.7646
       N       E                     dE             d eps       ncg     rms          rms(c)
DAV:   1    -0.695156317965E+03   -0.87141E-04   -0.12994E-03 13328   0.564E-02    0.434E-02
RMM:   2    -0.695156327146E+03   -0.91807E-05   -0.31961E-05  7200   0.110E-02    0.499E-02
RMM:   3    -0.695156346551E+03   -0.19406E-04   -0.92503E-06  7113   0.651E-03    0.709E-02
RMM:   4    -0.695156349706E+03   -0.31549E-05   -0.92150E-06  6554   0.529E-03    0.826E-02
RMM:   5    -0.695156320505E+03    0.29201E-04   -0.61976E-06  6221   0.568E-03    0.200E-02
RMM:   6    -0.695156320047E+03    0.45711E-06   -0.84748E-07  3300   0.296E-03    0.122E-02
RMM:   7    -0.695156319818E+03    0.22985E-06   -0.30472E-16  1384   0.242E-03    0.549E-03
RMM:   8    -0.695156319859E+03   -0.41269E-07    0.00000E+00  1117   0.236E-03
  47 F= -.69515632E+03 E0= -.69454588E+03  d E =-.880590E-04  mag=     7.7645
       N       E                     dE             d eps       ncg     rms          rms(c)
DAV:   1    -0.695156347760E+03   -0.27943E-04   -0.12911E-03 12960   0.562E-02    0.115E-02
RMM:   2    -0.695156351690E+03   -0.39301E-05   -0.29960E-05  7198   0.109E-02    0.292E-02
RMM:   3    -0.695156349848E+03    0.18426E-05   -0.46038E-06  6931   0.518E-03    0.113E-02
RMM:   4    -0.695156354641E+03   -0.47930E-05   -0.79680E-08  1928   0.245E-03    0.294E-02
RMM:   5    -0.695156349135E+03    0.55060E-05   -0.98447E-09  1782   0.228E-03    0.740E-03
RMM:   6    -0.695156350090E+03   -0.95566E-06   -0.45120E-09  1398   0.223E-03    0.870E-03
RMM:   7    -0.695156349564E+03    0.52604E-06   -0.24192E-09  1199   0.230E-03    0.528E-03
RMM:   8    -0.695156349535E+03    0.29388E-07   -0.17626E-09  1072   0.233E-03
  48 F= -.69515635E+03 E0= -.69454591E+03  d E =-.117735E-03  mag=     7.7644
       N       E                     dE             d eps       ncg     rms          rms(c)
DAV:   1    -0.695156398264E+03   -0.48700E-04   -0.12160E-03 13136   0.529E-02    0.113E-02
RMM:   2    -0.695156401288E+03   -0.30238E-05   -0.27747E-05  7135   0.107E-02    0.219E-02
RMM:   3    -0.695156401081E+03    0.20694E-06   -0.44561E-06  6884   0.491E-03    0.145E-02
RMM:   4    -0.695156403722E+03   -0.26408E-05   -0.17963E-07  2017   0.261E-03    0.252E-02
RMM:   5    -0.695156400606E+03    0.31152E-05   -0.14908E-08  1786   0.245E-03    0.132E-02
RMM:   6    -0.695156400395E+03    0.21149E-06   -0.14243E-08  1303   0.242E-03    0.932E-03
RMM:   7    -0.695156400245E+03    0.14962E-06   -0.18632E-08  1143   0.255E-03    0.769E-03
RMM:   8    -0.695156400148E+03    0.97192E-07   -0.18830E-08  1055   0.259E-03
  49 F= -.69515640E+03 E0= -.69454596E+03  d E =-.506133E-04  mag=     7.7643
       N       E                     dE             d eps       ncg     rms          rms(c)
DAV:   1    -0.695156401709E+03   -0.14635E-05   -0.66506E-05  7952   0.127E-02    0.946E-03
RMM:   2    -0.695156402429E+03   -0.71988E-06   -0.46929E-06  6362   0.441E-03    0.850E-03
RMM:   3    -0.695156403952E+03   -0.15229E-05   -0.56348E-07  3022   0.276E-03    0.177E-02
RMM:   4    -0.695156403616E+03    0.33550E-06   -0.24442E-08  1312   0.248E-03    0.175E-02
RMM:   5    -0.695156402241E+03    0.13756E-05   -0.11292E-11  1091   0.234E-03    0.501E-03
RMM:   6    -0.695156402516E+03   -0.27533E-06    0.00000E+00   973   0.233E-03    0.677E-03
RMM:   7    -0.695156402453E+03    0.63090E-07    0.00000E+00   921   0.235E-03    0.571E-03
RMM:   8    -0.695156402450E+03    0.27212E-08    0.00000E+00   878   0.233E-03
  50 F= -.69515640E+03 E0= -.69454595E+03  d E =-.529152E-04  mag=     7.7641
       N       E                     dE             d eps       ncg     rms          rms(c)
DAV:   1    -0.695156443117E+03   -0.40664E-04   -0.10214E-03 13216   0.454E-02    0.902E-03
RMM:   2    -0.695156445629E+03   -0.25120E-05   -0.20534E-05  7118   0.948E-03    0.205E-02
RMM:   3    -0.695156445102E+03    0.52621E-06   -0.37545E-06  6841   0.455E-03    0.103E-02
RMM:   4    -0.695156445418E+03   -0.31557E-06   -0.37730E-08  1696   0.231E-03    0.126E-02
RMM:   5    -0.695156444645E+03    0.77289E-06   -0.28346E-08  1582   0.235E-03    0.936E-03
RMM:   6    -0.695156444031E+03    0.61429E-06   -0.11304E-08  1320   0.237E-03    0.605E-03
RMM:   7    -0.695156443537E+03    0.49407E-06   -0.39480E-08  1138   0.247E-03    0.340E-03
RMM:   8    -0.695156443519E+03    0.17579E-07   -0.61172E-09   980   0.247E-03
  51 F= -.69515644E+03 E0= -.69454600E+03  d E =-.410691E-04  mag=     7.7640
       N       E                     dE             d eps       ncg     rms          rms(c)
DAV:   1    -0.695156456922E+03   -0.13385E-04   -0.15032E-03 13296   0.550E-02    0.111E-02
RMM:   2    -0.695156459972E+03   -0.30493E-05   -0.31273E-05  7174   0.117E-02    0.185E-02
RMM:   3    -0.695156459805E+03    0.16610E-06   -0.57210E-06  6980   0.549E-03    0.109E-02
RMM:   4    -0.695156466200E+03   -0.63945E-05   -0.59067E-07  2768   0.292E-03    0.348E-02
RMM:   5    -0.695156458217E+03    0.79831E-05   -0.49035E-08  2006   0.273E-03    0.907E-03
RMM:   6    -0.695156458407E+03   -0.19042E-06   -0.62875E-08  1489   0.268E-03    0.845E-03
RMM:   7    -0.695156457759E+03    0.64837E-06   -0.27156E-08  1269   0.272E-03    0.622E-03
RMM:   8    -0.695156457447E+03    0.31220E-06   -0.72472E-08  1185   0.279E-03
  52 F= -.69515646E+03 E0= -.69454602E+03  d E =-.549967E-04  mag=     7.7637
       N       E                     dE             d eps       ncg     rms          rms(c)
DAV:   1    -0.695156492230E+03   -0.34471E-04   -0.13393E-03 13312   0.502E-02    0.111E-02
RMM:   2    -0.695156495324E+03   -0.30941E-05   -0.26160E-05  7121   0.104E-02    0.174E-02
RMM:   3    -0.695156495630E+03   -0.30638E-06   -0.48442E-06  6924   0.504E-03    0.139E-02
RMM:   4    -0.695156496538E+03   -0.90792E-06   -0.15455E-07  2097   0.259E-03    0.181E-02
RMM:   5    -0.695156494997E+03    0.15412E-05   -0.40837E-08  1808   0.258E-03    0.752E-03
RMM:   6    -0.695156495265E+03   -0.26810E-06   -0.85301E-09  1276   0.250E-03    0.467E-03
RMM:   7    -0.695156495292E+03   -0.26761E-07   -0.57516E-09  1083   0.254E-03    0.329E-03
RMM:   8    -0.695156495434E+03   -0.14203E-06   -0.66365E-10   932   0.255E-03
  53 F= -.69515650E+03 E0= -.69454606E+03  d E =-.379873E-04  mag=     7.7635
