       N       E                     dE             d eps       ncg     rms          rms(c)
DAV:   1     0.892948778020E+04    0.89295E+04   -0.33894E+05 24912   0.111E+03
DAV:   2     0.771675744708E+03   -0.81578E+04   -0.73388E+04 30880   0.302E+02
DAV:   3    -0.903318573555E+03   -0.16750E+04   -0.16533E+04 29616   0.148E+02
DAV:   4    -0.987268898509E+03   -0.83950E+02   -0.83379E+02 33056   0.407E+01
DAV:   5    -0.990596881565E+03   -0.33280E+01   -0.33190E+01 39568   0.646E+00    0.175E+02
RMM:   6    -0.960559341397E+03    0.30038E+02   -0.28135E+03 27040   0.922E+01    0.359E+02
RMM:   7    -0.741386338482E+03    0.21917E+03   -0.32454E+02 24342   0.301E+01    0.220E+02
RMM:   8    -0.885734858629E+03   -0.14435E+03   -0.32970E+02 24492   0.283E+01    0.212E+02
RMM:   9    -0.654466159279E+03    0.23127E+03   -0.16061E+02 24355   0.200E+01    0.149E+02
RMM:  10    -0.542256319794E+03    0.11221E+03   -0.80346E+01 24370   0.151E+01    0.855E+01
RMM:  11    -0.523118773228E+03    0.19138E+02   -0.25356E+01 24386   0.770E+00    0.760E+01
RMM:  12    -0.516734497883E+03    0.63843E+01   -0.17043E+01 24479   0.726E+00    0.724E+01
RMM:  13    -0.510724236000E+03    0.60103E+01   -0.16010E+01 24498   0.635E+00    0.623E+01
RMM:  14    -0.504178069453E+03    0.65462E+01   -0.13654E+01 24729   0.583E+00    0.513E+01
RMM:  15    -0.490518480473E+03    0.13660E+02   -0.10560E+01 24511   0.489E+00    0.452E+01
RMM:  16    -0.481888528652E+03    0.86300E+01   -0.38989E+00 24769   0.321E+00    0.379E+01
RMM:  17    -0.474618015310E+03    0.72705E+01   -0.24415E+00 25230   0.227E+00    0.361E+01
RMM:  18    -0.465968338276E+03    0.86497E+01   -0.18894E+00 25132   0.212E+00    0.333E+01
RMM:  19    -0.458911056222E+03    0.70573E+01   -0.21296E+00 25662   0.213E+00    0.314E+01
RMM:  20    -0.453230672724E+03    0.56804E+01   -0.15187E+00 25602   0.187E+00    0.296E+01
RMM:  21    -0.449929584728E+03    0.33011E+01   -0.10268E+00 25224   0.156E+00    0.284E+01
RMM:  22    -0.449710036031E+03    0.21955E+00   -0.90870E-01 25936   0.138E+00    0.275E+01
RMM:  23    -0.452696588015E+03   -0.29866E+01   -0.12063E+00 27184   0.164E+00    0.267E+01
RMM:  24    -0.462959139641E+03   -0.10263E+02   -0.17275E+00 28772   0.188E+00    0.255E+01
RMM:  25    -0.481350931370E+03   -0.18392E+02   -0.41101E+00 30881   0.275E+00    0.257E+01
RMM:  26    -0.497256121090E+03   -0.15905E+02   -0.36248E+00 30432   0.263E+00    0.249E+01
RMM:  27    -0.519190706620E+03   -0.21935E+02   -0.63139E+00 32624   0.331E+00    0.246E+01
RMM:  28    -0.538555861890E+03   -0.19365E+02   -0.71457E+00 33390   0.334E+00    0.240E+01
RMM:  29    -0.557359599686E+03   -0.18804E+02   -0.76748E+00 32797   0.330E+00    0.236E+01
RMM:  30    -0.575953231911E+03   -0.18594E+02   -0.80136E+00 33548   0.341E+00    0.220E+01
RMM:  31    -0.595413235075E+03   -0.19460E+02   -0.11188E+01 35299   0.398E+00    0.207E+01
RMM:  32    -0.607784592699E+03   -0.12371E+02   -0.73911E+00 33282   0.313E+00    0.207E+01
RMM:  33    -0.611341873413E+03   -0.35573E+01   -0.22222E+00 31111   0.196E+00    0.185E+01
RMM:  34    -0.613949188913E+03   -0.26073E+01   -0.83776E-01 28759   0.129E+00    0.173E+01
RMM:  35    -0.615685547351E+03   -0.17364E+01   -0.51646E-01 27545   0.105E+00    0.158E+01
RMM:  36    -0.618166184472E+03   -0.24806E+01   -0.44812E-01 27938   0.957E-01    0.150E+01
RMM:  37    -0.622849116676E+03   -0.46829E+01   -0.60514E-01 29678   0.105E+00    0.141E+01
RMM:  38    -0.628876875063E+03   -0.60278E+01   -0.10718E+00 31788   0.129E+00    0.138E+01
RMM:  39    -0.633066179762E+03   -0.41893E+01   -0.15506E+00 32755   0.143E+00    0.141E+01
RMM:  40    -0.635649299246E+03   -0.25831E+01   -0.17224E+00 32768   0.147E+00    0.145E+01
RMM:  41    -0.637530047655E+03   -0.18807E+01   -0.11156E+00 31793   0.122E+00    0.149E+01
RMM:  42    -0.639865885254E+03   -0.23358E+01   -0.75637E-01 30393   0.986E-01    0.152E+01
RMM:  43    -0.642601136234E+03   -0.27353E+01   -0.89677E-01 30815   0.104E+00    0.156E+01
RMM:  44    -0.645386872473E+03   -0.27857E+01   -0.69429E-01 30513   0.982E-01    0.160E+01
RMM:  45    -0.648153833837E+03   -0.27670E+01   -0.45226E-01 29767   0.823E-01    0.148E+01
RMM:  46    -0.650876047194E+03   -0.27222E+01   -0.40280E-01 29619   0.823E-01    0.128E+01
RMM:  47    -0.652612932399E+03   -0.17369E+01   -0.44857E-01 29976   0.847E-01    0.109E+01
RMM:  48    -0.653962304259E+03   -0.13494E+01   -0.45845E-01 30138   0.769E-01    0.922E+00
RMM:  49    -0.655278023310E+03   -0.13157E+01   -0.28846E-01 29609   0.650E-01    0.713E+00
RMM:  50    -0.656489842643E+03   -0.12118E+01   -0.26748E-01 28782   0.544E-01    0.562E+00
RMM:  51    -0.656597844239E+03   -0.10800E+00   -0.23311E-01 30125   0.634E-01    0.461E+00
RMM:  52    -0.658271003502E+03   -0.16732E+01   -0.11002E-01 26810   0.449E-01    0.401E+00
RMM:  53    -0.659232181430E+03   -0.96118E+00   -0.10755E-01 27257   0.425E-01    0.376E+00
RMM:  54    -0.659458687559E+03   -0.22651E+00   -0.12599E-01 26947   0.350E-01    0.331E+00
RMM:  55    -0.659513221347E+03   -0.54534E-01   -0.48947E-02 26305   0.309E-01    0.311E+00
RMM:  56    -0.659478498024E+03    0.34723E-01   -0.61748E-02 27882   0.368E-01    0.305E+00
RMM:  57    -0.659166149916E+03    0.31235E+00   -0.68072E-02 27395   0.311E-01    0.258E+00
RMM:  58    -0.659144270062E+03    0.21880E-01   -0.32101E-02 26597   0.245E-01    0.217E+00
RMM:  59    -0.659302093131E+03   -0.15782E+00   -0.21083E-02 25386   0.223E-01    0.194E+00
RMM:  60    -0.659421928292E+03   -0.11984E+00   -0.15323E-02 25006   0.182E-01    0.160E+00
RMM:  61    -0.659665396407E+03   -0.24347E+00   -0.13647E-02 25294   0.148E-01    0.142E+00
RMM:  62    -0.659689336457E+03   -0.23940E-01   -0.89178E-03 25197   0.129E-01    0.133E+00
RMM:  63    -0.659772207703E+03   -0.82871E-01   -0.78963E-03 25543   0.117E-01    0.120E+00
RMM:  64    -0.659807905227E+03   -0.35698E-01   -0.63443E-03 25413   0.102E-01    0.115E+00
RMM:  65    -0.659851902706E+03   -0.43997E-01   -0.31910E-03 24226   0.726E-02    0.109E+00
RMM:  66    -0.659968254334E+03   -0.11635E+00   -0.31840E-03 24795   0.691E-02    0.108E+00
RMM:  67    -0.660075084789E+03   -0.10683E+00   -0.26784E-03 24895   0.650E-02    0.104E+00
RMM:  68    -0.660085193640E+03   -0.10109E-01   -0.28962E-03 25704   0.636E-02    0.100E+00
RMM:  69    -0.659997668597E+03    0.87525E-01   -0.30492E-03 25962   0.623E-02    0.977E-01
RMM:  70    -0.659900220999E+03    0.97448E-01   -0.35722E-03 27328   0.637E-02    0.928E-01
RMM:  71    -0.659821603002E+03    0.78618E-01   -0.41161E-03 27708   0.702E-02    0.899E-01
RMM:  72    -0.659831777012E+03   -0.10174E-01   -0.41340E-03 27729   0.713E-02    0.819E-01
RMM:  73    -0.659945248977E+03   -0.11347E+00   -0.30219E-03 26594   0.623E-02    0.772E-01
RMM:  74    -0.659921354539E+03    0.23894E-01   -0.29645E-03 27064   0.664E-02    0.707E-01
RMM:  75    -0.659937553681E+03   -0.16199E-01   -0.32119E-03 27904   0.712E-02    0.607E-01
RMM:  76    -0.659973286529E+03   -0.35733E-01   -0.38490E-03 28671   0.840E-02    0.588E-01
RMM:  77    -0.660005773887E+03   -0.32487E-01   -0.27602E-03 25881   0.635E-02    0.389E-01
RMM:  78    -0.660117043896E+03   -0.11127E+00   -0.57571E-03 27127   0.669E-02    0.328E-01
RMM:  79    -0.660202774047E+03   -0.85730E-01   -0.38682E-03 25976   0.588E-02    0.244E-01
RMM:  80    -0.660351741107E+03   -0.14897E+00   -0.22378E-03 23769   0.462E-02
   1 F= -.66035174E+03 E0= -.65994026E+03  d E =-.660352E+03  mag=    81.1109
       N       E                     dE             d eps       ncg     rms          rms(c)
DAV:   1    -0.659277528992E+03    0.92525E+00   -0.22537E+02 27968   0.148E+01    0.822E+00
RMM:   2    -0.660403246365E+03   -0.11257E+01   -0.72380E+00 24320   0.341E+00    0.130E+01
RMM:   3    -0.660478658385E+03   -0.75412E-01   -0.17825E+00 24506   0.198E+00    0.550E+00
RMM:   4    -0.660526288544E+03   -0.47630E-01   -0.41576E-01 24147   0.956E-01    0.391E+00
RMM:   5    -0.660610177706E+03   -0.83889E-01   -0.14221E-01 24035   0.569E-01    0.234E+00
RMM:   6    -0.660645089261E+03   -0.34912E-01   -0.55052E-02 23786   0.341E-01    0.106E+00
RMM:   7    -0.660692349142E+03   -0.47260E-01   -0.22168E-02 24002   0.208E-01    0.730E-01
RMM:   8    -0.660714272148E+03   -0.21923E-01   -0.88287E-03 24490   0.129E-01    0.436E-01
RMM:   9    -0.660729454562E+03   -0.15182E-01   -0.34207E-03 28221   0.654E-02    0.278E-01
RMM:  10    -0.660738960160E+03   -0.95056E-02   -0.12047E-03 26659   0.370E-02    0.256E-01
RMM:  11    -0.660753754613E+03   -0.14794E-01   -0.60615E-04 23264   0.288E-02    0.149E-01
RMM:  12    -0.660764952432E+03   -0.11198E-01   -0.35826E-04 20493   0.247E-02    0.121E-01
RMM:  13    -0.660772898632E+03   -0.79462E-02   -0.19691E-04 17281   0.195E-02    0.902E-02
RMM:  14    -0.660780446282E+03   -0.75477E-02   -0.11870E-04 15536   0.139E-02    0.687E-02
RMM:  15    -0.660785457921E+03   -0.50116E-02   -0.71776E-05 14274   0.108E-02    0.593E-02
RMM:  16    -0.660789569485E+03   -0.41116E-02   -0.45621E-05 13819   0.903E-03    0.546E-02
RMM:  17    -0.660795926745E+03   -0.63573E-02   -0.57981E-05 14392   0.856E-03    0.513E-02
RMM:  18    -0.660799306692E+03   -0.33799E-02   -0.48130E-05 13994   0.801E-03    0.497E-02
RMM:  19    -0.660800723508E+03   -0.14168E-02   -0.44881E-05 13869   0.773E-03    0.467E-02
RMM:  20    -0.660801474649E+03   -0.75114E-03   -0.65858E-05 14233   0.791E-03    0.436E-02
RMM:  21    -0.660801375355E+03    0.99293E-04   -0.10622E-04 15108   0.876E-03
   2 F= -.66080138E+03 E0= -.66039516E+03  d E =-.449634E+00  mag=    81.0390
       N       E                     dE             d eps       ncg     rms          rms(c)
DAV:   1    -0.660865702935E+03   -0.64228E-01   -0.91837E+00 28416   0.316E+00    0.195E+00
RMM:   2    -0.660903052636E+03   -0.37350E-01   -0.27162E-01 24019   0.690E-01    0.145E+00
RMM:   3    -0.660918991601E+03   -0.15939E-01   -0.46446E-02 23252   0.294E-01    0.139E+00
RMM:   4    -0.660917307578E+03    0.16840E-02   -0.22489E-02 22728   0.231E-01    0.112E+00
RMM:   5    -0.660919591675E+03   -0.22841E-02   -0.93715E-03 22252   0.138E-01    0.444E-01
RMM:   6    -0.660921634512E+03   -0.20428E-02   -0.26235E-03 21800   0.750E-02    0.325E-01
RMM:   7    -0.660922857133E+03   -0.12226E-02   -0.10179E-03 20679   0.495E-02    0.149E-01
RMM:   8    -0.660924098715E+03   -0.12416E-02   -0.33610E-04 17931   0.258E-02    0.923E-02
RMM:   9    -0.660924987074E+03   -0.88836E-03   -0.12135E-04 14719   0.139E-02    0.665E-02
RMM:  10    -0.660925945102E+03   -0.95803E-03   -0.55921E-05 13660   0.102E-02    0.572E-02
RMM:  11    -0.660927285878E+03   -0.13408E-02   -0.36543E-05 13226   0.844E-03    0.403E-02
RMM:  12    -0.660928287745E+03   -0.10019E-02   -0.21584E-05 12801   0.693E-03    0.338E-02
RMM:  13    -0.660929370449E+03   -0.10827E-02   -0.12831E-05 12504   0.556E-03    0.302E-02
RMM:  14    -0.660929866740E+03   -0.49629E-03   -0.58273E-06 11513   0.396E-03    0.265E-02
RMM:  15    -0.660930884639E+03   -0.10179E-02   -0.38099E-06 10842   0.323E-03    0.258E-02
RMM:  16    -0.660932414437E+03   -0.15298E-02   -0.43184E-06 11392   0.320E-03    0.251E-02
RMM:  17    -0.660935209009E+03   -0.27946E-02   -0.69982E-06 12265   0.387E-03    0.246E-02
RMM:  18    -0.660937420481E+03   -0.22115E-02   -0.49784E-06 11584   0.337E-03    0.233E-02
RMM:  19    -0.660940122678E+03   -0.27022E-02   -0.53310E-06 12050   0.348E-03    0.224E-02
RMM:  20    -0.660944232219E+03   -0.41095E-02   -0.75571E-06 12135   0.378E-03    0.216E-02
RMM:  21    -0.660949570758E+03   -0.53385E-02   -0.11837E-05 12867   0.450E-03    0.200E-02
RMM:  22    -0.660951410769E+03   -0.18400E-02   -0.41869E-06 10824   0.318E-03    0.192E-02
RMM:  23    -0.660953456790E+03   -0.20460E-02   -0.30061E-06 10124   0.288E-03    0.180E-02
RMM:  24    -0.660955855452E+03   -0.23987E-02   -0.32059E-06  9917   0.268E-03    0.174E-02
RMM:  25    -0.660959323254E+03   -0.34678E-02   -0.70696E-06 11503   0.319E-03    0.169E-02
RMM:  26    -0.660962588655E+03   -0.32654E-02   -0.72694E-06 11395   0.335E-03    0.150E-02
RMM:  27    -0.660964466055E+03   -0.18774E-02   -0.44063E-06 10516   0.304E-03    0.134E-02
RMM:  28    -0.660966582885E+03   -0.21168E-02   -0.67242E-06 11451   0.333E-03    0.132E-02
RMM:  29    -0.660968743305E+03   -0.21604E-02   -0.75062E-06 11519   0.339E-03    0.116E-02
RMM:  30    -0.660969796732E+03   -0.10534E-02   -0.37798E-06 10196   0.296E-03    0.100E-02
RMM:  31    -0.660970356787E+03   -0.56005E-03   -0.20900E-06  9019   0.258E-03    0.902E-03
RMM:  32    -0.660971039246E+03   -0.68246E-03   -0.13615E-06  8376   0.243E-03    0.865E-03
RMM:  33    -0.660972178099E+03   -0.11389E-02   -0.24720E-06  9612   0.263E-03    0.817E-03
RMM:  34    -0.660972985181E+03   -0.80708E-03   -0.13115E-06  8181   0.233E-03    0.739E-03
RMM:  35    -0.660973594486E+03   -0.60930E-03   -0.58835E-07  6932   0.212E-03    0.683E-03
RMM:  36    -0.660974326683E+03   -0.73220E-03   -0.58741E-07  6886   0.211E-03    0.653E-03
RMM:  37    -0.660976003547E+03   -0.16769E-02   -0.25285E-06  8436   0.238E-03    0.583E-03
RMM:  38    -0.660976797051E+03   -0.79350E-03   -0.19238E-06  8297   0.234E-03    0.539E-03
RMM:  39    -0.660977044045E+03   -0.24699E-03   -0.74914E-07  7146   0.215E-03    0.479E-03
RMM:  40    -0.660977264029E+03   -0.21998E-03   -0.28991E-07  6191   0.201E-03    0.463E-03
RMM:  41    -0.660977543071E+03   -0.27904E-03   -0.67096E-07  6628   0.208E-03    0.418E-03
RMM:  42    -0.660977841789E+03   -0.29872E-03   -0.11921E-06  7346   0.219E-03    0.372E-03
RMM:  43    -0.660978154333E+03   -0.31254E-03   -0.14096E-06  7653   0.221E-03    0.326E-03
RMM:  44    -0.660978534282E+03   -0.37995E-03   -0.15946E-06  7745   0.220E-03    0.301E-03
RMM:  45    -0.660978836392E+03   -0.30211E-03   -0.12975E-06  7472   0.216E-03    0.269E-03
RMM:  46    -0.660979010817E+03   -0.17442E-03   -0.61533E-07  6601   0.203E-03    0.220E-03
RMM:  47    -0.660979156413E+03   -0.14560E-03   -0.28758E-07  6010   0.197E-03    0.181E-03
RMM:  48    -0.660979252418E+03   -0.96004E-04   -0.17991E-07  5778   0.195E-03
   3 F= -.66097925E+03 E0= -.66057316E+03  d E =-.627511E+00  mag=    80.8809
       N       E                     dE             d eps       ncg     rms          rms(c)
DAV:   1    -0.660981017930E+03   -0.18615E-02   -0.89520E+00 27376   0.307E+00    0.171E+00
RMM:   2    -0.661009168209E+03   -0.28150E-01   -0.25803E-01 24018   0.675E-01    0.141E+00
RMM:   3    -0.661023419156E+03   -0.14251E-01   -0.46058E-02 23188   0.291E-01    0.129E+00
RMM:   4    -0.661019246137E+03    0.41730E-02   -0.18981E-02 22613   0.211E-01    0.888E-01
RMM:   5    -0.661018123782E+03    0.11224E-02   -0.64166E-03 21960   0.112E-01    0.351E-01
RMM:   6    -0.661018016758E+03    0.10702E-03   -0.20362E-03 21489   0.646E-02    0.301E-01
RMM:   7    -0.661017878042E+03    0.13872E-03   -0.90177E-04 20406   0.472E-02    0.151E-01
RMM:   8    -0.661018166907E+03   -0.28886E-03   -0.31315E-04 17903   0.250E-02    0.107E-01
RMM:   9    -0.661018407397E+03   -0.24049E-03   -0.10356E-04 14648   0.137E-02    0.696E-02
RMM:  10    -0.661018694971E+03   -0.28757E-03   -0.47374E-05 13443   0.101E-02    0.426E-02
RMM:  11    -0.661018989341E+03   -0.29437E-03   -0.25133E-05 12781   0.784E-03    0.310E-02
RMM:  12    -0.661019172323E+03   -0.18298E-03   -0.16625E-05 12540   0.623E-03    0.252E-02
RMM:  13    -0.661019395981E+03   -0.22366E-03   -0.11292E-05 12339   0.528E-03    0.175E-02
RMM:  14    -0.661019484512E+03   -0.88530E-04   -0.48833E-06 11235   0.373E-03
   4 F= -.66101948E+03 E0= -.66061258E+03  d E =-.667743E+00  mag=    80.8836
       N       E                     dE             d eps       ncg     rms          rms(c)
DAV:   1    -0.660954463500E+03    0.64932E-01   -0.19358E+01 26144   0.445E+00    0.237E+00
RMM:   2    -0.661012289134E+03   -0.57826E-01   -0.54941E-01 24119   0.945E-01    0.189E+00
RMM:   3    -0.661048150263E+03   -0.35861E-01   -0.99094E-02 23596   0.420E-01    0.193E+00
RMM:   4    -0.661036661764E+03    0.11488E-01   -0.35097E-02 22954   0.286E-01    0.945E-01
RMM:   5    -0.661035879916E+03    0.78185E-03   -0.95930E-03 22740   0.132E-01    0.396E-01
RMM:   6    -0.661035956997E+03   -0.77081E-04   -0.33318E-03 21920   0.795E-02    0.383E-01
RMM:   7    -0.661035733459E+03    0.22354E-03   -0.17022E-03 21277   0.636E-02    0.231E-01
RMM:   8    -0.661036241711E+03   -0.50825E-03   -0.65643E-04 20270   0.352E-02    0.153E-01
RMM:   9    -0.661036805530E+03   -0.56382E-03   -0.24447E-04 16990   0.186E-02    0.107E-01
RMM:  10    -0.661037478402E+03   -0.67287E-03   -0.91797E-05 14375   0.140E-02    0.605E-02
RMM:  11    -0.661038189186E+03   -0.71078E-03   -0.47635E-05 13311   0.104E-02    0.436E-02
RMM:  12    -0.661038846573E+03   -0.65739E-03   -0.34428E-05 13150   0.862E-03    0.380E-02
RMM:  13    -0.661039670502E+03   -0.82393E-03   -0.24967E-05 13021   0.748E-03    0.257E-02
RMM:  14    -0.661039987640E+03   -0.31714E-03   -0.10909E-05 12207   0.515E-03    0.193E-02
RMM:  15    -0.661040310104E+03   -0.32246E-03   -0.51018E-06 11310   0.367E-03    0.162E-02
RMM:  16    -0.661040652623E+03   -0.34252E-03   -0.33190E-06 10434   0.302E-03    0.146E-02
RMM:  17    -0.661041348667E+03   -0.69604E-03   -0.51026E-06 11151   0.324E-03    0.142E-02
RMM:  18    -0.661041832954E+03   -0.48429E-03   -0.30900E-06  9663   0.274E-03    0.131E-02
RMM:  19    -0.661042184857E+03   -0.35190E-03   -0.20167E-06  8967   0.255E-03    0.120E-02
RMM:  20    -0.661042642535E+03   -0.45768E-03   -0.25778E-06  9133   0.258E-03    0.118E-02
RMM:  21    -0.661043427867E+03   -0.78533E-03   -0.62740E-06 10610   0.302E-03    0.117E-02
RMM:  22    -0.661044120472E+03   -0.69261E-03   -0.69173E-06 10510   0.295E-03    0.109E-02
RMM:  23    -0.661044622424E+03   -0.50195E-03   -0.57120E-06 10068   0.281E-03    0.103E-02
RMM:  24    -0.661045016980E+03   -0.39456E-03   -0.43770E-06  9392   0.264E-03    0.944E-03
RMM:  25    -0.661045462822E+03   -0.44584E-03   -0.51783E-06  9819   0.273E-03    0.897E-03
RMM:  26    -0.661045820398E+03   -0.35758E-03   -0.44322E-06  9367   0.257E-03    0.841E-03
RMM:  27    -0.661046014736E+03   -0.19434E-03   -0.15243E-06  7599   0.226E-03    0.794E-03
RMM:  28    -0.661046211621E+03   -0.19689E-03   -0.46740E-07  6323   0.211E-03    0.744E-03
RMM:  29    -0.661046593110E+03   -0.38149E-03   -0.10794E-06  7544   0.229E-03    0.719E-03
RMM:  30    -0.661047010119E+03   -0.41701E-03   -0.12296E-06  8124   0.244E-03    0.648E-03
RMM:  31    -0.661047321283E+03   -0.31116E-03   -0.96661E-07  7762   0.235E-03    0.562E-03
RMM:  32    -0.661047542551E+03   -0.22127E-03   -0.69386E-07  7200   0.223E-03    0.540E-03
RMM:  33    -0.661047754826E+03   -0.21227E-03   -0.77950E-07  7203   0.222E-03    0.492E-03
RMM:  34    -0.661047917448E+03   -0.16262E-03   -0.50421E-07  6636   0.214E-03    0.414E-03
RMM:  35    -0.661048055439E+03   -0.13799E-03   -0.50298E-07  6518   0.212E-03    0.395E-03
RMM:  36    -0.661048192008E+03   -0.13657E-03   -0.46110E-07  6355   0.209E-03    0.372E-03
RMM:  37    -0.661048376681E+03   -0.18467E-03   -0.76566E-07  6579   0.212E-03    0.345E-03
RMM:  38    -0.661048532574E+03   -0.15589E-03   -0.81296E-07  6461   0.212E-03    0.312E-03
RMM:  39    -0.661048674205E+03   -0.14163E-03   -0.57425E-07  6255   0.211E-03    0.295E-03
RMM:  40    -0.661048798832E+03   -0.12463E-03   -0.29894E-07  5993   0.209E-03    0.261E-03
RMM:  41    -0.661048971137E+03   -0.17231E-03   -0.25277E-07  5981   0.211E-03    0.218E-03
RMM:  42    -0.661049113085E+03   -0.14195E-03   -0.16504E-07  5784   0.211E-03    0.183E-03
RMM:  43    -0.661049223598E+03   -0.11051E-03   -0.54440E-08  5530   0.209E-03    0.166E-03
RMM:  44    -0.661049346728E+03   -0.12313E-03   -0.42097E-08  5468   0.208E-03    0.142E-03
RMM:  45    -0.661049505118E+03   -0.15839E-03   -0.10852E-07  5707   0.209E-03    0.125E-03
RMM:  46    -0.661049607464E+03   -0.10235E-03   -0.17636E-07  5725   0.209E-03    0.109E-03
RMM:  47    -0.661049639475E+03   -0.32011E-04   -0.77525E-08  5416   0.205E-03
   5 F= -.66104964E+03 E0= -.66064066E+03  d E =-.697898E+00  mag=    80.9389
       N       E                     dE             d eps       ncg     rms          rms(c)
DAV:   1    -0.660275712864E+03    0.77389E+00   -0.87878E+01 25968   0.982E+00    0.590E+00
RMM:   2    -0.660700942105E+03   -0.42523E+00   -0.27031E+00 24320   0.224E+00    0.826E+00
RMM:   3    -0.660712440178E+03   -0.11498E-01   -0.64848E-01 24338   0.125E+00    0.386E+00
RMM:   4    -0.660724775871E+03   -0.12336E-01   -0.20602E-01 24580   0.685E-01    0.371E+00
RMM:   5    -0.660736836025E+03   -0.12060E-01   -0.83898E-02 24211   0.446E-01    0.243E+00
RMM:   6    -0.660718874151E+03    0.17962E-01   -0.33831E-02 24098   0.289E-01    0.126E+00
RMM:   7    -0.660718862926E+03    0.11225E-04   -0.13184E-02 23840   0.166E-01    0.866E-01
RMM:   8    -0.660717049418E+03    0.18135E-02   -0.43201E-03 23201   0.100E-01    0.292E-01
RMM:   9    -0.660718155207E+03   -0.11058E-02   -0.18331E-03 25175   0.519E-02    0.220E-01
RMM:  10    -0.660718809573E+03   -0.65437E-03   -0.66619E-04 21264   0.334E-02    0.123E-01
RMM:  11    -0.660719579487E+03   -0.76991E-03   -0.42077E-04 20005   0.234E-02    0.974E-02
RMM:  12    -0.660719873657E+03   -0.29417E-03   -0.16860E-04 16478   0.186E-02    0.743E-02
RMM:  13    -0.660720088773E+03   -0.21512E-03   -0.73698E-05 14814   0.139E-02    0.469E-02
RMM:  14    -0.660720287619E+03   -0.19885E-03   -0.35246E-05 13765   0.873E-03    0.325E-02
RMM:  15    -0.660720585159E+03   -0.29754E-03   -0.18580E-05 13253   0.675E-03    0.263E-02
RMM:  16    -0.660720802499E+03   -0.21734E-03   -0.11636E-05 12755   0.515E-03    0.235E-02
RMM:  17    -0.660721077864E+03   -0.27537E-03   -0.81566E-06 12612   0.476E-03    0.209E-02
RMM:  18    -0.660721282497E+03   -0.20463E-03   -0.50439E-06 11772   0.375E-03    0.194E-02
RMM:  19    -0.660721532133E+03   -0.24964E-03   -0.34458E-06 11257   0.327E-03    0.181E-02
RMM:  20    -0.660721877159E+03   -0.34503E-03   -0.40937E-06 11583   0.337E-03    0.177E-02
RMM:  21    -0.660722287780E+03   -0.41062E-03   -0.57194E-06 12141   0.373E-03    0.170E-02
RMM:  22    -0.660722758185E+03   -0.47040E-03   -0.82225E-06 12356   0.415E-03    0.153E-02
RMM:  23    -0.660723103215E+03   -0.34503E-03   -0.78189E-06 11589   0.362E-03    0.143E-02
RMM:  24    -0.660723348514E+03   -0.24530E-03   -0.41687E-06 10744   0.306E-03    0.135E-02
RMM:  25    -0.660723593755E+03   -0.24524E-03   -0.37184E-06 10774   0.295E-03    0.129E-02
RMM:  26    -0.660723891934E+03   -0.29818E-03   -0.38534E-06 10211   0.288E-03    0.120E-02
RMM:  27    -0.660724105039E+03   -0.21310E-03   -0.16501E-06  8427   0.246E-03    0.114E-02
RMM:  28    -0.660724461819E+03   -0.35678E-03   -0.28990E-06  8951   0.255E-03    0.109E-02
RMM:  29    -0.660724962301E+03   -0.50048E-03   -0.54284E-06 10249   0.298E-03    0.104E-02
RMM:  30    -0.660725496253E+03   -0.53395E-03   -0.81820E-06 11083   0.334E-03    0.953E-03
RMM:  31    -0.660725752328E+03   -0.25608E-03   -0.34618E-06  9289   0.280E-03    0.862E-03
RMM:  32    -0.660726017353E+03   -0.26502E-03   -0.31138E-06  9235   0.269E-03    0.801E-03
RMM:  33    -0.660726389141E+03   -0.37179E-03   -0.31357E-06  9345   0.279E-03    0.754E-03
RMM:  34    -0.660726756270E+03   -0.36713E-03   -0.28481E-06  9427   0.275E-03    0.672E-03
RMM:  35    -0.660726977091E+03   -0.22082E-03   -0.10247E-06  7493   0.228E-03    0.637E-03
RMM:  36    -0.660727212758E+03   -0.23567E-03   -0.50496E-07  6664   0.212E-03    0.598E-03
RMM:  37    -0.660727715274E+03   -0.50252E-03   -0.87325E-07  7409   0.228E-03    0.566E-03
RMM:  38    -0.660728314740E+03   -0.59947E-03   -0.14108E-06  8060   0.238E-03    0.516E-03
RMM:  39    -0.660728762405E+03   -0.44767E-03   -0.98818E-07  7447   0.223E-03    0.498E-03
RMM:  40    -0.660729203146E+03   -0.44074E-03   -0.72853E-07  6964   0.213E-03    0.455E-03
RMM:  41    -0.660729825727E+03   -0.62258E-03   -0.86995E-07  7121   0.216E-03    0.394E-03
RMM:  42    -0.660730360836E+03   -0.53511E-03   -0.66403E-07  6967   0.217E-03    0.326E-03
RMM:  43    -0.660730750288E+03   -0.38945E-03   -0.41768E-07  6536   0.212E-03    0.276E-03
RMM:  44    -0.660731060997E+03   -0.31071E-03   -0.33089E-07  6417   0.211E-03    0.231E-03
RMM:  45    -0.660731277336E+03   -0.21634E-03   -0.46315E-07  6611   0.216E-03    0.187E-03
RMM:  46    -0.660731401410E+03   -0.12407E-03   -0.46986E-07  6608   0.218E-03    0.157E-03
RMM:  47    -0.660731438586E+03   -0.37176E-04   -0.29350E-07  6173   0.212E-03
   6 F= -.66073144E+03 E0= -.66032496E+03  d E =0.318201E+00  mag=    80.8760
       N       E                     dE             d eps       ncg     rms          rms(c)
DAV:   1    -0.660796209010E+03   -0.64808E-01   -0.55529E+01 26048   0.782E+00    0.522E+00
RMM:   2    -0.661013328053E+03   -0.21712E+00   -0.17470E+00 24320   0.189E+00    0.321E+00
RMM:   3    -0.661101009923E+03   -0.87682E-01   -0.29416E-01 24387   0.718E-01    0.260E+00
RMM:   4    -0.661108403853E+03   -0.73939E-02   -0.10592E-01 24361   0.522E-01    0.256E+00
RMM:   5    -0.661099784075E+03    0.86198E-02   -0.52801E-02 24337   0.344E-01    0.163E+00
RMM:   6    -0.661093365706E+03    0.64184E-02   -0.16467E-02 24164   0.193E-01    0.103E+00
RMM:   7    -0.661089011153E+03    0.43546E-02   -0.68574E-03 23386   0.130E-01    0.444E-01
RMM:   8    -0.661089105013E+03   -0.93860E-04   -0.27302E-03 23415   0.734E-02    0.284E-01
RMM:   9    -0.661090178094E+03   -0.10731E-02   -0.10749E-03 21980   0.464E-02    0.169E-01
RMM:  10    -0.661091366793E+03   -0.11887E-02   -0.60125E-04 20610   0.288E-02    0.127E-01
RMM:  11    -0.661092724635E+03   -0.13578E-02   -0.28408E-04 17619   0.208E-02    0.929E-02
RMM:  12    -0.661093041847E+03   -0.31721E-03   -0.13880E-04 15551   0.159E-02    0.561E-02
RMM:  13    -0.661093575853E+03   -0.53401E-03   -0.67897E-05 14321   0.123E-02    0.494E-02
RMM:  14    -0.661093944118E+03   -0.36827E-03   -0.31622E-05 13265   0.858E-03    0.267E-02
RMM:  15    -0.661094323279E+03   -0.37916E-03   -0.17379E-05 12955   0.601E-03    0.268E-02
RMM:  16    -0.661094655193E+03   -0.33191E-03   -0.11516E-05 12489   0.527E-03    0.213E-02
RMM:  17    -0.661095117806E+03   -0.46261E-03   -0.10253E-05 12446   0.461E-03    0.205E-02
RMM:  18    -0.661095499438E+03   -0.38163E-03   -0.71607E-06 11847   0.389E-03    0.186E-02
RMM:  19    -0.661095804912E+03   -0.30547E-03   -0.46379E-06 11320   0.338E-03    0.170E-02
RMM:  20    -0.661096145192E+03   -0.34028E-03   -0.39395E-06 10772   0.311E-03    0.164E-02
RMM:  21    -0.661096635242E+03   -0.49005E-03   -0.62345E-06 11685   0.349E-03    0.157E-02
RMM:  22    -0.661097104684E+03   -0.46944E-03   -0.72973E-06 11768   0.346E-03    0.148E-02
RMM:  23    -0.661097646704E+03   -0.54202E-03   -0.11971E-05 12366   0.413E-03    0.140E-02
RMM:  24    -0.661098000521E+03   -0.35382E-03   -0.83006E-06 11472   0.343E-03    0.130E-02
RMM:  25    -0.661098294658E+03   -0.29414E-03   -0.65458E-06 11128   0.326E-03    0.119E-02
RMM:  26    -0.661098565176E+03   -0.27052E-03   -0.54516E-06 10402   0.296E-03    0.114E-02
RMM:  27    -0.661098757889E+03   -0.19271E-03   -0.25144E-06  9047   0.255E-03    0.106E-02
RMM:  28    -0.661098979246E+03   -0.22136E-03   -0.17397E-06  8115   0.235E-03    0.101E-02
RMM:  29    -0.661099357449E+03   -0.37820E-03   -0.22182E-06  9173   0.256E-03    0.964E-03
RMM:  30    -0.661099750914E+03   -0.39347E-03   -0.28349E-06 10149   0.281E-03    0.892E-03
RMM:  31    -0.661100095738E+03   -0.34482E-03   -0.27395E-06 10110   0.282E-03    0.841E-03
RMM:  32    -0.661100359392E+03   -0.26365E-03   -0.20137E-06  9456   0.262E-03    0.758E-03
RMM:  33    -0.661100638947E+03   -0.27956E-03   -0.17652E-06  9028   0.254E-03    0.670E-03
RMM:  34    -0.661100892209E+03   -0.25326E-03   -0.10705E-06  7821   0.232E-03    0.626E-03
RMM:  35    -0.661101125228E+03   -0.23302E-03   -0.80782E-07  7373   0.224E-03    0.579E-03
RMM:  36    -0.661101441765E+03   -0.31654E-03   -0.88844E-07  7061   0.218E-03    0.546E-03
RMM:  37    -0.661101905991E+03   -0.46423E-03   -0.16822E-06  7500   0.226E-03    0.521E-03
RMM:  38    -0.661102466578E+03   -0.56059E-03   -0.22770E-06  7980   0.235E-03    0.470E-03
RMM:  39    -0.661102859079E+03   -0.39250E-03   -0.96431E-07  6903   0.215E-03    0.432E-03
RMM:  40    -0.661103379628E+03   -0.52055E-03   -0.89848E-07  6804   0.215E-03    0.384E-03
RMM:  41    -0.661103932262E+03   -0.55263E-03   -0.75178E-07  6580   0.214E-03    0.341E-03
RMM:  42    -0.661104325815E+03   -0.39355E-03   -0.39773E-07  6196   0.213E-03    0.283E-03
RMM:  43    -0.661104593672E+03   -0.26786E-03   -0.38346E-07  6163   0.214E-03    0.237E-03
RMM:  44    -0.661104836688E+03   -0.24302E-03   -0.37629E-07  6212   0.213E-03    0.191E-03
RMM:  45    -0.661105029932E+03   -0.19324E-03   -0.44482E-07  6313   0.213E-03    0.151E-03
RMM:  46    -0.661105081241E+03   -0.51309E-04   -0.29528E-07  5910   0.206E-03
   7 F= -.66110508E+03 E0= -.66069679E+03  d E =-.554418E-01  mag=    80.9338
       N       E                     dE             d eps       ncg     rms          rms(c)
DAV:   1    -0.661100145645E+03    0.48843E-02   -0.16056E+00 27392   0.132E+00    0.750E-01
RMM:   2    -0.661106061756E+03   -0.59161E-02   -0.46557E-02 23930   0.300E-01    0.752E-01
RMM:   3    -0.661108672591E+03   -0.26108E-02   -0.95922E-03 22714   0.144E-01    0.575E-01
RMM:   4    -0.661108091844E+03    0.58075E-03   -0.37393E-03 21573   0.953E-02    0.410E-01
RMM:   5    -0.661108275089E+03   -0.18325E-03   -0.12017E-03 21013   0.519E-02    0.257E-01
RMM:   6    -0.661108172541E+03    0.10255E-03   -0.51159E-04 20162   0.352E-02    0.168E-01
RMM:   7    -0.661108172724E+03   -0.18394E-06   -0.22571E-04 17058   0.222E-02    0.107E-01
RMM:   8    -0.661108173118E+03   -0.39395E-06   -0.78280E-05 14067   0.143E-02
   8 F= -.66110817E+03 E0= -.66070040E+03  d E =-.585336E-01  mag=    80.9337
       N       E                     dE             d eps       ncg     rms          rms(c)
DAV:   1    -0.661109386638E+03   -0.12139E-02   -0.31420E-01 26848   0.584E-01    0.338E-01
RMM:   2    -0.661110694962E+03   -0.13083E-02   -0.92963E-03 22824   0.135E-01    0.328E-01
RMM:   3    -0.661111284303E+03   -0.58934E-03   -0.18645E-03 21111   0.624E-02    0.262E-01
RMM:   4    -0.661111198701E+03    0.85601E-04   -0.72210E-04 18927   0.428E-02    0.185E-01
RMM:   5    -0.661111247214E+03   -0.48513E-04   -0.23388E-04 16655   0.229E-02    0.119E-01
RMM:   6    -0.661111263481E+03   -0.16267E-04   -0.11006E-04 14545   0.167E-02    0.827E-02
RMM:   7    -0.661111280704E+03   -0.17223E-04   -0.52208E-05 13484   0.114E-02    0.430E-02
RMM:   8    -0.661111305432E+03   -0.24728E-04   -0.13083E-05 12231   0.605E-03
   9 F= -.66111131E+03 E0= -.66070324E+03  d E =-.616660E-01  mag=    80.9339
       N       E                     dE             d eps       ncg     rms          rms(c)
DAV:   1    -0.660736378334E+03    0.37490E+00   -0.40806E+01 25296   0.664E+00    0.422E+00
RMM:   2    -0.660909536473E+03   -0.17316E+00   -0.12158E+00 24320   0.147E+00    0.503E+00
RMM:   3    -0.660942943113E+03   -0.33407E-01   -0.26680E-01 24155   0.782E-01    0.288E+00
RMM:   4    -0.660944332807E+03   -0.13897E-02   -0.10488E-01 24262   0.488E-01    0.284E+00
RMM:   5    -0.660948349655E+03   -0.40168E-02   -0.48404E-02 24068   0.340E-01    0.172E+00
RMM:   6    -0.660940738252E+03    0.76114E-02   -0.16771E-02 23960   0.205E-01    0.106E+00
RMM:   7    -0.660937670699E+03    0.30676E-02   -0.60694E-03 23308   0.119E-01    0.519E-01
RMM:   8    -0.660937462943E+03    0.20776E-03   -0.20529E-03 23151   0.659E-02    0.203E-01
RMM:   9    -0.660938125709E+03   -0.66277E-03   -0.83024E-04 22986   0.343E-02    0.137E-01
RMM:  10    -0.660938577624E+03   -0.45191E-03   -0.33162E-04 19151   0.220E-02    0.928E-02
RMM:  11    -0.660939039363E+03   -0.46174E-03   -0.16204E-04 16561   0.168E-02    0.685E-02
RMM:  12    -0.660939201757E+03   -0.16239E-03   -0.96922E-05 14967   0.144E-02    0.586E-02
RMM:  13    -0.660939355731E+03   -0.15397E-03   -0.43875E-05 13650   0.103E-02    0.330E-02
RMM:  14    -0.660939510841E+03   -0.15511E-03   -0.22497E-05 12928   0.669E-03    0.269E-02
RMM:  15    -0.660939703165E+03   -0.19232E-03   -0.12349E-05 12508   0.546E-03    0.214E-02
RMM:  16    -0.660939888703E+03   -0.18554E-03   -0.85529E-06 12177   0.434E-03    0.201E-02
RMM:  17    -0.660940142420E+03   -0.25372E-03   -0.65908E-06 12143   0.420E-03    0.179E-02
RMM:  18    -0.660940307887E+03   -0.16547E-03   -0.38067E-06 10823   0.331E-03    0.169E-02
RMM:  19    -0.660940517208E+03   -0.20932E-03   -0.29117E-06 10534   0.309E-03    0.156E-02
RMM:  20    -0.660940863420E+03   -0.34621E-03   -0.44762E-06 11581   0.340E-03    0.157E-02
RMM:  21    -0.660941270383E+03   -0.40696E-03   -0.62475E-06 11927   0.377E-03    0.143E-02
RMM:  22    -0.660941663416E+03   -0.39303E-03   -0.89047E-06 12185   0.405E-03    0.130E-02
RMM:  23    -0.660941873211E+03   -0.20980E-03   -0.54606E-06 10803   0.320E-03    0.122E-02
RMM:  24    -0.660942031553E+03   -0.15834E-03   -0.27257E-06  9866   0.277E-03    0.115E-02
RMM:  25    -0.660942248315E+03   -0.21676E-03   -0.25830E-06  9649   0.265E-03    0.111E-02
RMM:  26    -0.660942515119E+03   -0.26680E-03   -0.25511E-06  9117   0.258E-03    0.104E-02
RMM:  27    -0.660942749048E+03   -0.23393E-03   -0.15468E-06  7996   0.237E-03    0.987E-03
RMM:  28    -0.660943098476E+03   -0.34943E-03   -0.29605E-06  8800   0.255E-03    0.940E-03
RMM:  29    -0.660943565318E+03   -0.46684E-03   -0.53845E-06 10244   0.296E-03    0.891E-03
RMM:  30    -0.660944012152E+03   -0.44683E-03   -0.65358E-06 10426   0.311E-03    0.812E-03
RMM:  31    -0.660944269225E+03   -0.25707E-03   -0.30998E-06  9073   0.275E-03    0.719E-03
RMM:  32    -0.660944509722E+03   -0.24050E-03   -0.26527E-06  8849   0.258E-03    0.655E-03
RMM:  33    -0.660944812703E+03   -0.30298E-03   -0.19591E-06  8393   0.251E-03    0.613E-03
RMM:  34    -0.660945112796E+03   -0.30009E-03   -0.17581E-06  8626   0.249E-03    0.559E-03
RMM:  35    -0.660945320798E+03   -0.20800E-03   -0.70984E-07  7118   0.217E-03    0.523E-03
RMM:  36    -0.660945570497E+03   -0.24970E-03   -0.40489E-07  6469   0.209E-03    0.500E-03
RMM:  37    -0.660945920652E+03   -0.35016E-03   -0.76170E-07  7038   0.222E-03    0.460E-03
RMM:  38    -0.660946332161E+03   -0.41151E-03   -0.16009E-06  7957   0.233E-03    0.428E-03
RMM:  39    -0.660946642247E+03   -0.31009E-03   -0.95511E-07  7033   0.216E-03    0.390E-03
RMM:  40    -0.660946978946E+03   -0.33670E-03   -0.55179E-07  6525   0.208E-03    0.349E-03
RMM:  41    -0.660947408512E+03   -0.42957E-03   -0.40918E-07  6318   0.208E-03    0.301E-03
RMM:  42    -0.660947755695E+03   -0.34718E-03   -0.24096E-07  6109   0.207E-03    0.245E-03
RMM:  43    -0.660948013924E+03   -0.25823E-03   -0.32997E-07  6234   0.212E-03    0.208E-03
RMM:  44    -0.660948198979E+03   -0.18506E-03   -0.39256E-07  6408   0.213E-03    0.175E-03
RMM:  45    -0.660948356614E+03   -0.15763E-03   -0.48095E-07  6560   0.215E-03    0.149E-03
RMM:  46    -0.660948465253E+03   -0.10864E-03   -0.56655E-07  6595   0.216E-03    0.127E-03
RMM:  47    -0.660948504128E+03   -0.38875E-04   -0.32413E-07  6160   0.211E-03
  10 F= -.66094850E+03 E0= -.66054375E+03  d E =0.162801E+00  mag=    80.8761
       N       E                     dE             d eps       ncg     rms          rms(c)
DAV:   1    -0.660998541647E+03   -0.50076E-01   -0.25343E+01 26592   0.525E+00    0.365E+00
RMM:   2    -0.661096123368E+03   -0.97582E-01   -0.80899E-01 24320   0.126E+00    0.244E+00
RMM:   3    -0.661135349236E+03   -0.39226E-01   -0.12540E-01 24117   0.467E-01    0.177E+00
RMM:   4    -0.661143072205E+03   -0.77230E-02   -0.57715E-02 24118   0.380E-01    0.232E+00
RMM:   5    -0.661137055464E+03    0.60167E-02   -0.30782E-02 23838   0.275E-01    0.115E+00
RMM:   6    -0.661132182112E+03    0.48734E-02   -0.84009E-03 23841   0.140E-01    0.708E-01
RMM:   7    -0.661130081356E+03    0.21008E-02   -0.33443E-03 23023   0.866E-02    0.325E-01
RMM:   8    -0.661130331997E+03   -0.25064E-03   -0.12341E-03 22041   0.510E-02    0.208E-01
RMM:   9    -0.661130778570E+03   -0.44657E-03   -0.53590E-04 20371   0.303E-02    0.121E-01
RMM:  10    -0.661131481070E+03   -0.70250E-03   -0.25607E-04 17139   0.193E-02    0.808E-02
RMM:  11    -0.661132186688E+03   -0.70562E-03   -0.13621E-04 15405   0.157E-02    0.607E-02
RMM:  12    -0.661132397685E+03   -0.21100E-03   -0.63282E-05 13978   0.114E-02    0.384E-02
RMM:  13    -0.661132699459E+03   -0.30177E-03   -0.35360E-05 13239   0.871E-03    0.310E-02
RMM:  14    -0.661132908055E+03   -0.20860E-03   -0.18594E-05 12578   0.656E-03    0.218E-02
RMM:  15    -0.661133113231E+03   -0.20518E-03   -0.10849E-05 12076   0.494E-03    0.199E-02
RMM:  16    -0.661133312383E+03   -0.19915E-03   -0.74408E-06 11738   0.412E-03    0.167E-02
RMM:  17    -0.661133664676E+03   -0.35229E-03   -0.82605E-06 12069   0.408E-03    0.158E-02
RMM:  18    -0.661133875424E+03   -0.21075E-03   -0.46217E-06 10723   0.322E-03    0.143E-02
RMM:  19    -0.661134073700E+03   -0.19828E-03   -0.32694E-06 10375   0.299E-03    0.132E-02
RMM:  20    -0.661134343315E+03   -0.26962E-03   -0.38047E-06 10200   0.290E-03    0.129E-02
RMM:  21    -0.661134793875E+03   -0.45056E-03   -0.10859E-05 12016   0.395E-03    0.124E-02
RMM:  22    -0.661135056498E+03   -0.26262E-03   -0.72096E-06 11123   0.323E-03    0.116E-02
RMM:  23    -0.661135300150E+03   -0.24365E-03   -0.76594E-06 11476   0.345E-03    0.109E-02
RMM:  24    -0.661135466478E+03   -0.16633E-03   -0.40808E-06  9653   0.276E-03    0.992E-03
RMM:  25    -0.661135675292E+03   -0.20881E-03   -0.45339E-06 10613   0.288E-03    0.932E-03
RMM:  26    -0.661135867084E+03   -0.19179E-03   -0.28355E-06  8974   0.251E-03    0.890E-03
RMM:  27    -0.661135996939E+03   -0.12985E-03   -0.11930E-06  7721   0.227E-03    0.833E-03
RMM:  28    -0.661136193878E+03   -0.19694E-03   -0.65298E-07  6856   0.216E-03    0.798E-03
RMM:  29    -0.661136514171E+03   -0.32029E-03   -0.22584E-06  8873   0.252E-03    0.781E-03
RMM:  30    -0.661136787936E+03   -0.27376E-03   -0.21686E-06  9205   0.259E-03    0.696E-03
RMM:  31    -0.661137023448E+03   -0.23551E-03   -0.20752E-06  9185   0.257E-03    0.607E-03
RMM:  32    -0.661137223271E+03   -0.19982E-03   -0.15430E-06  8335   0.240E-03    0.562E-03
RMM:  33    -0.661137389866E+03   -0.16659E-03   -0.10853E-06  7740   0.232E-03    0.509E-03
RMM:  34    -0.661137609536E+03   -0.21967E-03   -0.11080E-06  7805   0.233E-03    0.479E-03
RMM:  35    -0.661137756751E+03   -0.14722E-03   -0.46433E-07  6580   0.210E-03    0.451E-03
RMM:  36    -0.661137942122E+03   -0.18537E-03   -0.68846E-07  6437   0.209E-03    0.431E-03
RMM:  37    -0.661138222371E+03   -0.28025E-03   -0.14892E-06  6951   0.218E-03    0.398E-03
RMM:  38    -0.661138629925E+03   -0.40755E-03   -0.20187E-06  7468   0.230E-03    0.360E-03
RMM:  39    -0.661138962414E+03   -0.33249E-03   -0.94882E-07  6920   0.223E-03    0.317E-03
RMM:  40    -0.661139223064E+03   -0.26065E-03   -0.41461E-07  6181   0.213E-03    0.278E-03
RMM:  41    -0.661139578329E+03   -0.35527E-03   -0.39621E-07  6021   0.210E-03    0.244E-03
RMM:  42    -0.661139817407E+03   -0.23908E-03   -0.18147E-07  5645   0.208E-03    0.211E-03
RMM:  43    -0.661140019693E+03   -0.20229E-03   -0.20971E-07  5764   0.211E-03    0.177E-03
RMM:  44    -0.661140159577E+03   -0.13988E-03   -0.19268E-07  5764   0.211E-03    0.156E-03
RMM:  45    -0.661140310619E+03   -0.15104E-03   -0.34316E-07  6097   0.211E-03    0.127E-03
RMM:  46    -0.661140386775E+03   -0.76156E-04   -0.30992E-07  5889   0.206E-03
  11 F= -.66114039E+03 E0= -.66073322E+03  d E =-.290813E-01  mag=    80.9239
       N       E                     dE             d eps       ncg     rms          rms(c)
DAV:   1    -0.661137528375E+03    0.27822E-02   -0.47975E-01 27152   0.716E-01    0.433E-01
RMM:   2    -0.661138984944E+03   -0.14566E-02   -0.14186E-02 22966   0.163E-01    0.420E-01
RMM:   3    -0.661139985559E+03   -0.10006E-02   -0.26659E-03 21492   0.744E-02    0.304E-01
RMM:   4    -0.661139904541E+03    0.81018E-04   -0.12108E-03 19818   0.537E-02    0.284E-01
RMM:   5    -0.661139905988E+03   -0.14463E-05   -0.50361E-04 18732   0.348E-02    0.152E-01
RMM:   6    -0.661139881219E+03    0.24769E-04   -0.17741E-04 16026   0.209E-02    0.106E-01
RMM:   7    -0.661139856367E+03    0.24852E-04   -0.71141E-05 14022   0.135E-02    0.529E-02
RMM:   8    -0.661139866353E+03   -0.99852E-05   -0.23963E-05 12515   0.797E-03
  12 F= -.66113987E+03 E0= -.66073316E+03  d E =-.285609E-01  mag=    80.9237
       N       E                     dE             d eps       ncg     rms          rms(c)
DAV:   1    -0.661141041991E+03   -0.11856E-02   -0.13420E-01 26336   0.380E-01    0.232E-01
RMM:   2    -0.661141555179E+03   -0.51319E-03   -0.40070E-03 21922   0.874E-02    0.215E-01
RMM:   3    -0.661141904151E+03   -0.34897E-03   -0.73866E-04 19139   0.386E-02    0.163E-01
RMM:   4    -0.661141921474E+03   -0.17323E-04   -0.33959E-04 16704   0.291E-02    0.154E-01
RMM:   5    -0.661141949969E+03   -0.28495E-04   -0.13811E-04 14856   0.186E-02    0.907E-02
RMM:   6    -0.661141954351E+03   -0.43823E-05   -0.53378E-05 13612   0.118E-02    0.591E-02
RMM:   7    -0.661141962627E+03   -0.82757E-05   -0.23746E-05 12725   0.788E-03    0.263E-02
RMM:   8    -0.661141974913E+03   -0.12286E-04   -0.57848E-06 11098   0.415E-03
  13 F= -.66114197E+03 E0= -.66073501E+03  d E =-.306695E-01  mag=    80.9238
       N       E                     dE             d eps       ncg     rms          rms(c)
DAV:   1    -0.660988103095E+03    0.15386E+00   -0.14162E+01 25328   0.411E+00    0.206E+00
RMM:   2    -0.661038595637E+03   -0.50493E-01   -0.41128E-01 24320   0.918E-01    0.223E+00
RMM:   3    -0.661053437334E+03   -0.14842E-01   -0.81107E-02 23833   0.422E-01    0.154E+00
RMM:   4    -0.661049515335E+03    0.39220E-02   -0.30634E-02 23532   0.269E-01    0.124E+00
RMM:   5    -0.661047564026E+03    0.19513E-02   -0.11611E-02 22713   0.163E-01    0.545E-01
RMM:   6    -0.661047417462E+03    0.14656E-03   -0.46253E-03 22472   0.934E-02    0.420E-01
RMM:   7    -0.661047057988E+03    0.35947E-03   -0.16516E-03 21703   0.646E-02    0.249E-01
RMM:   8    -0.661047147041E+03   -0.89053E-04   -0.64280E-04 21351   0.342E-02
  14 F= -.66104715E+03 E0= -.66064218E+03  d E =0.948279E-01  mag=    80.9212
       N       E                     dE             d eps       ncg     rms          rms(c)
DAV:   1    -0.661111376905E+03   -0.64319E-01   -0.85613E+00 26784   0.321E+00    0.166E+00
RMM:   2    -0.661147438022E+03   -0.36061E-01   -0.25652E-01 24296   0.737E-01    0.135E+00
RMM:   3    -0.661158789209E+03   -0.11351E-01   -0.43836E-02 23670   0.295E-01    0.120E+00
RMM:   4    -0.661157464731E+03    0.13245E-02   -0.18307E-02 23319   0.214E-01    0.986E-01
RMM:   5    -0.661157234401E+03    0.23033E-03   -0.73853E-03 22843   0.128E-01    0.549E-01
RMM:   6    -0.661157125757E+03    0.10864E-03   -0.25985E-03 22425   0.727E-02    0.419E-01
RMM:   7    -0.661156729394E+03    0.39636E-03   -0.12491E-03 21604   0.538E-02    0.235E-01
RMM:   8    -0.661156722290E+03    0.71041E-05   -0.40017E-04 19087   0.282E-02
  15 F= -.66115672E+03 E0= -.66075038E+03  d E =-.147474E-01  mag=    80.9211
       N       E                     dE             d eps       ncg     rms          rms(c)
DAV:   1    -0.661156778456E+03   -0.49062E-04   -0.25469E-02 26528   0.188E-01    0.116E-01
RMM:   2    -0.661157187415E+03   -0.40896E-03   -0.11009E-03 20495   0.498E-02    0.215E-01
RMM:   3    -0.661157129394E+03    0.58021E-04   -0.30728E-04 16832   0.284E-02    0.662E-02
RMM:   4    -0.661157189154E+03   -0.59759E-04   -0.61470E-05 13540   0.125E-02    0.588E-02
RMM:   5    -0.661157213890E+03   -0.24737E-04   -0.23938E-05 12592   0.817E-03    0.316E-02
RMM:   6    -0.661157251969E+03   -0.38079E-04   -0.15226E-05 12311   0.582E-03    0.299E-02
RMM:   7    -0.661157271401E+03   -0.19432E-04   -0.72654E-06 11867   0.461E-03    0.145E-02
RMM:   8    -0.661157287798E+03   -0.16397E-04   -0.16660E-06  9123   0.257E-03
  16 F= -.66115729E+03 E0= -.66075103E+03  d E =-.153129E-01  mag=    80.9208
       N       E                     dE             d eps       ncg     rms          rms(c)
DAV:   1    -0.661157372368E+03   -0.10097E-03   -0.49592E-03 25424   0.771E-02    0.381E-02
RMM:   2    -0.661157429041E+03   -0.56673E-04   -0.15152E-04 14990   0.179E-02    0.455E-02
RMM:   3    -0.661157447882E+03   -0.18841E-04   -0.30154E-05 12656   0.879E-03    0.297E-02
RMM:   4    -0.661157466686E+03   -0.18803E-04   -0.10209E-05 11498   0.561E-03    0.230E-02
RMM:   5    -0.661157491878E+03   -0.25192E-04   -0.34466E-06  9999   0.329E-03    0.145E-02
RMM:   6    -0.661157515849E+03   -0.23971E-04   -0.14285E-06  8697   0.253E-03    0.100E-02
RMM:   7    -0.661157531252E+03   -0.15403E-04   -0.46077E-07  6772   0.221E-03    0.554E-03
RMM:   8    -0.661157542670E+03   -0.11418E-04   -0.14216E-08  5101   0.193E-03
  17 F= -.66115754E+03 E0= -.66075122E+03  d E =-.155678E-01  mag=    80.9205
       N       E                     dE             d eps       ncg     rms          rms(c)
DAV:   1    -0.661146373538E+03    0.11158E-01   -0.12003E+00 25792   0.129E+00    0.361E-01
RMM:   2    -0.661149645037E+03   -0.32715E-02   -0.28413E-02 24062   0.252E-01    0.273E-01
RMM:   3    -0.661150872778E+03   -0.12277E-02   -0.48103E-03 23128   0.104E-01    0.308E-01
RMM:   4    -0.661150621763E+03    0.25101E-03   -0.12822E-03 21712   0.576E-02    0.137E-01
RMM:   5    -0.661150631842E+03   -0.10078E-04   -0.43258E-04 19042   0.268E-02    0.953E-02
RMM:   6    -0.661150596600E+03    0.35241E-04   -0.11663E-04 15119   0.150E-02    0.624E-02
RMM:   7    -0.661150605650E+03   -0.90492E-05   -0.90921E-05 14724   0.141E-02    0.928E-02
RMM:   8    -0.661150561096E+03    0.44554E-04   -0.48473E-05 13912   0.119E-02
  18 F= -.66115056E+03 E0= -.66074437E+03  d E =0.698157E-02  mag=    80.9198
       N       E                     dE             d eps       ncg     rms          rms(c)
DAV:   1    -0.661160191816E+03   -0.95862E-02   -0.47818E-01 27440   0.817E-01    0.227E-01
RMM:   2    -0.661161395740E+03   -0.12039E-02   -0.11230E-02 23849   0.159E-01    0.166E-01
RMM:   3    -0.661161879903E+03   -0.48416E-03   -0.18567E-03 22107   0.648E-02    0.179E-01
RMM:   4    -0.661161827971E+03    0.51931E-04   -0.48101E-04 19025   0.359E-02    0.859E-02
RMM:   5    -0.661161825386E+03    0.25854E-05   -0.15554E-04 15279   0.177E-02    0.604E-02
RMM:   6    -0.661161825493E+03   -0.10710E-06   -0.47796E-05 13599   0.107E-02    0.380E-02
RMM:   7    -0.661161859438E+03   -0.33945E-04   -0.36820E-05 13542   0.904E-03    0.525E-02
RMM:   8    -0.661161865547E+03   -0.61095E-05   -0.17461E-05 12857   0.739E-03
  19 F= -.66116187E+03 E0= -.66075560E+03  d E =-.432288E-02  mag=    80.9194
       N       E                     dE             d eps       ncg     rms          rms(c)
DAV:   1    -0.661161901666E+03   -0.42228E-04   -0.48313E-01 26640   0.807E-01    0.255E-01
RMM:   2    -0.661163225050E+03   -0.13234E-02   -0.11094E-02 24033   0.150E-01    0.150E-01
RMM:   3    -0.661163805848E+03   -0.58080E-03   -0.16283E-03 21951   0.597E-02    0.119E-01
RMM:   4    -0.661163839851E+03   -0.34003E-04   -0.41114E-04 18638   0.320E-02    0.947E-02
RMM:   5    -0.661163847067E+03   -0.72159E-05   -0.13006E-04 15107   0.174E-02    0.483E-02
RMM:   6    -0.661163876345E+03   -0.29278E-04   -0.40363E-05 13709   0.975E-03    0.403E-02
RMM:   7    -0.661163913699E+03   -0.37354E-04   -0.28712E-05 13282   0.864E-03    0.366E-02
RMM:   8    -0.661163939227E+03   -0.25528E-04   -0.15118E-05 12927   0.669E-03
  20 F= -.66116394E+03 E0= -.66075776E+03  d E =-.207368E-02  mag=    80.9190
       N       E                     dE             d eps       ncg     rms          rms(c)
DAV:   1    -0.661164603647E+03   -0.68995E-03   -0.61202E-02 26880   0.288E-01    0.914E-02
RMM:   2    -0.661164733083E+03   -0.12944E-03   -0.14068E-03 21462   0.537E-02    0.638E-02
RMM:   3    -0.661164818009E+03   -0.84926E-04   -0.22112E-04 16543   0.228E-02    0.637E-02
RMM:   4    -0.661164812337E+03    0.56722E-05   -0.64761E-05 14001   0.140E-02    0.345E-02
RMM:   5    -0.661164803780E+03    0.85565E-05   -0.16415E-05 12369   0.652E-03    0.158E-02
RMM:   6    -0.661164798975E+03    0.48052E-05   -0.52474E-06 11115   0.373E-03    0.126E-02
RMM:   7    -0.661164795628E+03    0.33472E-05   -0.37210E-06 11520   0.348E-03    0.134E-02
RMM:   8    -0.661164795703E+03   -0.75437E-07   -0.14733E-06  9969   0.279E-03
  21 F= -.66116480E+03 E0= -.66075859E+03  d E =-.293016E-02  mag=    80.9186
       N       E                     dE             d eps       ncg     rms          rms(c)
DAV:   1    -0.661167650789E+03   -0.28552E-02   -0.18663E-01 27168   0.487E-01    0.171E-01
RMM:   2    -0.661168163728E+03   -0.51294E-03   -0.41671E-03 23031   0.892E-02    0.109E-01
RMM:   3    -0.661168448490E+03   -0.28476E-03   -0.63877E-04 19319   0.368E-02    0.998E-02
RMM:   4    -0.661168444287E+03    0.42031E-05   -0.18632E-04 16096   0.217E-02    0.593E-02
RMM:   5    -0.661168456019E+03   -0.11732E-04   -0.60830E-05 13376   0.119E-02    0.337E-02
RMM:   6    -0.661168470208E+03   -0.14188E-04   -0.18612E-05 12535   0.643E-03    0.236E-02
RMM:   7    -0.661168490373E+03   -0.20165E-04   -0.13220E-05 12601   0.563E-03    0.227E-02
RMM:   8    -0.661168497699E+03   -0.73267E-05   -0.66090E-06 11984   0.473E-03
  22 F= -.66116850E+03 E0= -.66076234E+03  d E =-.370200E-02  mag=    80.9182
       N       E                     dE             d eps       ncg     rms          rms(c)
DAV:   1    -0.661169799852E+03   -0.13095E-02   -0.16775E+00 25472   0.146E+00    0.517E-01
RMM:   2    -0.661174570679E+03   -0.47708E-02   -0.37009E-02 24320   0.267E-01    0.354E-01
RMM:   3    -0.661176472277E+03   -0.19016E-02   -0.59425E-03 23270   0.114E-01    0.373E-01
RMM:   4    -0.661176169332E+03    0.30294E-03   -0.18554E-03 21839   0.666E-02    0.168E-01
RMM:   5    -0.661176163540E+03    0.57919E-05   -0.63815E-04 20176   0.321E-02    0.103E-01
RMM:   6    -0.661176161050E+03    0.24899E-05   -0.15345E-04 15844   0.167E-02    0.776E-02
RMM:   7    -0.661176207056E+03   -0.46006E-04   -0.10494E-04 15066   0.154E-02    0.908E-02
RMM:   8    -0.661176206119E+03    0.93691E-06   -0.69022E-05 14380   0.134E-02
  23 F= -.66117621E+03 E0= -.66077019E+03  d E =-.114104E-01  mag=    80.9177
       N       E                     dE             d eps       ncg     rms          rms(c)
DAV:   1    -0.661176833334E+03   -0.62628E-03   -0.54614E-03 26640   0.869E-02    0.413E-02
RMM:   2    -0.661176884814E+03   -0.51480E-04   -0.16591E-04 15986   0.196E-02    0.734E-02
RMM:   3    -0.661176888492E+03   -0.36783E-05   -0.51822E-05 13660   0.126E-02    0.298E-02
RMM:   4    -0.661176901168E+03   -0.12676E-04   -0.94044E-06 12332   0.548E-03    0.178E-02
RMM:   5    -0.661176907084E+03   -0.59162E-05   -0.29187E-06 10306   0.307E-03    0.105E-02
RMM:   6    -0.661176917371E+03   -0.10286E-04   -0.15568E-06  9153   0.266E-03    0.780E-03
RMM:   7    -0.661176922633E+03   -0.52624E-05   -0.88723E-07  7934   0.244E-03    0.771E-03
RMM:   8    -0.661176922681E+03   -0.47497E-07   -0.78167E-07  7724   0.240E-03
  24 F= -.66117692E+03 E0= -.66077092E+03  d E =-.716561E-03  mag=    80.9171
       N       E                     dE             d eps       ncg     rms          rms(c)
DAV:   1    -0.661177936752E+03   -0.10141E-02   -0.49394E-02 26432   0.248E-01    0.900E-02
RMM:   2    -0.661178054480E+03   -0.11773E-03   -0.10797E-03 20255   0.459E-02    0.680E-02
RMM:   3    -0.661178150390E+03   -0.95909E-04   -0.19571E-04 16200   0.210E-02    0.832E-02
RMM:   4    -0.661178128561E+03    0.21829E-04   -0.64879E-05 13485   0.134E-02    0.255E-02
RMM:   5    -0.661178129815E+03   -0.12550E-05   -0.17112E-05 12040   0.612E-03    0.196E-02
RMM:   6    -0.661178125902E+03    0.39139E-05   -0.52426E-06 10859   0.390E-03    0.120E-02
RMM:   7    -0.661178115713E+03    0.10188E-04   -0.39687E-06 10860   0.353E-03    0.139E-02
RMM:   8    -0.661178104383E+03    0.11330E-04   -0.21437E-06  9889   0.307E-03
  25 F= -.66117810E+03 E0= -.66077211E+03  d E =-.189826E-02  mag=    80.9166
       N       E                     dE             d eps       ncg     rms          rms(c)
DAV:   1    -0.661176149758E+03    0.19660E-02   -0.19766E-01 27760   0.497E-01    0.180E-01
RMM:   2    -0.661176674763E+03   -0.52501E-03   -0.43198E-03 23031   0.913E-02    0.132E-01
RMM:   3    -0.661177005030E+03   -0.33027E-03   -0.77155E-04 19655   0.413E-02    0.161E-01
RMM:   4    -0.661176922605E+03    0.82424E-04   -0.24355E-04 16610   0.251E-02    0.482E-02
RMM:   5    -0.661176929827E+03   -0.72215E-05   -0.73042E-05 13604   0.118E-02    0.384E-02
RMM:   6    -0.661176922123E+03    0.77039E-05   -0.19908E-05 12648   0.705E-03    0.243E-02
RMM:   7    -0.661176906925E+03    0.15198E-04   -0.14258E-05 12518   0.591E-03    0.290E-02
RMM:   8    -0.661176888766E+03    0.18159E-04   -0.81119E-06 12101   0.504E-03
  26 F= -.66117689E+03 E0= -.66077088E+03  d E =-.682647E-03  mag=    80.9160
       N       E                     dE             d eps       ncg     rms          rms(c)
DAV:   1    -0.661177786338E+03   -0.87941E-03   -0.11127E-01 27792   0.373E-01    0.134E-01
RMM:   2    -0.661178004377E+03   -0.21804E-03   -0.24127E-03 21909   0.684E-02    0.975E-02
RMM:   3    -0.661178158797E+03   -0.15442E-03   -0.42280E-04 18094   0.307E-02    0.116E-01
RMM:   4    -0.661178126891E+03    0.31907E-04   -0.13471E-04 14900   0.190E-02    0.373E-02
RMM:   5    -0.661178118767E+03    0.81239E-05   -0.37261E-05 12727   0.886E-03    0.273E-02
RMM:   6    -0.661178109103E+03    0.96639E-05   -0.10517E-05 11589   0.510E-03    0.154E-02
RMM:   7    -0.661178098240E+03    0.10862E-04   -0.73790E-06 11651   0.427E-03    0.159E-02
RMM:   8    -0.661178094126E+03    0.41141E-05   -0.33852E-06 10569   0.364E-03
  27 F= -.66117809E+03 E0= -.66077210E+03  d E =-.188801E-02  mag=    80.9155
       N       E                     dE             d eps       ncg     rms          rms(c)
DAV:   1    -0.661179630811E+03   -0.15326E-02   -0.13309E-03 25248   0.422E-02    0.133E-02
RMM:   2    -0.661179628244E+03    0.25672E-05   -0.33519E-05 13483   0.841E-03    0.130E-02
RMM:   3    -0.661179628885E+03   -0.64075E-06   -0.57775E-06 10942   0.433E-03    0.133E-02
RMM:   4    -0.661179624887E+03    0.39977E-05   -0.11291E-06  7553   0.252E-03    0.507E-03
RMM:   5    -0.661179622010E+03    0.28769E-05   -0.13259E-07  5234   0.194E-03    0.457E-03
RMM:   6    -0.661179616342E+03    0.56685E-05   -0.32724E-08  4996   0.186E-03    0.334E-03
RMM:   7    -0.661179612681E+03    0.36610E-05   -0.44180E-08  5057   0.192E-03    0.313E-03
RMM:   8    -0.661179610980E+03    0.17011E-05   -0.83450E-09  4863   0.189E-03
  28 F= -.66117961E+03 E0= -.66077360E+03  d E =-.151685E-02  mag=    80.9150
       N       E                     dE             d eps       ncg     rms          rms(c)
DAV:   1    -0.661183946948E+03   -0.43343E-02   -0.11890E-02 26736   0.125E-01    0.387E-02
RMM:   2    -0.661183952783E+03   -0.58357E-05   -0.28825E-04 16665   0.241E-02    0.367E-02
RMM:   3    -0.661183973750E+03   -0.20967E-04   -0.55603E-05 13559   0.118E-02    0.437E-02
RMM:   4    -0.661183960013E+03    0.13737E-04   -0.14677E-05 11734   0.662E-03    0.122E-02
RMM:   5    -0.661183953072E+03    0.69402E-05   -0.35948E-06  9290   0.311E-03    0.120E-02
RMM:   6    -0.661183943493E+03    0.95791E-05   -0.14678E-06  8155   0.260E-03    0.706E-03
RMM:   7    -0.661183937873E+03    0.56205E-05   -0.75715E-07  7447   0.239E-03    0.683E-03
RMM:   8    -0.661183934597E+03    0.32755E-05   -0.14497E-07  5907   0.211E-03
  29 F= -.66118393E+03 E0= -.66077789E+03  d E =-.584047E-02  mag=    80.9146
       N       E                     dE             d eps       ncg     rms          rms(c)
DAV:   1    -0.661191220141E+03   -0.72823E-02   -0.47692E-02 26784   0.250E-01    0.777E-02
RMM:   2    -0.661191286313E+03   -0.66172E-04   -0.11487E-03 20502   0.485E-02    0.764E-02
RMM:   3    -0.661191364767E+03   -0.78453E-04   -0.22612E-04 16194   0.226E-02    0.888E-02
RMM:   4    -0.661191324408E+03    0.40359E-04   -0.60200E-05 13602   0.133E-02    0.243E-02
RMM:   5    -0.661191312059E+03    0.12349E-04   -0.16572E-05 12202   0.582E-03    0.246E-02
RMM:   6    -0.661191294372E+03    0.17687E-04   -0.67848E-06 11536   0.437E-03    0.150E-02
RMM:   7    -0.661191282626E+03    0.11746E-04   -0.41500E-06 11186   0.374E-03    0.153E-02
RMM:   8    -0.661191275868E+03    0.67581E-05   -0.16606E-06  9482   0.283E-03
  30 F= -.66119128E+03 E0= -.66078516E+03  d E =-.131817E-01  mag=    80.9140
       N       E                     dE             d eps       ncg     rms          rms(c)
DAV:   1    -0.661199036318E+03   -0.77537E-02   -0.19114E-01 26784   0.501E-01    0.155E-01
RMM:   2    -0.661199404453E+03   -0.36814E-03   -0.45616E-03 22826   0.969E-02    0.149E-01
RMM:   3    -0.661199671966E+03   -0.26751E-03   -0.89682E-04 20155   0.445E-02    0.172E-01
RMM:   4    -0.661199542233E+03    0.12973E-03   -0.23131E-04 16357   0.248E-02    0.464E-02
RMM:   5    -0.661199519861E+03    0.22372E-04   -0.70129E-05 13831   0.117E-02    0.503E-02
RMM:   6    -0.661199481318E+03    0.38543E-04   -0.27020E-05 12960   0.827E-03    0.309E-02
RMM:   7    -0.661199458010E+03    0.23308E-04   -0.16890E-05 12589   0.670E-03    0.320E-02
RMM:   8    -0.661199441195E+03    0.16816E-04   -0.74928E-06 11919   0.482E-03
  31 F= -.66119944E+03 E0= -.66079318E+03  d E =-.213471E-01  mag=    80.9134
       N       E                     dE             d eps       ncg     rms          rms(c)
DAV:   1    -0.661199761829E+03   -0.30382E-03   -0.18662E-02 28000   0.157E-01    0.494E-02
RMM:   2    -0.661199773737E+03   -0.11907E-04   -0.45336E-04 17968   0.306E-02    0.508E-02
RMM:   3    -0.661199802973E+03   -0.29237E-04   -0.89563E-05 14173   0.151E-02    0.550E-02
RMM:   4    -0.661199782446E+03    0.20528E-04   -0.23556E-05 12558   0.856E-03    0.159E-02
RMM:   5    -0.661199773742E+03    0.87032E-05   -0.62798E-06 10711   0.386E-03    0.172E-02
RMM:   6    -0.661199762129E+03    0.11614E-04   -0.31763E-06 10192   0.335E-03    0.104E-02
RMM:   7    -0.661199755532E+03    0.65970E-05   -0.16465E-06  8794   0.274E-03    0.860E-03
RMM:   8    -0.661199751953E+03    0.35791E-05   -0.47686E-07  6699   0.230E-03
  32 F= -.66119975E+03 E0= -.66079344E+03  d E =-.216578E-01  mag=    80.9127
       N       E                     dE             d eps       ncg     rms          rms(c)
DAV:   1    -0.661203992461E+03   -0.42369E-02   -0.25881E-02 27296   0.180E-01    0.590E-02
RMM:   2    -0.661204005416E+03   -0.12955E-04   -0.56527E-04 18295   0.318E-02    0.548E-02
RMM:   3    -0.661204039683E+03   -0.34268E-04   -0.10600E-04 14197   0.157E-02    0.596E-02
RMM:   4    -0.661204014850E+03    0.24833E-04   -0.32947E-05 12355   0.977E-03    0.241E-02
RMM:   5    -0.661204008838E+03    0.60122E-05   -0.76613E-06 10648   0.426E-03    0.147E-02
RMM:   6    -0.661204003123E+03    0.57146E-05   -0.32296E-06  9483   0.319E-03    0.113E-02
RMM:   7    -0.661204000264E+03    0.28592E-05   -0.17451E-06  8901   0.282E-03    0.934E-03
RMM:   8    -0.661204000923E+03   -0.65891E-06   -0.54311E-07  6899   0.236E-03
  33 F= -.66120400E+03 E0= -.66079767E+03  d E =-.424897E-02  mag=    80.9120
       N       E                     dE             d eps       ncg     rms          rms(c)
DAV:   1    -0.661210942287E+03   -0.69420E-02   -0.23312E-01 26016   0.539E-01    0.177E-01
RMM:   2    -0.661211344022E+03   -0.40174E-03   -0.50644E-03 22489   0.950E-02    0.155E-01
RMM:   3    -0.661211602557E+03   -0.25853E-03   -0.91244E-04 19898   0.445E-02    0.168E-01
RMM:   4    -0.661211468204E+03    0.13435E-03   -0.27690E-04 16471   0.267E-02    0.700E-02
RMM:   5    -0.661211449643E+03    0.18561E-04   -0.76497E-05 13492   0.123E-02    0.426E-02
RMM:   6    -0.661211424666E+03    0.24977E-04   -0.32980E-05 12647   0.829E-03    0.343E-02
RMM:   7    -0.661211409156E+03    0.15510E-04   -0.17626E-05 12306   0.688E-03    0.271E-02
RMM:   8    -0.661211404341E+03    0.48149E-05   -0.82211E-06 11498   0.506E-03
  34 F= -.66121140E+03 E0= -.66080502E+03  d E =-.116524E-01  mag=    80.9112
       N       E                     dE             d eps       ncg     rms          rms(c)
DAV:   1    -0.661212267168E+03   -0.85801E-03   -0.55556E-02 27360   0.263E-01    0.867E-02
RMM:   2    -0.661212322087E+03   -0.54919E-04   -0.12158E-03 20336   0.464E-02    0.710E-02
RMM:   3    -0.661212391620E+03   -0.69533E-04   -0.21118E-04 15790   0.215E-02    0.816E-02
RMM:   4    -0.661212350512E+03    0.41108E-04   -0.69333E-05 13278   0.140E-02    0.371E-02
RMM:   5    -0.661212345029E+03    0.54832E-05   -0.18178E-05 11887   0.625E-03    0.218E-02
RMM:   6    -0.661212339670E+03    0.53593E-05   -0.81411E-06 11328   0.439E-03    0.188E-02
RMM:   7    -0.661212339024E+03    0.64587E-06   -0.46732E-06 11146   0.387E-03    0.162E-02
RMM:   8    -0.661212341478E+03   -0.24540E-05   -0.19996E-06  9490   0.290E-03
  35 F= -.66121234E+03 E0= -.66080593E+03  d E =-.125895E-01  mag=    80.9103
       N       E                     dE             d eps       ncg     rms          rms(c)
DAV:   1    -0.661218133044E+03   -0.57940E-02   -0.75235E-02 27120   0.298E-01    0.105E-01
RMM:   2    -0.661218272110E+03   -0.13907E-03   -0.15920E-03 20608   0.514E-02    0.689E-02
RMM:   3    -0.661218378739E+03   -0.10663E-03   -0.21525E-04 15986   0.211E-02    0.543E-02
RMM:   4    -0.661218380440E+03   -0.17015E-05   -0.71325E-05 13356   0.142E-02    0.652E-02
RMM:   5    -0.661218397925E+03   -0.17484E-04   -0.25520E-05 12384   0.849E-03    0.211E-02
RMM:   6    -0.661218412683E+03   -0.14758E-04   -0.10830E-05 12010   0.524E-03    0.305E-02
RMM:   7    -0.661218417298E+03   -0.46152E-05   -0.43464E-06 11632   0.399E-03    0.124E-02
RMM:   8    -0.661218426461E+03   -0.91633E-05   -0.94592E-07  7658   0.237E-03
  36 F= -.66121843E+03 E0= -.66081205E+03  d E =-.608498E-02  mag=    80.9094
       N       E                     dE             d eps       ncg     rms          rms(c)
DAV:   1    -0.661220500816E+03   -0.20835E-02   -0.25600E-01 25920   0.551E-01    0.193E-01
RMM:   2    -0.661221052703E+03   -0.55189E-03   -0.54438E-03 22489   0.950E-02    0.130E-01
RMM:   3    -0.661221370495E+03   -0.31779E-03   -0.75367E-04 19530   0.391E-02    0.107E-01
RMM:   4    -0.661221366753E+03    0.37421E-05   -0.25415E-04 16327   0.256E-02    0.115E-01
RMM:   5    -0.661221374516E+03   -0.77635E-05   -0.88945E-05 13743   0.156E-02    0.354E-02
RMM:   6    -0.661221392219E+03   -0.17703E-04   -0.42771E-05 12953   0.101E-02    0.548E-02
RMM:   7    -0.661221392872E+03   -0.65286E-06   -0.17625E-05 12161   0.746E-03    0.165E-02
RMM:   8    -0.661221401645E+03   -0.87731E-05   -0.46809E-06 10718   0.350E-03
  37 F= -.66122140E+03 E0= -.66081511E+03  d E =-.906017E-02  mag=    80.9085
       N       E                     dE             d eps       ncg     rms          rms(c)
DAV:   1    -0.661221751728E+03   -0.35886E-03   -0.19124E-02 27504   0.151E-01    0.522E-02
RMM:   2    -0.661221828124E+03   -0.76396E-04   -0.40759E-04 17034   0.261E-02    0.431E-02
RMM:   3    -0.661221856976E+03   -0.28852E-04   -0.61366E-05 13521   0.121E-02    0.441E-02
RMM:   4    -0.661221864815E+03   -0.78389E-05   -0.20714E-05 12356   0.801E-03    0.298E-02
RMM:   5    -0.661221875886E+03   -0.11071E-04   -0.46447E-06 11097   0.389E-03    0.164E-02
RMM:   6    -0.661221885916E+03   -0.10031E-04   -0.20744E-06  9660   0.291E-03    0.131E-02
RMM:   7    -0.661221901688E+03   -0.15772E-04   -0.10578E-06  7894   0.258E-03    0.720E-03
RMM:   8    -0.661221910662E+03   -0.89733E-05   -0.35661E-08  5087   0.194E-03
  38 F= -.66122191E+03 E0= -.66081562E+03  d E =-.956918E-02  mag=    80.9077
       N       E                     dE             d eps       ncg     rms          rms(c)
DAV:   1    -0.661224877510E+03   -0.29758E-02   -0.49842E-02 27264   0.249E-01    0.102E-01
RMM:   2    -0.661224953836E+03   -0.76326E-04   -0.11271E-03 20101   0.456E-02    0.819E-02
RMM:   3    -0.661225021229E+03   -0.67393E-04   -0.17851E-04 15612   0.196E-02    0.691E-02
RMM:   4    -0.661225003396E+03    0.17833E-04   -0.78539E-05 13314   0.146E-02    0.689E-02
RMM:   5    -0.661225007453E+03   -0.40578E-05   -0.30287E-05 12385   0.887E-03    0.243E-02
RMM:   6    -0.661225014407E+03   -0.69537E-05   -0.12105E-05 11788   0.583E-03    0.272E-02
RMM:   7    -0.661225016418E+03   -0.20112E-05   -0.41256E-06 11127   0.397E-03    0.108E-02
RMM:   8    -0.661225022480E+03   -0.60615E-05   -0.59187E-07  6688   0.219E-03
  39 F= -.66122502E+03 E0= -.66081877E+03  d E =-.311182E-02  mag=    80.9069
       N       E                     dE             d eps       ncg     rms          rms(c)
DAV:   1    -0.661225601975E+03   -0.58556E-03   -0.30985E-02 27248   0.196E-01    0.811E-02
RMM:   2    -0.661225643402E+03   -0.41427E-04   -0.70264E-04 18935   0.362E-02    0.609E-02
RMM:   3    -0.661225685242E+03   -0.41840E-04   -0.10579E-04 14574   0.152E-02    0.525E-02
RMM:   4    -0.661225680189E+03    0.50534E-05   -0.41478E-05 12850   0.112E-02    0.565E-02
RMM:   5    -0.661225681845E+03   -0.16564E-05   -0.14613E-05 12374   0.651E-03    0.281E-02
RMM:   6    -0.661225687866E+03   -0.60210E-05   -0.66492E-06 11739   0.444E-03    0.219E-02
RMM:   7    -0.661225690367E+03   -0.25006E-05   -0.30116E-06 10582   0.346E-03    0.946E-03
RMM:   8    -0.661225696571E+03   -0.62045E-05   -0.60546E-07  6790   0.226E-03
  40 F= -.66122570E+03 E0= -.66081949E+03  d E =-.378591E-02  mag=    80.9061
       N       E                     dE             d eps       ncg     rms          rms(c)
DAV:   1    -0.661227144341E+03   -0.14540E-02   -0.21507E-02 27648   0.164E-01    0.884E-02
RMM:   2    -0.661227129623E+03    0.14718E-04   -0.57602E-04 18760   0.341E-02    0.741E-02
RMM:   3    -0.661227177628E+03   -0.48005E-04   -0.11049E-04 14765   0.161E-02    0.700E-02
RMM:   4    -0.661227143068E+03    0.34560E-04   -0.53108E-05 12891   0.122E-02    0.519E-02
RMM:   5    -0.661227129040E+03    0.14028E-04   -0.18312E-05 12233   0.674E-03    0.288E-02
RMM:   6    -0.661227127830E+03    0.12103E-05   -0.72950E-06 11731   0.466E-03    0.221E-02
RMM:   7    -0.661227126860E+03    0.96997E-06   -0.27442E-06 10673   0.325E-03    0.108E-02
RMM:   8    -0.661227130344E+03   -0.34841E-05   -0.36164E-07  6402   0.216E-03
  41 F= -.66122713E+03 E0= -.66082094E+03  d E =-.143377E-02  mag=    80.9052
       N       E                     dE             d eps       ncg     rms          rms(c)
DAV:   1    -0.661227642860E+03   -0.51600E-03   -0.37910E-02 27408   0.217E-01    0.117E-01
RMM:   2    -0.661227639790E+03    0.30701E-05   -0.10199E-03 20301   0.454E-02    0.102E-01
RMM:   3    -0.661227721571E+03   -0.81781E-04   -0.19745E-04 16039   0.214E-02    0.945E-02
RMM:   4    -0.661227665340E+03    0.56231E-04   -0.91361E-05 13815   0.161E-02    0.684E-02
RMM:   5    -0.661227639195E+03    0.26145E-04   -0.32034E-05 12833   0.879E-03    0.416E-02
RMM:   6    -0.661227631557E+03    0.76382E-05   -0.13740E-05 12348   0.621E-03    0.303E-02
RMM:   7    -0.661227625744E+03    0.58124E-05   -0.56273E-06 11577   0.431E-03    0.140E-02
RMM:   8    -0.661227627285E+03   -0.15404E-05   -0.13059E-06  8664   0.263E-03
  42 F= -.66122763E+03 E0= -.66082145E+03  d E =-.193071E-02  mag=    80.9042
       N       E                     dE             d eps       ncg     rms          rms(c)
DAV:   1    -0.661228726501E+03   -0.11008E-02   -0.17840E-02 27536   0.143E-01    0.939E-02
RMM:   2    -0.661228705845E+03    0.20656E-04   -0.49522E-04 18193   0.308E-02    0.800E-02
RMM:   3    -0.661228754865E+03   -0.49020E-04   -0.10480E-04 14601   0.158E-02    0.740E-02
RMM:   4    -0.661228717417E+03    0.37448E-04   -0.55393E-05 12735   0.124E-02    0.551E-02
RMM:   5    -0.661228711614E+03    0.58031E-05   -0.21703E-05 12329   0.743E-03    0.340E-02
RMM:   6    -0.661228708519E+03    0.30953E-05   -0.81232E-06 11716   0.485E-03    0.191E-02
RMM:   7    -0.661228708536E+03   -0.17695E-07   -0.28178E-06 10676   0.327E-03    0.122E-02
RMM:   8    -0.661228711803E+03   -0.32661E-05   -0.35266E-07  6426   0.218E-03
  43 F= -.66122871E+03 E0= -.66082256E+03  d E =-.108452E-02  mag=    80.9031
       N       E                     dE             d eps       ncg     rms          rms(c)
DAV:   1    -0.661228901973E+03   -0.19344E-03   -0.16054E-01 27344   0.428E-01    0.283E-01
RMM:   2    -0.661229224332E+03   -0.32236E-03   -0.45025E-03 22750   0.924E-02    0.255E-01
RMM:   3    -0.661229584421E+03   -0.36009E-03   -0.98550E-04 20161   0.474E-02    0.225E-01
RMM:   4    -0.661229370607E+03    0.21381E-03   -0.46693E-04 18080   0.349E-02    0.162E-01
RMM:   5    -0.661229325849E+03    0.44758E-04   -0.19179E-04 16106   0.212E-02    0.109E-01
RMM:   6    -0.661229271715E+03    0.54135E-04   -0.75409E-05 14164   0.139E-02    0.658E-02
RMM:   7    -0.661229244842E+03    0.26873E-04   -0.31123E-05 13157   0.942E-03    0.346E-02
RMM:   8    -0.661229238365E+03    0.64769E-05   -0.84857E-06 11895   0.511E-03
  44 F= -.66122924E+03 E0= -.66082316E+03  d E =-.161108E-02  mag=    80.9017
       N       E                     dE             d eps       ncg     rms          rms(c)
DAV:   1    -0.661229302572E+03   -0.57730E-04   -0.90293E-03 27600   0.102E-01    0.687E-02
RMM:   2    -0.661229444621E+03   -0.14205E-03   -0.26751E-04 16640   0.227E-02    0.680E-02
RMM:   3    -0.661229460286E+03   -0.15665E-04   -0.63301E-05 13598   0.123E-02    0.557E-02
RMM:   4    -0.661229486665E+03   -0.26379E-04   -0.28619E-05 12224   0.895E-03    0.419E-02
RMM:   5    -0.661229514129E+03   -0.27465E-04   -0.10378E-05 11735   0.521E-03    0.257E-02
RMM:   6    -0.661229537124E+03   -0.22995E-04   -0.41101E-06 11033   0.363E-03    0.175E-02
RMM:   7    -0.661229549072E+03   -0.11948E-04   -0.16296E-06  9426   0.278E-03    0.963E-03
RMM:   8    -0.661229561318E+03   -0.12246E-04   -0.36983E-08  5345   0.189E-03
  45 F= -.66122956E+03 E0= -.66082346E+03  d E =-.193403E-02  mag=    80.9005
       N       E                     dE             d eps       ncg     rms          rms(c)
DAV:   1    -0.661230657941E+03   -0.11089E-02   -0.20509E-02 27824   0.156E-01    0.930E-02
RMM:   2    -0.661230693653E+03   -0.35712E-04   -0.48354E-04 18587   0.322E-02    0.807E-02
RMM:   3    -0.661230743987E+03   -0.50335E-04   -0.12267E-04 15063   0.177E-02    0.812E-02
RMM:   4    -0.661230701079E+03    0.42908E-04   -0.58953E-05 12926   0.127E-02    0.468E-02
RMM:   5    -0.661230694463E+03    0.66166E-05   -0.16271E-05 12055   0.676E-03    0.230E-02
RMM:   6    -0.661230697618E+03   -0.31558E-05   -0.62158E-06 11352   0.447E-03    0.163E-02
RMM:   7    -0.661230700621E+03   -0.30030E-05   -0.23382E-06 10396   0.326E-03    0.896E-03
RMM:   8    -0.661230704491E+03   -0.38696E-05   -0.15525E-07  5644   0.203E-03
  46 F= -.66123070E+03 E0= -.66082462E+03  d E =-.114317E-02  mag=    80.8992
       N       E                     dE             d eps       ncg     rms          rms(c)
DAV:   1    -0.661231084763E+03   -0.38414E-03   -0.10736E-01 26224   0.358E-01    0.213E-01
RMM:   2    -0.661231423095E+03   -0.33833E-03   -0.25215E-03 22799   0.737E-02    0.184E-01
RMM:   3    -0.661231633826E+03   -0.21073E-03   -0.62544E-04 19126   0.394E-02    0.182E-01
RMM:   4    -0.661231472053E+03    0.16177E-03   -0.28944E-04 16771   0.279E-02    0.107E-01
RMM:   5    -0.661231425019E+03    0.47034E-04   -0.85183E-05 14472   0.151E-02    0.688E-02
RMM:   6    -0.661231404651E+03    0.20368E-04   -0.36652E-05 13541   0.102E-02    0.459E-02
RMM:   7    -0.661231385673E+03    0.18978E-04   -0.13576E-05 12718   0.647E-03    0.229E-02
RMM:   8    -0.661231378595E+03    0.70781E-05   -0.40349E-06 11283   0.385E-03
  47 F= -.66123138E+03 E0= -.66082532E+03  d E =-.181728E-02  mag=    80.8977
       N       E                     dE             d eps       ncg     rms          rms(c)
DAV:   1    -0.661232042921E+03   -0.65725E-03   -0.14092E-02 27792   0.127E-01    0.855E-02
RMM:   2    -0.661232068139E+03   -0.25218E-04   -0.29465E-04 17385   0.261E-02    0.662E-02
RMM:   3    -0.661232102877E+03   -0.34738E-04   -0.88477E-05 14530   0.159E-02    0.749E-02
RMM:   4    -0.661232056224E+03    0.46652E-04   -0.41915E-05 12619   0.110E-02    0.353E-02
RMM:   5    -0.661232033755E+03    0.22470E-04   -0.11284E-05 11874   0.570E-03    0.255E-02
RMM:   6    -0.661232028470E+03    0.52843E-05   -0.55313E-06 11181   0.448E-03    0.132E-02
RMM:   7    -0.661232030751E+03   -0.22808E-05   -0.13503E-06  8832   0.272E-03    0.853E-03
RMM:   8    -0.661232032905E+03   -0.21541E-05   -0.88412E-08  5246   0.202E-03
  48 F= -.66123203E+03 E0= -.66082596E+03  d E =-.654310E-03  mag=    80.8961
       N       E                     dE             d eps       ncg     rms          rms(c)
DAV:   1    -0.661232831622E+03   -0.80087E-03   -0.12664E-01 25904   0.380E-01    0.255E-01
RMM:   2    -0.661233332339E+03   -0.50072E-03   -0.26238E-03 22995   0.779E-02    0.204E-01
RMM:   3    -0.661233607619E+03   -0.27528E-03   -0.80944E-04 19908   0.459E-02    0.224E-01
RMM:   4    -0.661233344011E+03    0.26361E-03   -0.35993E-04 17367   0.309E-02    0.101E-01
RMM:   5    -0.661233240123E+03    0.10389E-03   -0.10597E-04 14878   0.163E-02    0.678E-02
RMM:   6    -0.661233209795E+03    0.30328E-04   -0.46761E-05 13760   0.118E-02    0.381E-02
RMM:   7    -0.661233198314E+03    0.11482E-04   -0.14701E-05 12678   0.681E-03    0.239E-02
RMM:   8    -0.661233189615E+03    0.86986E-05   -0.44495E-06 11540   0.400E-03
  49 F= -.66123319E+03 E0= -.66082706E+03  d E =-.181102E-02  mag=    80.8944
       N       E                     dE             d eps       ncg     rms          rms(c)
DAV:   1    -0.661227951405E+03    0.52469E-02   -0.50663E-01 25504   0.755E-01    0.508E-01
RMM:   2    -0.661230205607E+03   -0.22542E-02   -0.10530E-02 24018   0.157E-01    0.420E-01
RMM:   3    -0.661231227076E+03   -0.10215E-02   -0.32889E-03 22462   0.931E-02    0.451E-01
RMM:   4    -0.661230308814E+03    0.91826E-03   -0.14097E-03 20828   0.605E-02    0.198E-01
RMM:   5    -0.661230050778E+03    0.25804E-03   -0.41172E-04 19364   0.315E-02    0.161E-01
RMM:   6    -0.661229879826E+03    0.17095E-03   -0.18497E-04 16293   0.228E-02    0.881E-02
RMM:   7    -0.661229821272E+03    0.58554E-04   -0.63339E-05 14466   0.134E-02    0.509E-02
RMM:   8    -0.661229785447E+03    0.35826E-04   -0.22606E-05 13301   0.830E-03
  50 F= -.66122979E+03 E0= -.66082353E+03  d E =0.159315E-02  mag=    80.8921
       N       E                     dE             d eps       ncg     rms          rms(c)
DAV:   1    -0.661230264196E+03   -0.44292E-03   -0.33103E-01 26880   0.609E-01    0.414E-01
RMM:   2    -0.661232367423E+03   -0.21032E-02   -0.66726E-03 23921   0.124E-01    0.298E-01
RMM:   3    -0.661232980944E+03   -0.61352E-03   -0.17310E-03 21767   0.671E-02    0.329E-01
RMM:   4    -0.661232833331E+03    0.14761E-03   -0.80256E-04 19759   0.460E-02    0.162E-01
RMM:   5    -0.661233086593E+03   -0.25326E-03   -0.26798E-04 17611   0.250E-02    0.123E-01
RMM:   6    -0.661233110579E+03   -0.23986E-04   -0.11248E-04 14939   0.179E-02    0.744E-02
RMM:   7    -0.661233147510E+03   -0.36931E-04   -0.40268E-05 13947   0.109E-02    0.355E-02
RMM:   8    -0.661233195686E+03   -0.48176E-04   -0.12189E-05 12581   0.619E-03
  51 F= -.66123320E+03 E0= -.66082704E+03  d E =-.181709E-02  mag=    80.8904
       N       E                     dE             d eps       ncg     rms          rms(c)
DAV:   1    -0.661234794723E+03   -0.16472E-02   -0.46559E-02 27648   0.236E-01    0.130E-01
RMM:   2    -0.661235008075E+03   -0.21335E-03   -0.92657E-04 21128   0.464E-02    0.987E-02
RMM:   3    -0.661235120040E+03   -0.11196E-03   -0.22509E-04 16397   0.240E-02    0.106E-01
RMM:   4    -0.661235057633E+03    0.62407E-04   -0.95706E-05 14444   0.166E-02    0.484E-02
RMM:   5    -0.661235058510E+03   -0.87684E-06   -0.27479E-05 12834   0.808E-03    0.338E-02
RMM:   6    -0.661235065925E+03   -0.74152E-05   -0.10812E-05 12111   0.544E-03    0.215E-02
RMM:   7    -0.661235075665E+03   -0.97393E-05   -0.49372E-06 11670   0.421E-03    0.181E-02
RMM:   8    -0.661235085174E+03   -0.95093E-05   -0.13555E-06  9355   0.276E-03
  52 F= -.66123509E+03 E0= -.66082891E+03  d E =-.188949E-02  mag=    80.8887
       N       E                     dE             d eps       ncg     rms          rms(c)
DAV:   1    -0.661235496227E+03   -0.42056E-03   -0.57775E-02 27136   0.261E-01    0.145E-01
RMM:   2    -0.661235743262E+03   -0.24704E-03   -0.11449E-03 21735   0.513E-02    0.108E-01
RMM:   3    -0.661235858978E+03   -0.11572E-03   -0.26975E-04 16992   0.266E-02    0.115E-01
RMM:   4    -0.661235779072E+03    0.79906E-04   -0.11331E-04 14869   0.184E-02    0.515E-02
RMM:   5    -0.661235763372E+03    0.15700E-04   -0.34494E-05 13073   0.907E-03    0.407E-02
RMM:   6    -0.661235748410E+03    0.14962E-04   -0.14732E-05 12377   0.642E-03    0.238E-02
RMM:   7    -0.661235747150E+03    0.12596E-05   -0.70009E-06 11942   0.479E-03    0.198E-02
RMM:   8    -0.661235747360E+03   -0.21001E-06   -0.21583E-06 10374   0.312E-03
  53 F= -.66123575E+03 E0= -.66082954E+03  d E =-.255167E-02  mag=    80.8869
       N       E                     dE             d eps       ncg     rms          rms(c)
DAV:   1    -0.661236244681E+03   -0.49753E-03   -0.77535E-03 27584   0.108E-01    0.427E-02
RMM:   2    -0.661236337785E+03   -0.93104E-04   -0.19371E-04 15951   0.219E-02    0.371E-02
RMM:   3    -0.661236358723E+03   -0.20938E-04   -0.33026E-05 14093   0.102E-02    0.319E-02
RMM:   4    -0.661236371421E+03   -0.12698E-04   -0.10291E-05 12218   0.612E-03    0.219E-02
RMM:   5    -0.661236390094E+03   -0.18673E-04   -0.28876E-06 10860   0.320E-03    0.166E-02
RMM:   6    -0.661236406153E+03   -0.16058E-04   -0.12209E-06  8905   0.267E-03    0.109E-02
RMM:   7    -0.661236424751E+03   -0.18599E-04   -0.31441E-07  6248   0.224E-03    0.781E-03
RMM:   8    -0.661236439487E+03   -0.14736E-04   -0.33100E-08  4984   0.208E-03
  54 F= -.66123644E+03 E0= -.66083023E+03  d E =-.692127E-03  mag=    80.8853
       N       E                     dE             d eps       ncg     rms          rms(c)
DAV:   1    -0.661236648547E+03   -0.22380E-03   -0.11914E-02 26912   0.134E-01    0.530E-02
RMM:   2    -0.661236760662E+03   -0.11212E-03   -0.29460E-04 17124   0.272E-02    0.358E-02
RMM:   3    -0.661236800183E+03   -0.39521E-04   -0.45041E-05 14340   0.115E-02    0.291E-02
RMM:   4    -0.661236810915E+03   -0.10732E-04   -0.14714E-05 12592   0.714E-03    0.242E-02
RMM:   5    -0.661236837141E+03   -0.26226E-04   -0.51204E-06 11551   0.422E-03    0.154E-02
RMM:   6    -0.661236856279E+03   -0.19139E-04   -0.21588E-06  9419   0.301E-03    0.119E-02
RMM:   7    -0.661236876815E+03   -0.20536E-04   -0.13977E-06  8556   0.276E-03    0.100E-02
RMM:   8    -0.661236890130E+03   -0.13315E-04   -0.13841E-07  5668   0.211E-03
  55 F= -.66123689E+03 E0= -.66083069E+03  d E =-.114277E-02  mag=    80.8837
       N       E                     dE             d eps       ncg     rms          rms(c)
DAV:   1    -0.661237303480E+03   -0.42666E-03   -0.69158E-03 27296   0.990E-02    0.502E-02
RMM:   2    -0.661237394836E+03   -0.91356E-04   -0.19250E-04 16051   0.219E-02    0.349E-02
[...]
RMM:   8    -0.661248481910E+03    0.77011E-05   -0.80551E-06 12662   0.532E-03
  73 F= -.66124848E+03 E0= -.66084194E+03  d E =-.219263E-02  mag=    80.8704
       N       E                     dE             d eps       ncg     rms          rms(c)
DAV:   1    -0.661249516601E+03   -0.10270E-02   -0.46509E-03 27504   0.845E-02    0.340E-02
RMM:   2    -0.661249560838E+03   -0.44237E-04   -0.12222E-04 15128   0.173E-02    0.344E-02
RMM:   3    -0.661249563886E+03   -0.30478E-05   -0.24253E-05 13640   0.903E-03    0.274E-02
RMM:   4    -0.661249570705E+03   -0.68187E-05   -0.71970E-06 11939   0.507E-03    0.151E-02
RMM:   5    -0.661249574175E+03   -0.34701E-05   -0.16536E-06  9096   0.279E-03    0.930E-03
RMM:   6    -0.661249579296E+03   -0.51209E-05   -0.42576E-07  7094   0.235E-03    0.617E-03
RMM:   7    -0.661249583366E+03   -0.40703E-05   -0.90984E-08  5806   0.218E-03    0.552E-03
RMM:   8    -0.661249586060E+03   -0.26939E-05   -0.54829E-08  5106   0.213E-03
  74 F= -.66124959E+03 E0= -.66084303E+03  d E =-.110415E-02  mag=    80.8698
       N       E                     dE             d eps       ncg     rms          rms(c)
DAV:   1    -0.661251211207E+03   -0.16278E-02   -0.41819E-02 27216   0.253E-01    0.986E-02
RMM:   2    -0.661251403376E+03   -0.19217E-03   -0.10134E-03 22841   0.504E-02    0.689E-02
RMM:   3    -0.661251485286E+03   -0.81911E-04   -0.16266E-04 15641   0.207E-02    0.622E-02
RMM:   4    -0.661251490586E+03   -0.52997E-05   -0.50074E-05 14227   0.138E-02    0.426E-02
RMM:   5    -0.661251497648E+03   -0.70622E-05   -0.16290E-05 13179   0.652E-03    0.265E-02
RMM:   6    -0.661251501073E+03   -0.34249E-05   -0.73132E-06 12332   0.471E-03    0.201E-02
RMM:   7    -0.661251505475E+03   -0.44019E-05   -0.44941E-06 12062   0.399E-03    0.141E-02
RMM:   8    -0.661251506005E+03   -0.53039E-06   -0.17873E-06 10523   0.291E-03
  75 F= -.66125151E+03 E0= -.66084496E+03  d E =-.302410E-02  mag=    80.8693
       N       E                     dE             d eps       ncg     rms          rms(c)
DAV:   1    -0.661251621876E+03   -0.11640E-03   -0.63360E-03 27648   0.985E-02    0.386E-02
RMM:   2    -0.661251662359E+03   -0.40483E-04   -0.15842E-04 15429   0.197E-02    0.253E-02
RMM:   3    -0.661251678366E+03   -0.16007E-04   -0.22442E-05 13708   0.868E-03    0.180E-02
RMM:   4    -0.661251682330E+03   -0.39646E-05   -0.60756E-06 12071   0.479E-03    0.155E-02
RMM:   5    -0.661251688464E+03   -0.61337E-05   -0.22576E-06 11034   0.315E-03    0.925E-03
RMM:   6    -0.661251692814E+03   -0.43497E-05   -0.16969E-07  5784   0.214E-03    0.739E-03
RMM:   7    -0.661251697143E+03   -0.43293E-05   -0.65416E-08  5357   0.210E-03    0.615E-03
RMM:   8    -0.661251700519E+03   -0.33760E-05   -0.38064E-08  5015   0.205E-03
  76 F= -.66125170E+03 E0= -.66084515E+03  d E =-.321861E-02  mag=    80.8689
       N       E                     dE             d eps       ncg     rms          rms(c)
DAV:   1    -0.661252768504E+03   -0.10714E-02   -0.13386E-02 27040   0.137E-01    0.729E-02
RMM:   2    -0.661252877161E+03   -0.10866E-03   -0.36632E-04 18260   0.299E-02    0.569E-02
RMM:   3    -0.661252918527E+03   -0.41365E-04   -0.60855E-05 14623   0.132E-02    0.458E-02
RMM:   4    -0.661252936036E+03   -0.17510E-04   -0.27328E-05 13123   0.943E-03    0.399E-02
RMM:   5    -0.661252962518E+03   -0.26482E-04   -0.97899E-06 12215   0.542E-03    0.200E-02
RMM:   6    -0.661252980344E+03   -0.17826E-04   -0.40018E-06 11717   0.364E-03    0.184E-02
RMM:   7    -0.661252991887E+03   -0.11543E-04   -0.17389E-06 10670   0.288E-03    0.763E-03
RMM:   8    -0.661253000268E+03   -0.83814E-05   -0.13325E-07  5947   0.208E-03
  77 F= -.66125300E+03 E0= -.66084646E+03  d E =-.129975E-02  mag=    80.8686
       N       E                     dE             d eps       ncg     rms          rms(c)
DAV:   1    -0.661253704573E+03   -0.71269E-03   -0.89769E-02 27328   0.356E-01    0.189E-01
RMM:   2    -0.661254155769E+03   -0.45120E-03   -0.24133E-03 23702   0.770E-02    0.141E-01
RMM:   3    -0.661254352235E+03   -0.19647E-03   -0.38475E-04 18802   0.315E-02    0.111E-01
RMM:   4    -0.661254369887E+03   -0.17651E-04   -0.16067E-04 15908   0.230E-02    0.101E-01
RMM:   5    -0.661254406857E+03   -0.36970E-04   -0.66173E-05 14553   0.136E-02    0.529E-02
RMM:   6    -0.661254439019E+03   -0.32162E-04   -0.28834E-05 13956   0.876E-03    0.470E-02
RMM:   7    -0.661254454112E+03   -0.15093E-04   -0.13881E-05 13162   0.671E-03    0.187E-02
RMM:   8    -0.661254473178E+03   -0.19066E-04   -0.44179E-06 11872   0.397E-03
  78 F= -.66125447E+03 E0= -.66084796E+03  d E =-.277266E-02  mag=    80.8686
       N       E                     dE             d eps       ncg     rms          rms(c)
DAV:   1    -0.661255056560E+03   -0.60245E-03   -0.95458E-03 27408   0.120E-01    0.578E-02
RMM:   2    -0.661255116187E+03   -0.59627E-04   -0.23781E-04 16649   0.249E-02    0.417E-02
RMM:   3    -0.661255140594E+03   -0.24407E-04   -0.40499E-05 14404   0.116E-02    0.366E-02
RMM:   4    -0.661255144520E+03   -0.39265E-05   -0.13969E-05 13027   0.706E-03    0.193E-02
RMM:   5    -0.661255166236E+03   -0.21716E-04   -0.54235E-06 11849   0.416E-03    0.201E-02
RMM:   6    -0.661255184317E+03   -0.18080E-04   -0.30974E-06 11130   0.344E-03    0.107E-02
RMM:   7    -0.661255198313E+03   -0.13997E-04   -0.97160E-07  8485   0.260E-03    0.621E-03
RMM:   8    -0.661255208452E+03   -0.10138E-04   -0.55374E-08  5451   0.212E-03
  79 F= -.66125521E+03 E0= -.66084868E+03  d E =-.735274E-03  mag=    80.8687
       N       E                     dE             d eps       ncg     rms          rms(c)
DAV:   1    -0.661255428334E+03   -0.23002E-03   -0.18852E-02 27328   0.169E-01    0.799E-02
RMM:   2    -0.661255530153E+03   -0.10182E-03   -0.45966E-04 20529   0.347E-02    0.581E-02
RMM:   3    -0.661255564087E+03   -0.33934E-04   -0.75872E-05 14692   0.149E-02    0.436E-02
RMM:   4    -0.661255571362E+03   -0.72746E-05   -0.29576E-05 13874   0.104E-02    0.351E-02
RMM:   5    -0.661255592897E+03   -0.21535E-04   -0.11291E-05 12655   0.593E-03    0.221E-02
RMM:   6    -0.661255610452E+03   -0.17556E-04   -0.56207E-06 11899   0.423E-03    0.167E-02
RMM:   7    -0.661255628640E+03   -0.18187E-04   -0.26198E-06 11416   0.321E-03    0.873E-03
RMM:   8    -0.661255639256E+03   -0.10616E-04   -0.28665E-07  6692   0.229E-03
  80 F= -.66125564E+03 E0= -.66084909E+03  d E =-.116608E-02  mag=    80.8688
       N       E                     dE             d eps       ncg     rms          rms(c)
DAV:   1    -0.661256170467E+03   -0.54183E-03   -0.13697E-02 27616   0.142E-01    0.644E-02
RMM:   2    -0.661256233233E+03   -0.62766E-04   -0.34845E-04 18153   0.290E-02    0.461E-02
RMM:   3    -0.661256266143E+03   -0.32910E-04   -0.58756E-05 14585   0.133E-02    0.391E-02
RMM:   4    -0.661256266671E+03   -0.52853E-06   -0.17623E-05 13499   0.807E-03    0.177E-02
RMM:   5    -0.661256279238E+03   -0.12566E-04   -0.55141E-06 11920   0.424E-03    0.151E-02
RMM:   6    -0.661256293966E+03   -0.14728E-04   -0.26374E-06 10683   0.325E-03    0.984E-03
RMM:   7    -0.661256308248E+03   -0.14282E-04   -0.13901E-06  8868   0.276E-03    0.840E-03
RMM:   8    -0.661256318318E+03   -0.10070E-04   -0.35377E-07  6465   0.234E-03
  81 F= -.66125632E+03 E0= -.66084978E+03  d E =-.679063E-03  mag=    80.8690
       N       E                     dE             d eps       ncg     rms          rms(c)
DAV:   1    -0.661256478262E+03   -0.17001E-03   -0.20494E-02 27456   0.174E-01    0.790E-02
RMM:   2    -0.661256565178E+03   -0.86916E-04   -0.51974E-04 20372   0.356E-02    0.607E-02
RMM:   3    -0.661256613982E+03   -0.48804E-04   -0.92701E-05 14866   0.163E-02    0.628E-02
RMM:   4    -0.661256601962E+03    0.12020E-04   -0.29821E-05 14054   0.106E-02    0.241E-02
RMM:   5    -0.661256611897E+03   -0.99344E-05   -0.92669E-06 12486   0.493E-03    0.218E-02
RMM:   6    -0.661256622212E+03   -0.10316E-04   -0.44473E-06 11837   0.405E-03    0.123E-02
RMM:   7    -0.661256635749E+03   -0.13536E-04   -0.30123E-06 11230   0.330E-03    0.103E-02
RMM:   8    -0.661256645705E+03   -0.99563E-05   -0.10440E-06  8542   0.265E-03
  82 F= -.66125665E+03 E0= -.66085011E+03  d E =-.100645E-02  mag=    80.8691
       N       E                     dE             d eps       ncg     rms          rms(c)
DAV:   1    -0.661256993697E+03   -0.35795E-03   -0.11095E-02 27120   0.131E-01    0.587E-02
RMM:   2    -0.661257043560E+03   -0.49863E-04   -0.30945E-04 17441   0.281E-02    0.501E-02
RMM:   3    -0.661257067387E+03   -0.23827E-04   -0.61937E-05 14583   0.140E-02    0.467E-02
RMM:   4    -0.661257064915E+03    0.24727E-05   -0.19216E-05 13763   0.851E-03    0.180E-02
RMM:   5    -0.661257072511E+03   -0.75963E-05   -0.61993E-06 12015   0.431E-03    0.192E-02
RMM:   6    -0.661257080506E+03   -0.79949E-05   -0.31781E-06 10992   0.345E-03    0.108E-02
RMM:   7    -0.661257088032E+03   -0.75260E-05   -0.17306E-06  9863   0.288E-03    0.799E-03
RMM:   8    -0.661257094812E+03   -0.67796E-05   -0.24011E-07  6307   0.224E-03
  83 F= -.66125709E+03 E0= -.66085056E+03  d E =-.449107E-03  mag=    80.8693
       N       E                     dE             d eps       ncg     rms          rms(c)
DAV:   1    -0.661257160608E+03   -0.72576E-04   -0.69571E-03 27280   0.104E-01    0.464E-02
RMM:   2    -0.661257194099E+03   -0.33491E-04   -0.19632E-04 15781   0.221E-02    0.420E-02
RMM:   3    -0.661257210836E+03   -0.16736E-04   -0.37836E-05 14486   0.112E-02    0.413E-02
RMM:   4    -0.661257206742E+03    0.40936E-05   -0.10670E-05 13295   0.640E-03    0.170E-02
RMM:   5    -0.661257211160E+03   -0.44177E-05   -0.35113E-06 11504   0.335E-03    0.148E-02
RMM:   6    -0.661257216098E+03   -0.49383E-05   -0.16999E-06 10363   0.289E-03    0.820E-03
RMM:   7    -0.661257221717E+03   -0.56191E-05   -0.73759E-07  7927   0.251E-03    0.571E-03
RMM:   8    -0.661257226444E+03   -0.47269E-05   -0.23828E-07  6186   0.226E-03
  84 F= -.66125723E+03 E0= -.66085068E+03  d E =-.580739E-03  mag=    80.8696
       N       E                     dE             d eps       ncg     rms          rms(c)
DAV:   1    -0.661257521853E+03   -0.30014E-03   -0.49653E-03 27184   0.847E-02    0.410E-02
RMM:   2    -0.661257548571E+03   -0.26718E-04   -0.14428E-04 15158   0.183E-02    0.363E-02
RMM:   3    -0.661257558795E+03   -0.10225E-04   -0.30082E-05 14372   0.984E-03    0.322E-02
RMM:   4    -0.661257557598E+03    0.11972E-05   -0.83161E-06 12691   0.575E-03    0.113E-02
RMM:   5    -0.661257562496E+03   -0.48978E-05   -0.20427E-06 10281   0.287E-03    0.929E-03
RMM:   6    -0.661257567658E+03   -0.51623E-05   -0.49219E-07  7007   0.238E-03    0.571E-03
RMM:   7    -0.661257573608E+03   -0.59502E-05   -0.22516E-07  5973   0.228E-03    0.602E-03
RMM:   8    -0.661257576804E+03   -0.31954E-05   -0.93315E-08  5171   0.218E-03
  85 F= -.66125758E+03 E0= -.66085102E+03  d E =-.350359E-03  mag=    80.8699
       N       E                     dE             d eps       ncg     rms          rms(c)
DAV:   1    -0.661257779071E+03   -0.20546E-03   -0.44759E-02 26352   0.254E-01    0.123E-01
RMM:   2    -0.661257978264E+03   -0.19919E-03   -0.12418E-03 23866   0.541E-02    0.106E-01
RMM:   3    -0.661258046984E+03   -0.68720E-04   -0.25447E-04 17126   0.260E-02    0.960E-02
RMM:   4    -0.661258016588E+03    0.30396E-04   -0.83824E-05 14747   0.179E-02    0.364E-02
RMM:   5    -0.661258020143E+03   -0.35553E-05   -0.24669E-05 13904   0.817E-03    0.292E-02
RMM:   6    -0.661258018849E+03    0.12941E-05   -0.12476E-05 13114   0.606E-03    0.218E-02
RMM:   7    -0.661258018751E+03    0.98255E-07   -0.76446E-06 12715   0.475E-03    0.185E-02
RMM:   8    -0.661258018808E+03   -0.56345E-07   -0.34376E-06 11762   0.362E-03
  86 F= -.66125802E+03 E0= -.66085142E+03  d E =-.792363E-03  mag=    80.8702
       N       E                     dE             d eps       ncg     rms          rms(c)
DAV:   1    -0.661258409103E+03   -0.39035E-03   -0.94052E-03 27584   0.116E-01    0.558E-02
RMM:   2    -0.661258450348E+03   -0.41245E-04   -0.28860E-04 16672   0.257E-02    0.569E-02
RMM:   3    -0.661258460447E+03   -0.10099E-04   -0.66665E-05 14677   0.143E-02    0.503E-02
RMM:   4    -0.661258452707E+03    0.77393E-05   -0.18416E-05 13925   0.838E-03    0.179E-02
RMM:   5    -0.661258454213E+03   -0.15059E-05   -0.48763E-06 11957   0.379E-03    0.168E-02
RMM:   6    -0.661258455319E+03   -0.11055E-05   -0.22715E-06 10800   0.302E-03    0.114E-02
RMM:   7    -0.661258457589E+03   -0.22706E-05   -0.10113E-06  8355   0.259E-03    0.641E-03
RMM:   8    -0.661258461391E+03   -0.38012E-05   -0.21695E-07  5952   0.229E-03
  87 F= -.66125846E+03 E0= -.66085186E+03  d E =-.442583E-03  mag=    80.8706
       N       E                     dE             d eps       ncg     rms          rms(c)
DAV:   1    -0.661258612776E+03   -0.15519E-03   -0.36056E-02 26912   0.228E-01    0.108E-01
RMM:   2    -0.661258771195E+03   -0.15842E-03   -0.10665E-03 23670   0.498E-02    0.104E-01
RMM:   3    -0.661258811513E+03   -0.40319E-04   -0.23500E-04 16655   0.246E-02    0.935E-02
RMM:   4    -0.661258782281E+03    0.29233E-04   -0.74357E-05 14676   0.168E-02    0.335E-02
RMM:   5    -0.661258784341E+03   -0.20601E-05   -0.21144E-05 13766   0.749E-03    0.293E-02
RMM:   6    -0.661258783782E+03    0.55879E-06   -0.10373E-05 12955   0.563E-03    0.221E-02
RMM:   7    -0.661258783997E+03   -0.21467E-06   -0.60817E-06 12278   0.431E-03    0.167E-02
RMM:   8    -0.661258787081E+03   -0.30841E-05   -0.27789E-06 11422   0.325E-03
  88 F= -.66125879E+03 E0= -.66085218E+03  d E =-.768273E-03  mag=    80.8710
       N       E                     dE             d eps       ncg     rms          rms(c)
DAV:   1    -0.661259098108E+03   -0.31411E-03   -0.13243E-02 27728   0.142E-01    0.619E-02
RMM:   2    -0.661259140487E+03   -0.42379E-04   -0.40328E-04 18350   0.303E-02    0.643E-02
RMM:   3    -0.661259156455E+03   -0.15968E-04   -0.86057E-05 14794   0.159E-02    0.506E-02
RMM:   4    -0.661259147838E+03    0.86175E-05   -0.24582E-05 14098   0.966E-03    0.202E-02
RMM:   5    -0.661259147591E+03    0.24633E-06   -0.65572E-06 12167   0.432E-03    0.144E-02
RMM:   6    -0.661259147190E+03    0.40187E-06   -0.29552E-06 11064   0.319E-03    0.114E-02
RMM:   7    -0.661259148674E+03   -0.14841E-05   -0.13402E-06  9070   0.267E-03    0.112E-02
RMM:   8    -0.661259150454E+03   -0.17807E-05   -0.29569E-07  6386   0.235E-03
  89 F= -.66125915E+03 E0= -.66085254E+03  d E =-.363374E-03  mag=    80.8714
       N       E                     dE             d eps       ncg     rms          rms(c)
DAV:   1    -0.661259184917E+03   -0.36243E-04   -0.38353E-03 27152   0.764E-02    0.333E-02
RMM:   2    -0.661259197144E+03   -0.12228E-04   -0.12083E-04 14984   0.165E-02    0.345E-02
RMM:   3    -0.661259201866E+03   -0.47213E-05   -0.24875E-05 14274   0.881E-03    0.277E-02
RMM:   4    -0.661259200259E+03    0.16065E-05   -0.66899E-06 12448   0.509E-03    0.119E-02
RMM:   5    -0.661259200722E+03   -0.46333E-06   -0.13147E-06  8583   0.258E-03    0.855E-03
RMM:   6    -0.661259202698E+03   -0.19753E-05   -0.28646E-07  6072   0.228E-03    0.723E-03
RMM:   7    -0.661259204793E+03   -0.20950E-05   -0.95078E-08  5155   0.218E-03    0.493E-03
RMM:   8    -0.661259208391E+03   -0.35986E-05   -0.16098E-07  5404   0.219E-03
  90 F= -.66125921E+03 E0= -.66085260E+03  d E =-.421311E-03  mag=    80.8718
       N       E                     dE             d eps       ncg     rms          rms(c)
DAV:   1    -0.661259445634E+03   -0.24084E-03   -0.89069E-03 27360   0.117E-01    0.498E-02
RMM:   2    -0.661259472627E+03   -0.26993E-04   -0.25717E-04 16479   0.248E-02    0.477E-02
RMM:   3    -0.661259487514E+03   -0.14887E-04   -0.52304E-05 14484   0.130E-02    0.416E-02
RMM:   4    -0.661259481716E+03    0.57984E-05   -0.15261E-05 13557   0.766E-03    0.160E-02
RMM:   5    -0.661259480712E+03    0.10040E-05   -0.40251E-06 11419   0.363E-03    0.130E-02
RMM:   6    -0.661259479516E+03    0.11958E-05   -0.18221E-06  9457   0.291E-03    0.939E-03
RMM:   7    -0.661259478827E+03    0.68918E-06   -0.10494E-06  8053   0.264E-03    0.762E-03
RMM:   8    -0.661259479375E+03   -0.54808E-06   -0.22841E-07  5910   0.226E-03
  91 F= -.66125948E+03 E0= -.66085285E+03  d E =-.270983E-03  mag=    80.8723
       N       E                     dE             d eps       ncg     rms          rms(c)
DAV:   1    -0.661259516628E+03   -0.37801E-04   -0.44853E-03 27088   0.833E-02    0.355E-02
RMM:   2    -0.661259528743E+03   -0.12115E-04   -0.13340E-04 15146   0.178E-02    0.335E-02
RMM:   3    -0.661259535865E+03   -0.71223E-05   -0.26275E-05 14236   0.936E-03    0.311E-02
RMM:   4    -0.661259532779E+03    0.30869E-05   -0.77191E-06 12471   0.547E-03    0.122E-02
RMM:   5    -0.661259531831E+03    0.94762E-06   -0.16500E-06  9148   0.278E-03    0.103E-02
RMM:   6    -0.661259530978E+03    0.85309E-06   -0.52720E-07  7123   0.242E-03    0.681E-03
RMM:   7    -0.661259530350E+03    0.62771E-06   -0.17054E-07  5698   0.224E-03    0.513E-03
RMM:   8    -0.661259530819E+03   -0.46892E-06   -0.12430E-07  5174   0.218E-03
  92 F= -.66125953E+03 E0= -.66085288E+03  d E =-.322428E-03  mag=    80.8728
       N       E                     dE             d eps       ncg     rms          rms(c)
DAV:   1    -0.661259651342E+03   -0.12099E-03   -0.54106E-03 27520   0.941E-02    0.397E-02
RMM:   2    -0.661259672649E+03   -0.21306E-04   -0.14869E-04 15189   0.198E-02    0.363E-02
RMM:   3    -0.661259681922E+03   -0.92732E-05   -0.29917E-05 14183   0.104E-02    0.331E-02
RMM:   4    -0.661259678789E+03    0.31325E-05   -0.87308E-06 12935   0.587E-03    0.123E-02
RMM:   5    -0.661259679364E+03   -0.57416E-06   -0.23169E-06 10505   0.303E-03    0.113E-02
RMM:   6    -0.661259679978E+03   -0.61467E-06   -0.73587E-07  7663   0.250E-03    0.703E-03
RMM:   7    -0.661259680829E+03   -0.85076E-06   -0.31486E-07  6202   0.234E-03    0.587E-03
RMM:   8    -0.661259682154E+03   -0.13253E-05   -0.82702E-08  5024   0.217E-03
  93 F= -.66125968E+03 E0= -.66085304E+03  d E =-.151335E-03  mag=    80.8732
       N       E                     dE             d eps       ncg     rms          rms(c)
DAV:   1    -0.661259687801E+03   -0.69719E-05   -0.39328E-04 26096   0.256E-02    0.111E-02
RMM:   2    -0.661259691355E+03   -0.35539E-05   -0.12545E-05 14038   0.583E-03    0.118E-02
RMM:   3    -0.661259692870E+03   -0.15148E-05   -0.23020E-06 11159   0.319E-03    0.102E-02
RMM:   4    -0.661259693573E+03   -0.70361E-06   -0.12623E-07  5552   0.205E-03    0.380E-03
RMM:   5    -0.661259695077E+03   -0.15036E-05   -0.65894E-09  4394   0.188E-03    0.435E-03
RMM:   6    -0.661259697321E+03   -0.22445E-05   -0.14956E-09  4376   0.181E-03    0.279E-03
RMM:   7    -0.661259700774E+03   -0.34524E-05   -0.10143E-08  4601   0.192E-03    0.240E-03
RMM:   8    -0.661259703305E+03   -0.25313E-05   -0.69994E-09  4476   0.193E-03
  94 F= -.66125970E+03 E0= -.66085306E+03  d E =-.172486E-03  mag=    80.8737
       N       E                     dE             d eps       ncg     rms          rms(c)
DAV:   1    -0.661259790672E+03   -0.89898E-04   -0.41630E-03 27008   0.808E-02    0.385E-02
RMM:   2    -0.661259811216E+03   -0.20545E-04   -0.11295E-04 14946   0.173E-02    0.300E-02
RMM:   3    -0.661259824770E+03   -0.13553E-04   -0.18465E-05 14227   0.850E-03    0.246E-02
RMM:   4    -0.661259825801E+03   -0.10314E-05   -0.66928E-06 12355   0.519E-03    0.165E-02
RMM:   5    -0.661259831661E+03   -0.58603E-05   -0.19471E-06 10729   0.297E-03    0.117E-02
RMM:   6    -0.661259835014E+03   -0.33523E-05   -0.33242E-07  6692   0.231E-03    0.749E-03
RMM:   7    -0.661259838929E+03   -0.39153E-05   -0.80620E-08  5286   0.217E-03    0.471E-03
RMM:   8    -0.661259841350E+03   -0.24210E-05   -0.25676E-08  4890   0.206E-03
  95 F= -.66125984E+03 E0= -.66085320E+03  d E =-.138045E-03  mag=    80.8741
