 ----------------------------------------------------
    OOO  PPPP  EEEEE N   N M   M PPPP
   O   O P   P E     NN  N MM MM P   P
   O   O PPPP  EEEEE N N N M M M PPPP   -- VERSION
   O   O P     E     N  NN M   M P
    OOO  P     EEEEE N   N M   M P
 ----------------------------------------------------
 running   16 mpi-ranks, with    4 threads/rank
 distrk:  each k-point on   16 cores,    1 groups
 distr:  one band on    1 cores,   16 groups
 vasp.6.2.1 16May21 (build Jul 28 2021 23:24:15) complex                        
  
 POSCAR found type information on POSCAR H IrO 
 POSCAR found :  3 types and     102 ions
 scaLAPACK will be used
 -----------------------------------------------------------------------------
|                                                                             |
|           W    W    AA    RRRRR   N    N  II  N    N   GGGG   !!!           |
|           W    W   A  A   R    R  NN   N  II  NN   N  G    G  !!!           |
|           W    W  A    A  R    R  N N  N  II  N N  N  G       !!!           |
|           W WW W  AAAAAA  RRRRR   N  N N  II  N  N N  G  GGG   !            |
|           WW  WW  A    A  R   R   N   NN  II  N   NN  G    G                |
|           W    W  A    A  R    R  N    N  II  N    N   GGGG   !!!           |
|                                                                             |
|     The real-space projection scheme for the treatment of the non-local     |
|     pseudopotentials has been switched on but on file POTCAR I have not     |
|     found any entries, signalling me that you have never performed a        |
|     real-space optimization of all non-local projectors! BE WARNED that     |
|     a calculation using the real-space projection scheme together with      |
|     non-local projectors which were not real-space optimized (according     |
|     to the plane-wave cutoff used in this calculation) might give more      |
|     or less inaccurate results. I hope you know what you are doing.         |
|                                                                             |
 -----------------------------------------------------------------------------

 LDA part: xc-table for Pade appr. of Perdew
 POSCAR, INCAR and KPOINTS ok, starting setup
 FFT: planning ...
 WAVECAR not read
 WARNING: random wavefunctions but no delay for mixing, default for NELMDL
 entering main loop
       N       E                     dE             d eps       ncg     rms          rms(c)
DAV:   1     0.764903189901E+04    0.76490E+04   -0.29981E+05 15152   0.126E+03
DAV:   2     0.611218691987E+03   -0.70378E+04   -0.63575E+04 16048   0.375E+02
DAV:   3    -0.758520156253E+03   -0.13697E+04   -0.13169E+04 18768   0.166E+02
DAV:   4    -0.833418236788E+03   -0.74898E+02   -0.73030E+02 20624   0.432E+01
DAV:   5    -0.835027286189E+03   -0.16090E+01   -0.15812E+01 19264   0.586E+00    0.187E+02
RMM:   6    -0.699019011506E+03    0.13601E+03   -0.63190E+02 14894   0.403E+01    0.171E+02
RMM:   7    -0.146220137436E+04   -0.76318E+03   -0.41378E+02 16538   0.276E+01    0.386E+02
RMM:   8    -0.135813750335E+04    0.10406E+03   -0.11950E+02 19062   0.113E+01    0.372E+02
RMM:   9    -0.144318470328E+04   -0.85047E+02   -0.54504E+01 15580   0.994E+00    0.380E+02
RMM:  10    -0.101897093673E+04    0.42421E+03   -0.51917E+02 22370   0.265E+01    0.324E+02
RMM:  11    -0.113925194247E+04   -0.12028E+03   -0.76215E+01 16841   0.108E+01    0.289E+02
RMM:  12    -0.115012259315E+04   -0.10871E+02   -0.22059E+02 19658   0.144E+01    0.169E+02
RMM:  13    -0.104190816700E+04    0.10821E+03   -0.28611E+02 22241   0.215E+01    0.208E+02
RMM:  14    -0.775322915119E+03    0.26659E+03   -0.41753E+01 16267   0.872E+00    0.152E+02
RMM:  15    -0.661683111234E+03    0.11364E+03   -0.68697E+01 18289   0.112E+01    0.140E+02
RMM:  16    -0.652223829906E+03    0.94593E+01   -0.18065E+01 15509   0.641E+00    0.123E+02
RMM:  17    -0.639210099925E+03    0.13014E+02   -0.11313E+01 15857   0.494E+00    0.107E+02
RMM:  18    -0.625278702370E+03    0.13931E+02   -0.12014E+01 16448   0.504E+00    0.923E+01
RMM:  19    -0.629129928568E+03   -0.38512E+01   -0.39832E+00 16022   0.300E+00    0.888E+01
RMM:  20    -0.624241132254E+03    0.48888E+01   -0.31056E+00 15717   0.269E+00    0.767E+01
RMM:  21    -0.623242222037E+03    0.99891E+00   -0.38701E+00 16719   0.270E+00    0.627E+01
RMM:  22    -0.628002866791E+03   -0.47606E+01   -0.21947E+00 15560   0.227E+00    0.579E+01
RMM:  23    -0.635039786079E+03   -0.70369E+01   -0.27323E+00 16738   0.247E+00    0.501E+01
RMM:  24    -0.645250311110E+03   -0.10211E+02   -0.57828E+00 19030   0.343E+00    0.325E+01
RMM:  25    -0.655862666155E+03   -0.10612E+02   -0.42170E+00 17890   0.294E+00    0.205E+01
RMM:  26    -0.661168956726E+03   -0.53063E+01   -0.17227E+00 15915   0.196E+00    0.172E+01
RMM:  27    -0.666687567766E+03   -0.55186E+01   -0.23860E+00 17259   0.221E+00    0.155E+01
RMM:  28    -0.665059814252E+03    0.16278E+01   -0.51059E-01 15544   0.113E+00    0.135E+01
RMM:  29    -0.675055025120E+03   -0.99952E+01   -0.32765E+00 18748   0.232E+00    0.136E+01
RMM:  30    -0.677436273772E+03   -0.23812E+01   -0.11919E+00 17262   0.160E+00    0.148E+01
RMM:  31    -0.677993383484E+03   -0.55711E+00   -0.36655E-01 15195   0.103E+00    0.138E+01
RMM:  32    -0.679895808535E+03   -0.19024E+01   -0.24100E-01 15026   0.756E-01    0.117E+01
RMM:  33    -0.680800696612E+03   -0.90489E+00   -0.29608E-01 16292   0.844E-01    0.147E+01
RMM:  34    -0.684067026775E+03   -0.32663E+01   -0.89230E-01 19158   0.128E+00    0.193E+01
RMM:  35    -0.684405847937E+03   -0.33882E+00   -0.51170E-01 18091   0.101E+00    0.147E+01
RMM:  36    -0.685462406347E+03   -0.10566E+01   -0.19671E-01 15493   0.683E-01    0.147E+01
RMM:  37    -0.687312023300E+03   -0.18496E+01   -0.24466E-01 16350   0.700E-01    0.149E+01
RMM:  38    -0.688693379792E+03   -0.13814E+01   -0.44419E-01 18502   0.857E-01    0.119E+01
RMM:  39    -0.689796264443E+03   -0.11029E+01   -0.18604E-01 16527   0.580E-01    0.113E+01
RMM:  40    -0.690825258409E+03   -0.10290E+01   -0.25597E-01 18091   0.674E-01    0.139E+01
RMM:  41    -0.689450003801E+03    0.13753E+01   -0.98992E-02 15738   0.457E-01    0.122E+01
RMM:  42    -0.690420535622E+03   -0.97053E+00   -0.18932E-01 17945   0.571E-01    0.919E+00
RMM:  43    -0.691583570901E+03   -0.11630E+01   -0.14804E-01 18200   0.519E-01    0.657E+00
RMM:  44    -0.693435432507E+03   -0.18519E+01   -0.73897E-02 15908   0.380E-01    0.541E+00
RMM:  45    -0.694161423813E+03   -0.72599E+00   -0.13097E-01 17747   0.444E-01    0.443E+00
RMM:  46    -0.694400708285E+03   -0.23928E+00   -0.11138E-01 17812   0.423E-01    0.367E+00
RMM:  47    -0.694686166394E+03   -0.28546E+00   -0.46355E-02 15851   0.293E-01    0.389E+00
RMM:  48    -0.694453727910E+03    0.23244E+00   -0.51154E-02 16975   0.304E-01    0.355E+00
RMM:  49    -0.694991260028E+03   -0.53753E+00   -0.54557E-02 17335   0.296E-01    0.454E+00
RMM:  50    -0.695254469082E+03   -0.26321E+00   -0.24062E-02 15646   0.219E-01    0.488E+00
RMM:  51    -0.694324917263E+03    0.92955E+00   -0.18803E-01 20883   0.478E-01    0.472E+00
RMM:  52    -0.694409845030E+03   -0.84928E-01   -0.14168E-02 15214   0.204E-01    0.458E+00
RMM:  53    -0.694677810108E+03   -0.26797E+00   -0.20983E-02 16634   0.218E-01    0.396E+00
RMM:  54    -0.695107954010E+03   -0.43014E+00   -0.30167E-02 18394   0.245E-01    0.300E+00
RMM:  55    -0.695205920417E+03   -0.97966E-01   -0.83952E-03 15447   0.137E-01    0.239E+00
RMM:  56    -0.695102893766E+03    0.10303E+00   -0.59441E-02 20611   0.323E-01    0.131E+00
RMM:  57    -0.695416068094E+03   -0.31317E+00   -0.85276E-03 15784   0.137E-01    0.105E+00
RMM:  58    -0.695523590191E+03   -0.10752E+00   -0.11372E-02 16801   0.132E-01    0.994E-01
RMM:  59    -0.695598629018E+03   -0.75039E-01   -0.79665E-03 16601   0.113E-01    0.880E-01
RMM:  60    -0.695670078708E+03   -0.71450E-01   -0.28731E-03 14895   0.769E-02    0.736E-01
RMM:  61    -0.695698028935E+03   -0.27950E-01   -0.26337E-03 15339   0.737E-02    0.713E-01
RMM:  62    -0.695842339468E+03   -0.14431E+00   -0.32967E-03 15474   0.727E-02    0.599E-01
RMM:  63    -0.696095201307E+03   -0.25286E+00   -0.66117E-03 17957   0.932E-02    0.408E-01
RMM:  64    -0.696270830133E+03   -0.17563E+00   -0.25724E-03 15400   0.587E-02    0.258E-01
RMM:  65    -0.696324112283E+03   -0.53282E-01   -0.46533E-04 12423   0.325E-02    0.189E-01
RMM:  66    -0.696348178631E+03   -0.24066E-01   -0.28883E-04 10563   0.266E-02    0.178E-01
RMM:  67    -0.696371715873E+03   -0.23537E-01   -0.17144E-04  9410   0.215E-02    0.109E-01
RMM:  68    -0.696382838874E+03   -0.11123E-01   -0.69484E-05  8880   0.149E-02    0.794E-02
RMM:  69    -0.696390062210E+03   -0.72233E-02   -0.34622E-05  8745   0.104E-02    0.517E-02
RMM:  70    -0.696398130231E+03   -0.80680E-02   -0.30081E-05  8076   0.834E-03    0.376E-02
RMM:  71    -0.696402052970E+03   -0.39227E-02   -0.20307E-05  8253   0.708E-03    0.281E-02
RMM:  72    -0.696405667779E+03   -0.36148E-02   -0.16673E-05  7286   0.573E-03    0.221E-02
RMM:  73    -0.696408402372E+03   -0.27346E-02   -0.11725E-05  6380   0.481E-03    0.190E-02
RMM:  74    -0.696411513113E+03   -0.31107E-02   -0.22579E-05  7193   0.526E-03    0.195E-02
RMM:  75    -0.696413311963E+03   -0.17988E-02   -0.18661E-05  6756   0.483E-03    0.135E-02
RMM:  76    -0.696414403499E+03   -0.10915E-02   -0.13978E-05  5991   0.460E-03    0.152E-02
RMM:  77    -0.696415026373E+03   -0.62287E-03   -0.11733E-05  5420   0.431E-03    0.103E-02
RMM:  78    -0.696415366873E+03   -0.34050E-03   -0.11629E-05  5226   0.409E-03    0.730E-03
RMM:  79    -0.696415499060E+03   -0.13219E-03   -0.75065E-06  4825   0.391E-03    0.630E-03
RMM:  80    -0.696415515066E+03   -0.16006E-04   -0.42998E-06  4270   0.354E-03
   1 F= -.69641552E+03 E0= -.69585036E+03  d E =-.696416E+03  mag=     3.7795
 curvature:   0.00 expect dE= 0.000E+00 dE for cont linesearch  0.000E+00
 trial: gam= 0.00000 g(F)=  0.121E+01 g(S)=  0.000E+00 ort = 0.000E+00 (trialstep = 0.100E+01)
 search vector abs. value=  0.121E+01
 bond charge predicted
       N       E                     dE             d eps       ncg     rms          rms(c)
DAV:   1    -0.695203048441E+03    0.12125E+01   -0.26261E+02 15344   0.204E+01    0.485E+00
RMM:   2    -0.695852827459E+03   -0.64978E+00   -0.64786E+00 14848   0.372E+00    0.506E+00
RMM:   3    -0.696070691546E+03   -0.21786E+00   -0.12070E+00 15491   0.167E+00    0.580E+00
RMM:   4    -0.696479402579E+03   -0.40871E+00   -0.33243E-01 16177   0.827E-01    0.977E+00
RMM:   5    -0.695920024813E+03    0.55938E+00   -0.96188E-02 14863   0.548E-01    0.374E+00
RMM:   6    -0.695867221794E+03    0.52803E-01   -0.53747E-02 14908   0.415E-01    0.235E+00
RMM:   7    -0.695851613967E+03    0.15608E-01   -0.43221E-02 15279   0.344E-01    0.211E+00
RMM:   8    -0.695828796030E+03    0.22818E-01   -0.19582E-02 14984   0.246E-01    0.972E-01
RMM:   9    -0.695829287283E+03   -0.49125E-03   -0.71273E-03 14996   0.151E-01    0.866E-01
RMM:  10    -0.695828348437E+03    0.93885E-03   -0.28686E-03 14496   0.937E-02    0.427E-01
RMM:  11    -0.695830609204E+03   -0.22608E-02   -0.12698E-03 14000   0.572E-02    0.315E-01
RMM:  12    -0.695832913867E+03   -0.23047E-02   -0.54331E-04 12747   0.394E-02    0.219E-01
RMM:  13    -0.695835107932E+03   -0.21941E-02   -0.37136E-04 11393   0.307E-02    0.132E-01
RMM:  14    -0.695837356625E+03   -0.22487E-02   -0.21960E-04 10032   0.238E-02    0.902E-02
RMM:  15    -0.695838976495E+03   -0.16199E-02   -0.83300E-05  8890   0.164E-02    0.642E-02
RMM:  16    -0.695840172827E+03   -0.11963E-02   -0.33014E-05  8168   0.105E-02    0.483E-02
RMM:  17    -0.695841575648E+03   -0.14028E-02   -0.18665E-05  7568   0.696E-03    0.392E-02
RMM:  18    -0.695843074940E+03   -0.14993E-02   -0.15550E-05  7373   0.607E-03    0.313E-02
RMM:  19    -0.695845369301E+03   -0.22944E-02   -0.24193E-05  7660   0.602E-03    0.232E-02
RMM:  20    -0.695846719025E+03   -0.13497E-02   -0.12178E-05  6027   0.489E-03    0.239E-02
RMM:  21    -0.695848582318E+03   -0.18633E-02   -0.19230E-05  6636   0.530E-03    0.194E-02
RMM:  22    -0.695850457139E+03   -0.18748E-02   -0.22473E-05  6544   0.531E-03    0.190E-02
RMM:  23    -0.695852309617E+03   -0.18525E-02   -0.32406E-05  7105   0.603E-03    0.146E-02
RMM:  24    -0.695853514370E+03   -0.12048E-02   -0.25481E-05  6564   0.561E-03    0.144E-02
RMM:  25    -0.695854074310E+03   -0.55994E-03   -0.11531E-05  5373   0.480E-03    0.118E-02
RMM:  26    -0.695854575941E+03   -0.50163E-03   -0.78316E-06  4895   0.407E-03    0.107E-02
RMM:  27    -0.695855132699E+03   -0.55676E-03   -0.50119E-06  4557   0.382E-03    0.104E-02
RMM:  28    -0.695855587922E+03   -0.45522E-03   -0.32257E-06  3997   0.345E-03    0.841E-03
RMM:  29    -0.695856199267E+03   -0.61135E-03   -0.32011E-06  4150   0.340E-03    0.796E-03
RMM:  30    -0.695856605937E+03   -0.40667E-03   -0.16443E-06  3394   0.313E-03    0.783E-03
RMM:  31    -0.695857060211E+03   -0.45427E-03   -0.17185E-06  3219   0.305E-03    0.811E-03
RMM:  32    -0.695857585346E+03   -0.52513E-03   -0.26482E-06  3639   0.313E-03    0.621E-03
RMM:  33    -0.695857878680E+03   -0.29333E-03   -0.12467E-06  2883   0.293E-03    0.464E-03
RMM:  34    -0.695858104670E+03   -0.22599E-03   -0.96233E-07  2589   0.289E-03    0.333E-03
RMM:  35    -0.695858208187E+03   -0.10352E-03   -0.50459E-07  2284   0.285E-03    0.282E-03
RMM:  36    -0.695858286011E+03   -0.77825E-04   -0.51691E-07  2290   0.284E-03
   2 F= -.69585829E+03 E0= -.69529750E+03  d E =0.557229E+00  mag=     3.9128
 trial-energy change:    0.557229  1 .order    0.185069   -1.208897    1.579036
 step:   0.2742(harm=  0.4336)  dis= 0.01958  next Energy=  -696.573590 (dE=-0.158E+00)
 bond charge predicted
       N       E                     dE             d eps       ncg     rms          rms(c)
DAV:   1    -0.696199649103E+03   -0.34144E+00   -0.13564E+02 15024   0.145E+01    0.385E+00
RMM:   2    -0.696510529078E+03   -0.31088E+00   -0.36857E+00 14848   0.270E+00    0.295E+00
RMM:   3    -0.696784687141E+03   -0.27416E+00   -0.77740E-01 16029   0.117E+00    0.608E+00
RMM:   4    -0.696891873279E+03   -0.10719E+00   -0.13254E-01 15066   0.598E-01    0.761E+00
RMM:   5    -0.696568475307E+03    0.32340E+00   -0.55868E-02 14910   0.430E-01    0.278E+00
RMM:   6    -0.696544308222E+03    0.24167E-01   -0.27412E-02 14991   0.283E-01    0.194E+00
RMM:   7    -0.696532454750E+03    0.11853E-01   -0.17459E-02 15118   0.216E-01    0.135E+00
RMM:   8    -0.696529255785E+03    0.31990E-02   -0.93621E-03 15023   0.163E-01    0.857E-01
RMM:   9    -0.696532452229E+03   -0.31964E-02   -0.56957E-03 15020   0.125E-01    0.686E-01
RMM:  10    -0.696534011881E+03   -0.15597E-02   -0.20891E-03 14151   0.844E-02    0.429E-01
RMM:  11    -0.696535635034E+03   -0.16232E-02   -0.80748E-04 13344   0.473E-02    0.206E-01
RMM:  12    -0.696537222440E+03   -0.15874E-02   -0.30589E-04 10944   0.291E-02    0.162E-01
RMM:  13    -0.696539025891E+03   -0.18035E-02   -0.19634E-04  9693   0.239E-02    0.109E-01
RMM:  14    -0.696540692479E+03   -0.16666E-02   -0.14276E-04  9233   0.197E-02    0.782E-02
RMM:  15    -0.696541401616E+03   -0.70914E-03   -0.53271E-05  8592   0.132E-02    0.622E-02
RMM:  16    -0.696541721170E+03   -0.31955E-03   -0.20064E-05  7679   0.872E-03    0.363E-02
RMM:  17    -0.696542010246E+03   -0.28908E-03   -0.84219E-06  6735   0.514E-03    0.296E-02
RMM:  18    -0.696542339855E+03   -0.32961E-03   -0.51413E-06  5927   0.420E-03    0.240E-02
RMM:  19    -0.696543060511E+03   -0.72066E-03   -0.13810E-05  7340   0.515E-03    0.195E-02
RMM:  20    -0.696543657110E+03   -0.59660E-03   -0.93853E-06  6548   0.445E-03    0.179E-02
RMM:  21    -0.696544167849E+03   -0.51074E-03   -0.72507E-06  5899   0.429E-03    0.169E-02
RMM:  22    -0.696544714671E+03   -0.54682E-03   -0.98884E-06  6049   0.439E-03    0.157E-02
RMM:  23    -0.696545463003E+03   -0.74833E-03   -0.18977E-05  6879   0.519E-03    0.159E-02
RMM:  24    -0.696546104230E+03   -0.64123E-03   -0.18913E-05  6501   0.506E-03    0.124E-02
RMM:  25    -0.696546419435E+03   -0.31520E-03   -0.78414E-06  5339   0.433E-03    0.111E-02
RMM:  26    -0.696546673182E+03   -0.25375E-03   -0.46083E-06  4350   0.367E-03    0.101E-02
RMM:  27    -0.696547117613E+03   -0.44443E-03   -0.71107E-06  4925   0.375E-03    0.792E-03
RMM:  28    -0.696547533904E+03   -0.41629E-03   -0.50206E-06  4492   0.360E-03    0.697E-03
RMM:  29    -0.696547810640E+03   -0.27674E-03   -0.29001E-06  3776   0.333E-03    0.669E-03
RMM:  30    -0.696548073730E+03   -0.26309E-03   -0.16591E-06  3125   0.307E-03    0.662E-03
RMM:  31    -0.696548506273E+03   -0.43254E-03   -0.19745E-06  3252   0.309E-03    0.599E-03
RMM:  32    -0.696548903569E+03   -0.39730E-03   -0.18230E-06  3367   0.311E-03    0.521E-03
RMM:  33    -0.696549104250E+03   -0.20068E-03   -0.62911E-07  2523   0.294E-03    0.424E-03
RMM:  34    -0.696549338322E+03   -0.23407E-03   -0.54307E-07  2369   0.289E-03    0.297E-03
RMM:  35    -0.696549487286E+03   -0.14896E-03   -0.27247E-07  2187   0.286E-03    0.273E-03
RMM:  36    -0.696549604949E+03   -0.11766E-03   -0.27052E-07  2085   0.284E-03    0.225E-03
RMM:  37    -0.696549677426E+03   -0.72477E-04   -0.42982E-07  2215   0.285E-03
   3 F= -.69654968E+03 E0= -.69598595E+03  d E =-.134162E+00  mag=     3.8077
 curvature:  -0.20 expect dE=-0.406E+00 dE for cont linesearch -0.353E-01
 ZBRENT: interpolating
 opt :   0.1984  next Energy=  -696.567209 (dE=-0.152E+00)
 bond charge predicted
       N       E                     dE             d eps       ncg     rms          rms(c)
DAV:   1    -0.696559881478E+03   -0.10277E-01   -0.14981E+00 15360   0.153E+00    0.361E-01
RMM:   2    -0.696562341796E+03   -0.24603E-02   -0.28417E-02 14692   0.240E-01    0.380E-01
RMM:   3    -0.696566249539E+03   -0.39077E-02   -0.46744E-03 14741   0.103E-01    0.792E-01
RMM:   4    -0.696565045321E+03    0.12042E-02   -0.13965E-03 13777   0.618E-02    0.701E-01
RMM:   5    -0.696562563246E+03    0.24821E-02   -0.60838E-04 12790   0.468E-02    0.343E-01
RMM:   6    -0.696562190677E+03    0.37257E-03   -0.31724E-04 10689   0.318E-02    0.216E-01
RMM:   7    -0.696562019084E+03    0.17159E-03   -0.20854E-04  9580   0.257E-02    0.154E-01
RMM:   8    -0.696561951728E+03    0.67356E-04   -0.10934E-04  8674   0.196E-02
   4 F= -.69656195E+03 E0= -.69599775E+03  d E =-.146437E+00  mag=     3.8064
 curvature:  -0.10 expect dE=-0.113E+00 dE for cont linesearch -0.263E-02
 trial: gam= 0.79612 g(F)=  0.114E+01 g(S)=  0.000E+00 ort = 0.179E+00 (trialstep = 0.463E+00)
 search vector abs. value=  0.219E+01
 bond charge predicted
       N       E                     dE             d eps       ncg     rms          rms(c)
DAV:   1    -0.696136322895E+03    0.42570E+00   -0.95284E+01 15024   0.130E+01    0.309E+00
RMM:   2    -0.696419186382E+03   -0.28286E+00   -0.17998E+00 14848   0.246E+00    0.545E+00
RMM:   3    -0.696951095953E+03   -0.53191E+00   -0.50407E-01 15991   0.110E+00    0.965E+00
RMM:   4    -0.696387746392E+03    0.56335E+00   -0.12202E-01 15007   0.611E-01    0.393E+00
RMM:   5    -0.696370177772E+03    0.17569E-01   -0.41479E-02 14939   0.380E-01    0.305E+00
RMM:   6    -0.696325014741E+03    0.45163E-01   -0.23295E-02 14921   0.268E-01    0.190E+00
RMM:   7    -0.696316404262E+03    0.86105E-02   -0.17814E-02 15243   0.222E-01    0.131E+00
RMM:   8    -0.696311263546E+03    0.51407E-02   -0.87649E-03 14949   0.157E-01    0.753E-01
RMM:   9    -0.696309630259E+03    0.16333E-02   -0.49547E-03 14949   0.115E-01    0.695E-01
RMM:  10    -0.696307348023E+03    0.22822E-02   -0.14712E-03 13824   0.698E-02    0.408E-01
RMM:  11    -0.696306361761E+03    0.98626E-03   -0.54672E-04 12337   0.401E-02    0.242E-01
RMM:  12    -0.696306147019E+03    0.21474E-03   -0.29165E-04 10652   0.278E-02    0.187E-01
RMM:  13    -0.696306142348E+03    0.46712E-05   -0.27900E-04 10209   0.266E-02
   5 F= -.69630614E+03 E0= -.69574132E+03  d E =0.255809E+00  mag=     3.8178
 trial-energy change:    0.255809  1 .order   -0.090292   -0.594393    0.413810
 step:   0.2729(harm=  0.2729)  dis= 0.02056  next Energy=  -696.737166 (dE=-0.175E+00)
 bond charge predicted
       N       E                     dE             d eps       ncg     rms          rms(c)
DAV:   1    -0.696455473387E+03   -0.14933E+00   -0.16063E+01 15360   0.541E+00    0.121E+00
RMM:   2    -0.696494560927E+03   -0.39088E-01   -0.28386E-01 14848   0.916E-01    0.178E+00
RMM:   3    -0.696559459788E+03   -0.64899E-01   -0.67096E-02 16216   0.408E-01    0.332E+00
RMM:   4    -0.696506421314E+03    0.53038E-01   -0.17191E-02 14879   0.230E-01    0.201E+00
RMM:   5    -0.696492513891E+03    0.13907E-01   -0.66146E-03 14864   0.161E-01    0.113E+00
RMM:   6    -0.696486333445E+03    0.61804E-02   -0.35996E-03 14824   0.106E-01    0.691E-01
RMM:   7    -0.696485205827E+03    0.11276E-02   -0.25090E-03 14701   0.848E-02    0.417E-01
RMM:   8    -0.696485697495E+03   -0.49167E-03   -0.16281E-03 14217   0.651E-02    0.390E-01
RMM:   9    -0.696485141540E+03    0.55596E-03   -0.52713E-04 12532   0.439E-02    0.194E-01
RMM:  10    -0.696485153167E+03   -0.11627E-04   -0.17994E-04  9538   0.237E-02
   6 F= -.69648515E+03 E0= -.69592121E+03  d E =0.767986E-01  mag=     3.8212
 curvature:  -0.23 expect dE=-0.785E+00 dE for cont linesearch -0.582E-01
 ZBRENT: interpolating
 opt :   0.1731  next Energy=  -696.522085 (dE= 0.399E-01)
 bond charge predicted
       N       E                     dE             d eps       ncg     rms          rms(c)
DAV:   1    -0.696555847988E+03   -0.70706E-01   -0.44164E+00 15312   0.280E+00    0.591E-01
RMM:   2    -0.696577312590E+03   -0.21465E-01   -0.76714E-02 14848   0.483E-01    0.164E+00
RMM:   3    -0.696569689566E+03    0.76230E-02   -0.18346E-02 16244   0.214E-01    0.101E+00
RMM:   4    -0.696565997396E+03    0.36922E-02   -0.38810E-03 14741   0.112E-01    0.728E-01
RMM:   5    -0.696565179988E+03    0.81741E-03   -0.17519E-03 14303   0.787E-02    0.570E-01
RMM:   6    -0.696563629899E+03    0.15501E-02   -0.97956E-04 13723   0.569E-02    0.322E-01
RMM:   7    -0.696563491124E+03    0.13878E-03   -0.73589E-04 13367   0.448E-02    0.232E-01
RMM:   8    -0.696563438303E+03    0.52821E-04   -0.33975E-04 11107   0.321E-02
   7 F= -.69656344E+03 E0= -.69599927E+03  d E =-.148658E-02  mag=     3.8210
 curvature:  -0.15 expect dE=-0.516E+00 dE for cont linesearch -0.486E-01
 ZBRENT: bisectioning
 opt :   0.0866  next Energy=  -696.641014 (dE=-0.791E-01)
 bond charge predicted
       N       E                     dE             d eps       ncg     rms          rms(c)
DAV:   1    -0.696608948500E+03   -0.45457E-01   -0.33216E+00 15344   0.242E+00    0.545E-01
RMM:   2    -0.696618924393E+03   -0.99759E-02   -0.57368E-02 14848   0.427E-01    0.103E+00
RMM:   3    -0.696627750641E+03   -0.88262E-02   -0.14214E-02 16152   0.188E-01    0.140E+00
RMM:   4    -0.696618971708E+03    0.87789E-02   -0.36765E-03 14577   0.106E-01    0.933E-01
RMM:   5    -0.696615273643E+03    0.36981E-02   -0.11941E-03 13785   0.700E-02    0.438E-01
RMM:   6    -0.696614132196E+03    0.11414E-02   -0.74674E-04 13167   0.462E-02    0.239E-01
RMM:   7    -0.696614231843E+03   -0.99648E-04   -0.54866E-04 12555   0.385E-02    0.227E-01
RMM:   8    -0.696614151779E+03    0.80064E-04   -0.27733E-04 10545   0.296E-02
   8 F= -.69661415E+03 E0= -.69604999E+03  d E =-.522001E-01  mag=     3.8188
 curvature:  -0.24 expect dE=-0.382E+00 dE for cont linesearch -0.249E-02
 trial: gam= 1.43433 g(F)=  0.162E+01 g(S)=  0.000E+00 ort =-0.152E+00 (trialstep = 0.149E+00)
 search vector abs. value=  0.569E+01
 bond charge predicted
       N       E                     dE             d eps       ncg     rms          rms(c)
DAV:   1    -0.696645367374E+03   -0.31136E-01   -0.23395E+01 15040   0.582E+00    0.168E+00
RMM:   2    -0.696711837910E+03   -0.66471E-01   -0.45409E-01 14848   0.115E+00    0.278E+00
RMM:   3    -0.696839478517E+03   -0.12764E+00   -0.10993E-01 15695   0.515E-01    0.476E+00
RMM:   4    -0.696713626273E+03    0.12585E+00   -0.30780E-02 14950   0.301E-01    0.249E+00
RMM:   5    -0.696696121768E+03    0.17505E-01   -0.11366E-02 14876   0.201E-01    0.155E+00
RMM:   6    -0.696684641033E+03    0.11481E-01   -0.77890E-03 14975   0.152E-01    0.104E+00
RMM:   7    -0.696682479142E+03    0.21619E-02   -0.57080E-03 15229   0.123E-01    0.728E-01
RMM:   8    -0.696680900019E+03    0.15791E-02   -0.36878E-03 14827   0.962E-02    0.434E-01
RMM:   9    -0.696680157471E+03    0.74255E-03   -0.16646E-03 13789   0.687E-02    0.250E-01
RMM:  10    -0.696679904052E+03    0.25342E-03   -0.43142E-04 12031   0.366E-02    0.183E-01
RMM:  11    -0.696679695520E+03    0.20853E-03   -0.14082E-04  9177   0.216E-02    0.961E-02
RMM:  12    -0.696679684750E+03    0.10770E-04   -0.10360E-04  8926   0.169E-02
   9 F= -.69667968E+03 E0= -.69611576E+03  d E =-.655330E-01  mag=     3.8210
 trial-energy change:   -0.065533  1 .order   -0.019927   -0.209248    0.169394
 step:   0.1050(harm=  0.0825)  dis= 0.02335  next Energy=  -696.703616 (dE=-0.895E-01)
 bond charge predicted
       N       E                     dE             d eps       ncg     rms          rms(c)
DAV:   1    -0.696691509878E+03   -0.11814E-01   -0.20687E+00 15200   0.177E+00    0.431E-01
RMM:   2    -0.696699458975E+03   -0.79491E-02   -0.38855E-02 14840   0.314E-01    0.994E-01
RMM:   3    -0.696700677480E+03   -0.12185E-02   -0.79436E-03 15891   0.141E-01    0.926E-01
RMM:   4    -0.696696802263E+03    0.38752E-02   -0.21283E-03 14136   0.772E-02    0.604E-01
RMM:   5    -0.696695959949E+03    0.84231E-03   -0.10398E-03 13461   0.585E-02    0.423E-01
RMM:   6    -0.696695267163E+03    0.69279E-03   -0.77357E-04 13449   0.468E-02    0.242E-01
RMM:   7    -0.696695249774E+03    0.17389E-04   -0.44656E-04 11975   0.355E-02    0.180E-01
RMM:   8    -0.696695243242E+03    0.65325E-05   -0.22909E-04 10011   0.267E-02
  10 F= -.69669524E+03 E0= -.69613120E+03  d E =-.810915E-01  mag=     3.8216
 curvature:  -0.15 expect dE=-0.229E+00 dE for cont linesearch -0.128E-02
 trial: gam= 0.23129 g(F)=  0.154E+01 g(S)=  0.000E+00 ort = 0.222E+00 (trialstep = 0.140E+00)
 search vector abs. value=  0.195E+01
 bond charge predicted
       N       E                     dE             d eps       ncg     rms          rms(c)
DAV:   1    -0.696621065457E+03    0.74184E-01   -0.92380E+00 15136   0.456E+00    0.813E-01
RMM:   2    -0.696643907805E+03   -0.22842E-01   -0.20931E-01 14848   0.737E-01    0.118E+00
RMM:   3    -0.696662342812E+03   -0.18435E-01   -0.30258E-02 15184   0.308E-01    0.186E+00
RMM:   4    -0.696649869484E+03    0.12473E-01   -0.81960E-03 15024   0.166E-01    0.128E+00
RMM:   5    -0.696643369432E+03    0.65001E-02   -0.35142E-03 14684   0.115E-01    0.775E-01
RMM:   6    -0.696641944408E+03    0.14250E-02   -0.17445E-03 14096   0.747E-02    0.527E-01
RMM:   7    -0.696641324943E+03    0.61947E-03   -0.12709E-03 14046   0.608E-02    0.390E-01
RMM:   8    -0.696640679258E+03    0.64568E-03   -0.57719E-04 12633   0.428E-02    0.201E-01
RMM:   9    -0.696640681714E+03   -0.24561E-05   -0.26884E-04 10471   0.293E-02
  11 F= -.69664068E+03 E0= -.69607737E+03  d E =0.545615E-01  mag=     3.8200
 trial-energy change:    0.054562  1 .order    0.010373   -0.223308    0.244055
 step:   0.0490(harm=  0.0671)  dis= 0.00707  next Energy=  -696.732325 (dE=-0.371E-01)
 bond charge predicted
       N       E                     dE             d eps       ncg     rms          rms(c)
DAV:   1    -0.696733105092E+03   -0.92426E-01   -0.39261E+00 15360   0.298E+00    0.517E-01
RMM:   2    -0.696741702607E+03   -0.85975E-02   -0.85878E-02 14848   0.475E-01    0.720E-01
RMM:   3    -0.696743767358E+03   -0.20648E-02   -0.11211E-02 14973   0.198E-01    0.675E-01
RMM:   4    -0.696756839108E+03   -0.13072E-01   -0.40235E-03 15170   0.106E-01    0.158E+00
RMM:   5    -0.696741703246E+03    0.15136E-01   -0.16506E-03 14097   0.794E-02    0.479E-01
RMM:   6    -0.696741334566E+03    0.36868E-03   -0.76582E-04 13193   0.507E-02    0.284E-01
RMM:   7    -0.696741265436E+03    0.69130E-04   -0.55013E-04 12678   0.409E-02    0.212E-01
RMM:   8    -0.696741151392E+03    0.11404E-03   -0.22335E-04  9990   0.269E-02    0.115E-01
RMM:   9    -0.696741162299E+03   -0.10906E-04   -0.11720E-04  8807   0.201E-02
  12 F= -.69674116E+03 E0= -.69617752E+03  d E =-.459191E-01  mag=     3.8210
 curvature:  -0.04 expect dE=-0.212E-01 dE for cont linesearch -0.476E-03
 ZBRENT: interpolating
 opt :   0.0565  next Energy=  -696.741742 (dE=-0.465E-01)
 bond charge predicted
       N       E                     dE             d eps       ncg     rms          rms(c)
DAV:   1    -0.696741271736E+03   -0.12034E-03   -0.26467E-02 15376   0.246E-01    0.704E-02
RMM:   2    -0.696741743300E+03   -0.47156E-03   -0.68564E-04 12058   0.445E-02    0.256E-01
RMM:   3    -0.696741559266E+03    0.18403E-03   -0.14021E-04  8198   0.245E-02    0.202E-01
RMM:   4    -0.696741358717E+03    0.20055E-03   -0.46972E-05  7986   0.144E-02    0.881E-02
RMM:   5    -0.696741346977E+03    0.11740E-04   -0.17641E-05  7642   0.911E-03    0.407E-02
RMM:   6    -0.696741347610E+03   -0.63284E-06   -0.87501E-06  6430   0.565E-03    0.186E-02
RMM:   7    -0.696741360769E+03   -0.13159E-04   -0.58841E-06  5753   0.452E-03    0.308E-02
RMM:   8    -0.696741362085E+03   -0.13162E-05   -0.29716E-06  5236   0.405E-03
  13 F= -.69674136E+03 E0= -.69617774E+03  d E =-.461188E-01  mag=     3.8208
 curvature:  -0.05 expect dE=-0.312E-01 dE for cont linesearch -0.291E-03
 trial: gam= 0.44877 g(F)=  0.664E+00 g(S)=  0.000E+00 ort =-0.110E+00 (trialstep = 0.124E+00)
 search vector abs. value=  0.957E+00
 bond charge predicted
       N       E                     dE             d eps       ncg     rms          rms(c)
DAV:   1    -0.696766096877E+03   -0.24736E-01   -0.34602E+00 15248   0.251E+00    0.581E-01
RMM:   2    -0.696777595121E+03   -0.11498E-01   -0.76387E-02 14848   0.382E-01    0.111E+00
RMM:   3    -0.696778185393E+03   -0.59027E-03   -0.10477E-02 15105   0.166E-01    0.913E-01
RMM:   4    -0.696781206913E+03   -0.30215E-02   -0.32478E-03 14389   0.972E-02    0.126E+00
RMM:   5    -0.696777701498E+03    0.35054E-02   -0.13160E-03 13734   0.696E-02    0.890E-01
RMM:   6    -0.696773394736E+03    0.43068E-02   -0.55282E-04 12511   0.458E-02    0.430E-01
RMM:   7    -0.696772783233E+03    0.61150E-03   -0.41592E-04 11442   0.335E-02    0.194E-01
RMM:   8    -0.696772896063E+03   -0.11283E-03   -0.24499E-04 10179   0.281E-02    0.189E-01
RMM:   9    -0.696772700961E+03    0.19510E-03   -0.94237E-05  8633   0.207E-02    0.650E-02
RMM:  10    -0.696772690664E+03    0.10296E-04   -0.28300E-05  8126   0.106E-02
  14 F= -.69677269E+03 E0= -.69620949E+03  d E =-.313286E-01  mag=     3.8209
 trial-energy change:   -0.031329  1 .order   -0.030520   -0.075979    0.014939
 step:   0.1042(harm=  0.1033)  dis= 0.01167  next Energy=  -696.773862 (dE=-0.325E-01)
 bond charge predicted
       N       E                     dE             d eps       ncg     rms          rms(c)
DAV:   1    -0.696773457684E+03   -0.75672E-03   -0.85633E-02 15376   0.397E-01    0.930E-02
RMM:   2    -0.696774343076E+03   -0.88539E-03   -0.18739E-03 13216   0.611E-02    0.337E-01
RMM:   3    -0.696773667347E+03    0.67573E-03   -0.26030E-04  9077   0.289E-02    0.116E-01
RMM:   4    -0.696773794339E+03   -0.12699E-03   -0.99644E-05  8120   0.184E-02    0.187E-01
RMM:   5    -0.696773707559E+03    0.86780E-04   -0.36421E-05  7908   0.133E-02    0.108E-01
RMM:   6    -0.696773673738E+03    0.33821E-04   -0.14051E-05  7032   0.753E-03    0.662E-02
RMM:   7    -0.696773682047E+03   -0.83096E-05   -0.12811E-05  6823   0.644E-03    0.378E-02
RMM:   8    -0.696773695501E+03   -0.13454E-04   -0.71182E-06  6674   0.553E-03
  15 F= -.69677370E+03 E0= -.69621039E+03  d E =-.323334E-01  mag=     3.8214
 curvature:  -0.08 expect dE=-0.894E-01 dE for cont linesearch -0.235E-04
 trial: gam= 1.22843 g(F)=  0.111E+01 g(S)=  0.000E+00 ort = 0.167E-01 (trialstep = 0.441E-01)
 search vector abs. value=  0.260E+01
 bond charge predicted
       N       E                     dE             d eps       ncg     rms          rms(c)
DAV:   1    -0.696804638903E+03   -0.30957E-01   -0.11889E+00 15280   0.141E+00    0.385E-01
RMM:   2    -0.696808532749E+03   -0.38938E-02   -0.29446E-02 14854   0.226E-01    0.699E-01
RMM:   3    -0.696813471504E+03   -0.49388E-02   -0.49751E-03 14701   0.106E-01    0.101E+00
RMM:   4    -0.696808299149E+03    0.51724E-02   -0.13391E-03 13724   0.644E-02    0.620E-01
RMM:   5    -0.696808409283E+03   -0.11013E-03   -0.65163E-04 12969   0.449E-02    0.527E-01
RMM:   6    -0.696806691467E+03    0.17178E-02   -0.32830E-04 10747   0.353E-02    0.220E-01
RMM:   7    -0.696806517512E+03    0.17395E-03   -0.15213E-04  8953   0.231E-02    0.926E-02
RMM:   8    -0.696806529123E+03   -0.11611E-04   -0.92690E-05  8539   0.179E-02
  16 F= -.69680653E+03 E0= -.69624346E+03  d E =-.328336E-01  mag=     3.8227
 trial-energy change:   -0.032834  1 .order   -0.030040   -0.050010   -0.010070
 step:   0.0516(harm=  0.0552)  dis= 0.01003  next Energy=  -696.807394 (dE=-0.337E-01)
 bond charge predicted
       N       E                     dE             d eps       ncg     rms          rms(c)
DAV:   1    -0.696807532603E+03   -0.10151E-02   -0.33936E-02 15456   0.241E-01    0.714E-02
RMM:   2    -0.696807716429E+03   -0.18383E-03   -0.84530E-04 11061   0.400E-02    0.173E-01
RMM:   3    -0.696807653786E+03    0.62642E-04   -0.14368E-04  8520   0.217E-02    0.102E-01
RMM:   4    -0.696807831201E+03   -0.17742E-03   -0.56433E-05  8214   0.130E-02    0.200E-01
RMM:   5    -0.696807649677E+03    0.18152E-03   -0.21780E-05  7432   0.101E-02    0.722E-02
RMM:   6    -0.696807657645E+03   -0.79679E-05   -0.12153E-05  7051   0.617E-03    0.561E-02
RMM:   7    -0.696807666795E+03   -0.91499E-05   -0.77282E-06  6698   0.582E-03    0.252E-02
RMM:   8    -0.696807693840E+03   -0.27046E-04   -0.32421E-06  5654   0.402E-03
  17 F= -.69680769E+03 E0= -.69624473E+03  d E =-.339983E-01  mag=     3.8240
 curvature:  -0.06 expect dE=-0.439E-01 dE for cont linesearch -0.927E-04
 trial: gam= 0.22071 g(F)=  0.778E+00 g(S)=  0.000E+00 ort = 0.653E-01 (trialstep = 0.456E-01)
 search vector abs. value=  0.933E+00
 bond charge predicted
       N       E                     dE             d eps       ncg     rms          rms(c)
DAV:   1    -0.696833674723E+03   -0.26008E-01   -0.47653E-01 15328   0.935E-01    0.194E-01
RMM:   2    -0.696834916286E+03   -0.12416E-02   -0.12811E-02 14569   0.152E-01    0.318E-01
RMM:   3    -0.696836274982E+03   -0.13587E-02   -0.19884E-03 14196   0.651E-02    0.507E-01
RMM:   4    -0.696835048365E+03    0.12266E-02   -0.40232E-04 11343   0.350E-02    0.265E-01
RMM:   5    -0.696834902292E+03    0.14607E-03   -0.19831E-04  9353   0.266E-02    0.212E-01
RMM:   6    -0.696834744970E+03    0.15732E-03   -0.11526E-04  8622   0.203E-02    0.108E-01
RMM:   7    -0.696834755831E+03   -0.10862E-04   -0.75132E-05  8267   0.158E-02    0.978E-02
RMM:   8    -0.696834764395E+03   -0.85635E-05   -0.48337E-05  7829   0.130E-02
  18 F= -.69683476E+03 E0= -.69627188E+03  d E =-.270706E-01  mag=     3.8249
 trial-energy change:   -0.027071  1 .order   -0.027426   -0.036128   -0.018725
 step:   0.0947(harm=  0.0947)  dis= 0.00963  next Energy=  -696.845194 (dE=-0.375E-01)
 bond charge predicted
       N       E                     dE             d eps       ncg     rms          rms(c)
DAV:   1    -0.696840571950E+03   -0.58161E-02   -0.55208E-01 15328   0.100E+00    0.207E-01
RMM:   2    -0.696842788720E+03   -0.22168E-02   -0.14656E-02 14685   0.163E-01    0.479E-01
RMM:   3    -0.696842882540E+03   -0.93820E-04   -0.24328E-03 14553   0.711E-02    0.440E-01
RMM:   4    -0.696842188847E+03    0.69369E-03   -0.45091E-04 11446   0.373E-02    0.265E-01
RMM:   5    -0.696842131800E+03    0.57046E-04   -0.24110E-04  9823   0.284E-02    0.258E-01
RMM:   6    -0.696841861399E+03    0.27040E-03   -0.13751E-04  8796   0.226E-02    0.114E-01
RMM:   7    -0.696841903088E+03   -0.41688E-04   -0.88186E-05  8410   0.163E-02    0.114E-01
RMM:   8    -0.696841900948E+03    0.21402E-05   -0.57664E-05  8093   0.145E-02
  19 F= -.69684190E+03 E0= -.69627909E+03  d E =-.342071E-01  mag=     3.8256
 curvature:  -0.06 expect dE=-0.375E-01 dE for cont linesearch -0.190E-02
 ZBRENT: interpolating
 opt :   0.0798  next Energy=  -696.843223 (dE=-0.355E-01)
 bond charge predicted
       N       E                     dE             d eps       ncg     rms          rms(c)
DAV:   1    -0.696842822305E+03   -0.91922E-03   -0.51019E-02 15360   0.306E-01    0.851E-02
RMM:   2    -0.696843864249E+03   -0.10419E-02   -0.15519E-03 12820   0.543E-02    0.365E-01
RMM:   3    -0.696843254991E+03    0.60926E-03   -0.29581E-04  9329   0.301E-02    0.235E-01
RMM:   4    -0.696843020529E+03    0.23446E-03   -0.80714E-05  8069   0.183E-02    0.744E-02
RMM:   5    -0.696843015575E+03    0.49542E-05   -0.23859E-05  7536   0.978E-03    0.559E-02
RMM:   6    -0.696843033694E+03   -0.18119E-04   -0.14175E-05  6628   0.697E-03    0.386E-02
RMM:   7    -0.696843061063E+03   -0.27369E-04   -0.96779E-06  6435   0.590E-03    0.274E-02
RMM:   8    -0.696843093598E+03   -0.32535E-04   -0.82580E-06  6429   0.529E-03
  20 F= -.69684309E+03 E0= -.69628023E+03  d E =-.353998E-01  mag=     3.8261
 curvature:  -0.04 expect dE=-0.204E-01 dE for cont linesearch -0.682E-04
 trial: gam= 0.69278 g(F)=  0.525E+00 g(S)=  0.000E+00 ort = 0.405E-01 (trialstep = 0.475E-01)
 search vector abs. value=  0.103E+01
 bond charge predicted
       N       E                     dE             d eps       ncg     rms          rms(c)
DAV:   1    -0.696852778434E+03   -0.97174E-02   -0.56177E-01 15264   0.951E-01    0.208E-01
RMM:   2    -0.696853914949E+03   -0.11365E-02   -0.12678E-02 14439   0.147E-01    0.265E-01
RMM:   3    -0.696854295438E+03   -0.38049E-03   -0.17652E-03 13201   0.615E-02    0.289E-01
RMM:   4    -0.696854428417E+03   -0.13298E-03   -0.38665E-04 10672   0.301E-02    0.286E-01
RMM:   5    -0.696854440932E+03   -0.12515E-04   -0.21183E-04  9690   0.261E-02    0.296E-01
RMM:   6    -0.696853961156E+03    0.47978E-03   -0.10395E-04  8495   0.214E-02    0.121E-01
RMM:   7    -0.696853944446E+03    0.16711E-04   -0.53627E-05  8241   0.138E-02    0.657E-02
RMM:   8    -0.696853978011E+03   -0.33565E-04   -0.48901E-05  7946   0.120E-02
  21 F= -.69685398E+03 E0= -.69629115E+03  d E =-.108844E-01  mag=     3.8258
 trial-energy change:   -0.010884  1 .order   -0.009426   -0.026310    0.007458
 step:   0.0389(harm=  0.0370)  dis= 0.00336  next Energy=  -696.854649 (dE=-0.116E-01)
 bond charge predicted
       N       E                     dE             d eps       ncg     rms          rms(c)
DAV:   1    -0.696854695152E+03   -0.75071E-03   -0.18866E-02 15344   0.176E-01    0.541E-02
RMM:   2    -0.696855136741E+03   -0.44159E-03   -0.50675E-04  9845   0.310E-02    0.250E-01
RMM:   3    -0.696854826605E+03    0.31014E-03   -0.10814E-04  8095   0.198E-02    0.142E-01
RMM:   4    -0.696854747671E+03    0.78934E-04   -0.30214E-05  7874   0.114E-02    0.510E-02
RMM:   5    -0.696854744938E+03    0.27323E-05   -0.10377E-05  6712   0.664E-03    0.206E-02
RMM:   6    -0.696854752456E+03   -0.75177E-05   -0.43636E-06  5287   0.432E-03    0.227E-02
RMM:   7    -0.696854758903E+03   -0.64469E-05   -0.21708E-06  4368   0.358E-03    0.158E-02
RMM:   8    -0.696854766931E+03   -0.80275E-05   -0.20846E-06  4056   0.338E-03
  22 F= -.69685477E+03 E0= -.69629194E+03  d E =-.116733E-01  mag=     3.8257
 curvature:  -0.03 expect dE=-0.144E-01 dE for cont linesearch -0.678E-05
 trial: gam= 0.39490 g(F)=  0.430E+00 g(S)=  0.000E+00 ort =-0.145E-01 (trialstep = 0.458E-01)
 search vector abs. value=  0.579E+00
 bond charge predicted
       N       E                     dE             d eps       ncg     rms          rms(c)
DAV:   1    -0.696869646316E+03   -0.14887E-01   -0.29184E-01 15280   0.730E-01    0.172E-01
RMM:   2    -0.696870359547E+03   -0.71323E-03   -0.62254E-03 14406   0.118E-01    0.252E-01
RMM:   3    -0.696871665029E+03   -0.13055E-02   -0.97930E-04 13045   0.516E-02    0.487E-01
RMM:   4    -0.696870180802E+03    0.14842E-02   -0.30281E-04 10294   0.327E-02    0.182E-01
RMM:   5    -0.696870245114E+03   -0.64312E-04   -0.12761E-04  8658   0.222E-02    0.162E-01
RMM:   6    -0.696870104775E+03    0.14034E-03   -0.64782E-05  8261   0.158E-02    0.969E-02
RMM:   7    -0.696870060074E+03    0.44701E-04   -0.30467E-05  7789   0.109E-02    0.469E-02
RMM:   8    -0.696870062668E+03   -0.25940E-05   -0.16177E-05  7219   0.764E-03
  23 F= -.69687006E+03 E0= -.69630723E+03  d E =-.152957E-01  mag=     3.8248
 trial-energy change:   -0.015296  1 .order   -0.014414   -0.019428   -0.009399
 step:   0.0696(harm=  0.0888)  dis= 0.00461  next Energy=  -696.872631 (dE=-0.179E-01)
 bond charge predicted
       N       E                     dE             d eps       ncg     rms          rms(c)
DAV:   1    -0.696872404977E+03   -0.23449E-02   -0.78810E-02 15312   0.380E-01    0.905E-02
RMM:   2    -0.696872544260E+03   -0.13928E-03   -0.17028E-03 12958   0.620E-02    0.108E-01
RMM:   3    -0.696872570836E+03   -0.26577E-04   -0.24723E-04  9350   0.269E-02    0.103E-01
RMM:   4    -0.696872765916E+03   -0.19508E-03   -0.85054E-05  8233   0.179E-02    0.207E-01
RMM:   5    -0.696872517570E+03    0.24835E-03   -0.31010E-05  7932   0.113E-02    0.698E-02
RMM:   6    -0.696872513404E+03    0.41661E-05   -0.18875E-05  7187   0.833E-03    0.564E-02
RMM:   7    -0.696872501133E+03    0.12271E-04   -0.92430E-06  6799   0.643E-03    0.293E-02
RMM:   8    -0.696872498721E+03    0.24121E-05   -0.41932E-06  5716   0.430E-03
  24 F= -.69687250E+03 E0= -.69630967E+03  d E =-.177318E-01  mag=     3.8237
 curvature:  -0.05 expect dE=-0.190E-01 dE for cont linesearch -0.197E-08
 trial: gam= 0.67673 g(F)=  0.391E+00 g(S)=  0.000E+00 ort = 0.153E-03 (trialstep = 0.446E-01)
 search vector abs. value=  0.657E+00
 bond charge predicted
       N       E                     dE             d eps       ncg     rms          rms(c)
DAV:   1    -0.696876530538E+03   -0.40294E-02   -0.30344E-01 15360   0.705E-01    0.184E-01
RMM:   2    -0.696876888355E+03   -0.35782E-03   -0.62092E-03 14165   0.112E-01    0.167E-01
RMM:   3    -0.696877472984E+03   -0.58463E-03   -0.82867E-04 12469   0.475E-02    0.293E-01
RMM:   4    -0.696877511060E+03   -0.38076E-04   -0.30107E-04 10122   0.284E-02    0.318E-01
RMM:   5    -0.696877032106E+03    0.47895E-03   -0.14258E-04  8699   0.230E-02    0.181E-01
RMM:   6    -0.696876939521E+03    0.92585E-04   -0.83340E-05  8260   0.183E-02    0.113E-01
RMM:   7    -0.696876881917E+03    0.57604E-04   -0.36188E-05  8017   0.125E-02    0.465E-02
RMM:   8    -0.696876883361E+03   -0.14440E-05   -0.17037E-05  7184   0.776E-03
  25 F= -.69687688E+03 E0= -.69631412E+03  d E =-.438464E-02  mag=     3.8223
 trial-energy change:   -0.004385  1 .order   -0.003978   -0.017452    0.009495
 step:   0.0298(harm=  0.0289)  dis= 0.00229  next Energy=  -696.878446 (dE=-0.595E-02)
 bond charge predicted
       N       E                     dE             d eps       ncg     rms          rms(c)
DAV:   1    -0.696878435549E+03   -0.15536E-02   -0.33644E-02 15360   0.235E-01    0.648E-02
RMM:   2    -0.696878669859E+03   -0.23431E-03   -0.70969E-04 10720   0.386E-02    0.149E-01
RMM:   3    -0.696878718016E+03   -0.48157E-04   -0.12747E-04  8287   0.199E-02    0.172E-01
RMM:   4    -0.696878585378E+03    0.13264E-03   -0.39037E-05  7950   0.130E-02    0.707E-02
RMM:   5    -0.696878590488E+03   -0.51101E-05   -0.14446E-05  7133   0.813E-03    0.338E-02
RMM:   6    -0.696878622959E+03   -0.32471E-04   -0.10056E-05  6816   0.597E-03    0.432E-02
RMM:   7    -0.696878642456E+03   -0.19497E-04   -0.57846E-06  6401   0.528E-03    0.196E-02
RMM:   8    -0.696878653600E+03   -0.11144E-04   -0.14010E-06  3657   0.319E-03
  26 F= -.69687865E+03 E0= -.69631585E+03  d E =-.615488E-02  mag=     3.8213
 curvature:  -0.02 expect dE=-0.565E-02 dE for cont linesearch -0.197E-08
 trial: gam= 0.22551 g(F)=  0.234E+00 g(S)=  0.000E+00 ort =-0.231E-03 (trialstep = 0.416E-01)
 search vector abs. value=  0.267E+00
 bond charge predicted
       N       E                     dE             d eps       ncg     rms          rms(c)
DAV:   1    -0.696883881813E+03   -0.52394E-02   -0.10487E-01 15344   0.444E-01    0.806E-02
RMM:   2    -0.696884074106E+03   -0.19229E-03   -0.18550E-03 13308   0.683E-02    0.739E-02
RMM:   3    -0.696884295046E+03   -0.22094E-03   -0.27697E-04  9528   0.294E-02    0.177E-01
RMM:   4    -0.696884145698E+03    0.14935E-03   -0.75936E-05  8259   0.177E-02    0.994E-02
RMM:   5    -0.696884124249E+03    0.21450E-04   -0.31501E-05  7729   0.108E-02    0.749E-02
RMM:   6    -0.696884112667E+03    0.11582E-04   -0.15561E-05  6993   0.791E-03    0.454E-02
RMM:   7    -0.696884109770E+03    0.28972E-05   -0.93148E-06  6699   0.602E-03    0.293E-02
RMM:   8    -0.696884115197E+03   -0.54273E-05   -0.53936E-06  6061   0.462E-03
  27 F= -.69688412E+03 E0= -.69632139E+03  d E =-.546160E-02  mag=     3.8205
 trial-energy change:   -0.005462  1 .order   -0.005360   -0.009739   -0.000981
 step:   0.0463(harm=  0.0463)  dis= 0.00338  next Energy=  -696.884068 (dE=-0.541E-02)
 bond charge predicted
       N       E                     dE             d eps       ncg     rms          rms(c)
DAV:   1    -0.696884166135E+03   -0.56365E-04   -0.13177E-03 15072   0.506E-02    0.142E-02
RMM:   2    -0.696884187382E+03   -0.21247E-04   -0.30466E-05  7684   0.897E-03    0.441E-02
RMM:   3    -0.696884179451E+03    0.79319E-05   -0.64780E-06  6703   0.590E-03    0.244E-02
RMM:   4    -0.696884178476E+03    0.97476E-06   -0.41138E-07  2122   0.262E-03    0.152E-02
RMM:   5    -0.696884180521E+03   -0.20455E-05   -0.14524E-07  1797   0.249E-03    0.122E-02
RMM:   6    -0.696884184607E+03   -0.40860E-05   -0.31954E-08  1403   0.245E-03    0.109E-02
RMM:   7    -0.696884188305E+03   -0.36980E-05   -0.84991E-10  1134   0.238E-03    0.764E-03
RMM:   8    -0.696884194532E+03   -0.62268E-05   -0.10967E-08  1048   0.245E-03
  28 F= -.69688419E+03 E0= -.69632147E+03  d E =-.554093E-02  mag=     3.8197
 curvature:  -0.03 expect dE=-0.192E-02 dE for cont linesearch -0.312E-07
 trial: gam= 0.28285 g(F)=  0.724E-01 g(S)=  0.000E+00 ort =-0.561E-03 (trialstep = 0.426E-01)
 search vector abs. value=  0.935E-01
 bond charge predicted
       N       E                     dE             d eps       ncg     rms          rms(c)
DAV:   1    -0.696886395075E+03   -0.22068E-02   -0.27704E-02 15360   0.213E-01    0.489E-02
RMM:   2    -0.696886480050E+03   -0.84975E-04   -0.50826E-04 11034   0.387E-02    0.972E-02
RMM:   3    -0.696886556897E+03   -0.76847E-04   -0.10022E-04  8294   0.184E-02    0.138E-01
RMM:   4    -0.696886443190E+03    0.11371E-03   -0.31607E-05  7770   0.120E-02    0.484E-02
RMM:   5    -0.696886452494E+03   -0.93046E-05   -0.13953E-05  7053   0.679E-03    0.567E-02
RMM:   6    -0.696886433790E+03    0.18705E-04   -0.75654E-06  6667   0.573E-03    0.336E-02
RMM:   7    -0.696886425791E+03    0.79981E-05   -0.50341E-06  6007   0.443E-03    0.155E-02
RMM:   8    -0.696886426754E+03   -0.96286E-06   -0.26715E-06  4544   0.360E-03
  29 F= -.69688643E+03 E0= -.69632370E+03  d E =-.223222E-02  mag=     3.8189
 trial-energy change:   -0.002232  1 .order   -0.002219   -0.003076   -0.001362
 step:   0.0764(harm=  0.0764)  dis= 0.00247  next Energy=  -696.886954 (dE=-0.276E-02)
 bond charge predicted
       N       E                     dE             d eps       ncg     rms          rms(c)
DAV:   1    -0.696886951411E+03   -0.52562E-03   -0.17428E-02 15360   0.169E-01    0.388E-02
RMM:   2    -0.696886991664E+03   -0.40253E-04   -0.32390E-04  9721   0.306E-02    0.570E-02
RMM:   3    -0.696887010291E+03   -0.18627E-04   -0.55588E-05  7946   0.146E-02    0.682E-02
RMM:   4    -0.696887015552E+03   -0.52609E-05   -0.18875E-05  7365   0.855E-03    0.780E-02
RMM:   5    -0.696886985461E+03    0.30091E-04   -0.77276E-06  6531   0.580E-03    0.360E-02
RMM:   6    -0.696886975873E+03    0.95874E-05   -0.42511E-06  5890   0.442E-03    0.225E-02
RMM:   7    -0.696886971989E+03    0.38841E-05   -0.24967E-06  4771   0.367E-03    0.141E-02
RMM:   8    -0.696886972943E+03   -0.95338E-06   -0.99722E-07  3081   0.312E-03
  30 F= -.69688697E+03 E0= -.69632425E+03  d E =-.277841E-02  mag=     3.8179
 curvature:  -0.05 expect dE=-0.381E-02 dE for cont linesearch -0.721E-08
 trial: gam= 1.04986 g(F)=  0.770E-01 g(S)=  0.000E+00 ort = 0.117E-03 (trialstep = 0.256E-01)
 search vector abs. value=  0.180E+00
 bond charge predicted
       N       E                     dE             d eps       ncg     rms          rms(c)
DAV:   1    -0.696888680356E+03   -0.17084E-02   -0.15282E-02 15296   0.139E-01    0.352E-02
RMM:   2    -0.696888711029E+03   -0.30673E-04   -0.24775E-04  9331   0.280E-02    0.486E-02
RMM:   3    -0.696888730992E+03   -0.19963E-04   -0.48069E-05  8031   0.134E-02    0.745E-02
RMM:   4    -0.696888709514E+03    0.21478E-04   -0.14321E-05  7078   0.768E-03    0.494E-02
RMM:   5    -0.696888698349E+03    0.11165E-04   -0.70239E-06  6604   0.534E-03    0.386E-02
RMM:   6    -0.696888686285E+03    0.12064E-04   -0.48530E-06  6198   0.449E-03    0.300E-02
RMM:   7    -0.696888677628E+03    0.86576E-05   -0.30480E-06  5102   0.376E-03    0.157E-02
RMM:   8    -0.696888676651E+03    0.97694E-06   -0.97265E-07  2991   0.312E-03
  31 F= -.69688868E+03 E0= -.69632598E+03  d E =-.170371E-02  mag=     3.8169
 trial-energy change:   -0.001704  1 .order   -0.001722   -0.001973   -0.001470
 step:   0.1003(harm=  0.1003)  dis= 0.00435  next Energy=  -696.890841 (dE=-0.387E-02)
 bond charge predicted
       N       E                     dE             d eps       ncg     rms          rms(c)
DAV:   1    -0.696890398430E+03   -0.17208E-02   -0.13002E-01 15344   0.405E-01    0.100E-01
RMM:   2    -0.696890919133E+03   -0.52070E-03   -0.20955E-03 14023   0.814E-02    0.252E-01
RMM:   3    -0.696890746866E+03    0.17227E-03   -0.48399E-04 11513   0.350E-02    0.178E-01
RMM:   4    -0.696890623465E+03    0.12340E-03   -0.11793E-04  8639   0.212E-02    0.131E-01
RMM:   5    -0.696890567451E+03    0.56014E-04   -0.59128E-05  8232   0.154E-02    0.104E-01
RMM:   6    -0.696890491244E+03    0.76207E-04   -0.45421E-05  8116   0.121E-02    0.716E-02
RMM:   7    -0.696890447759E+03    0.43485E-04   -0.32870E-05  7774   0.100E-02    0.370E-02
RMM:   8    -0.696890444653E+03    0.31058E-05   -0.12634E-05  6912   0.701E-03
  32 F= -.69689044E+03 E0= -.69632778E+03  d E =-.347171E-02  mag=     3.8154
 curvature:  -0.12 expect dE=-0.690E-02 dE for cont linesearch -0.406E-04
 trial: gam= 0.67016 g(F)=  0.589E-01 g(S)=  0.000E+00 ort =-0.791E-02 (trialstep = 0.405E-01)
 search vector abs. value=  0.129E+00
 bond charge predicted
       N       E                     dE             d eps       ncg     rms          rms(c)
DAV:   1    -0.696891873775E+03   -0.14260E-02   -0.28329E-02 15360   0.219E-01    0.502E-02
RMM:   2    -0.696892108704E+03   -0.23493E-03   -0.51658E-04 11455   0.402E-02    0.179E-01
RMM:   3    -0.696891949222E+03    0.15948E-03   -0.10173E-04  8381   0.189E-02    0.674E-02
RMM:   4    -0.696891986578E+03   -0.37356E-04   -0.36654E-05  7897   0.124E-02    0.977E-02
RMM:   5    -0.696891949062E+03    0.37516E-04   -0.14742E-05  7363   0.822E-03    0.393E-02
RMM:   6    -0.696891958685E+03   -0.96234E-05   -0.77288E-06  6608   0.546E-03    0.478E-02
RMM:   7    -0.696891961767E+03   -0.30813E-05   -0.47059E-06  5881   0.453E-03    0.263E-02
RMM:   8    -0.696891970437E+03   -0.86706E-05   -0.26345E-06  4472   0.363E-03
  33 F= -.69689197E+03 E0= -.69632939E+03  d E =-.152578E-02  mag=     3.8141
 trial-energy change:   -0.001526  1 .order   -0.001457   -0.002172   -0.000741
 step:   0.0615(harm=  0.0615)  dis= 0.00128  next Energy=  -696.892093 (dE=-0.165E-02)
 bond charge predicted
       N       E                     dE             d eps       ncg     rms          rms(c)
DAV:   1    -0.696892147337E+03   -0.18557E-03   -0.76239E-03 15328   0.113E-01    0.275E-02
RMM:   2    -0.696892175493E+03   -0.28156E-04   -0.13615E-04  8264   0.207E-02    0.463E-02
RMM:   3    -0.696892185197E+03   -0.97041E-05   -0.24772E-05  7691   0.106E-02    0.520E-02
RMM:   4    -0.696892179600E+03    0.55971E-05   -0.69862E-06  6590   0.531E-03    0.336E-02
RMM:   5    -0.696892185793E+03   -0.61933E-05   -0.38705E-06  6029   0.428E-03    0.378E-02
RMM:   6    -0.696892189826E+03   -0.40334E-05   -0.13179E-06  3948   0.335E-03    0.230E-02
RMM:   7    -0.696892197818E+03   -0.79911E-05   -0.87296E-07  2953   0.307E-03    0.129E-02
RMM:   8    -0.696892205000E+03   -0.71824E-05   -0.45580E-07  2387   0.291E-03
  34 F= -.69689220E+03 E0= -.69632967E+03  d E =-.176035E-02  mag=     3.8130
 curvature:  -0.07 expect dE=-0.288E-02 dE for cont linesearch -0.526E-06
 trial: gam= 0.57817 g(F)=  0.389E-01 g(S)=  0.000E+00 ort =-0.957E-03 (trialstep = 0.447E-01)
 search vector abs. value=  0.810E-01
 bond charge predicted
       N       E                     dE             d eps       ncg     rms          rms(c)
DAV:   1    -0.696893624480E+03   -0.14267E-02   -0.15258E-02 15360   0.156E-01    0.366E-02
RMM:   2    -0.696893731241E+03   -0.10676E-03   -0.26457E-04  9322   0.299E-02    0.118E-01
RMM:   3    -0.696893676731E+03    0.54510E-04   -0.51415E-05  7979   0.147E-02    0.481E-02
RMM:   4    -0.696893708428E+03   -0.31697E-04   -0.18331E-05  7473   0.842E-03    0.854E-02
RMM:   5    -0.696893692896E+03    0.15532E-04   -0.94770E-06  6927   0.650E-03    0.441E-02
RMM:   6    -0.696893703323E+03   -0.10426E-04   -0.52766E-06  6415   0.472E-03    0.393E-02
RMM:   7    -0.696893712387E+03   -0.90640E-05   -0.34023E-06  5391   0.393E-03    0.254E-02
RMM:   8    -0.696893719682E+03   -0.72957E-05   -0.12809E-06  3607   0.326E-03
  35 F= -.69689372E+03 E0= -.69633124E+03  d E =-.151468E-02  mag=     3.8123
 trial-energy change:   -0.001515  1 .order   -0.001432   -0.001712   -0.001152
 step:   0.1366(harm=  0.1366)  dis= 0.00139  next Energy=  -696.894821 (dE=-0.262E-02)
 bond charge predicted
       N       E                     dE             d eps       ncg     rms          rms(c)
DAV:   1    -0.696894706436E+03   -0.99405E-03   -0.64387E-02 15328   0.320E-01    0.751E-02
RMM:   2    -0.696894902786E+03   -0.19635E-03   -0.10679E-03 13775   0.611E-02    0.153E-01
RMM:   3    -0.696894865576E+03    0.37210E-04   -0.24075E-04  9427   0.256E-02    0.982E-02
RMM:   4    -0.696895061377E+03   -0.19580E-03   -0.74585E-05  8343   0.175E-02    0.206E-01
RMM:   5    -0.696894874281E+03    0.18710E-03   -0.38165E-05  8107   0.127E-02    0.109E-01
RMM:   6    -0.696894855756E+03    0.18525E-04   -0.24726E-05  7648   0.955E-03    0.747E-02
RMM:   7    -0.696894846675E+03    0.90813E-05   -0.19111E-05  7207   0.770E-03    0.388E-02
RMM:   8    -0.696894848232E+03   -0.15566E-05   -0.78155E-06  6735   0.580E-03
  36 F= -.69689485E+03 E0= -.69633252E+03  d E =-.264323E-02  mag=     3.8119
 curvature:  -0.14 expect dE=-0.116E-01 dE for cont linesearch -0.594E-05
 trial: gam= 2.14800 g(F)=  0.804E-01 g(S)=  0.000E+00 ort =-0.183E-02 (trialstep = 0.114E-01)
 search vector abs. value=  0.446E+00
 bond charge predicted
       N       E                     dE             d eps       ncg     rms          rms(c)
DAV:   1    -0.696895688464E+03   -0.84179E-03   -0.46640E-03 15488   0.818E-02    0.284E-02
RMM:   2    -0.696895768916E+03   -0.80451E-04   -0.84851E-05  8106   0.170E-02    0.101E-01
RMM:   3    -0.696895751882E+03    0.17034E-04   -0.25364E-05  7845   0.106E-02    0.864E-02
RMM:   4    -0.696895715248E+03    0.36634E-04   -0.69161E-06  6841   0.585E-03    0.298E-02
RMM:   5    -0.696895718052E+03   -0.28042E-05   -0.27919E-06  5196   0.378E-03    0.193E-02
RMM:   6    -0.696895726285E+03   -0.82332E-05   -0.96813E-07  3648   0.322E-03    0.164E-02
RMM:   7    -0.696895730834E+03   -0.45491E-05   -0.22477E-07  2206   0.284E-03    0.109E-02
RMM:   8    -0.696895736133E+03   -0.52988E-05   -0.48685E-07  2372   0.291E-03
  37 F= -.69689574E+03 E0= -.69633343E+03  d E =-.887901E-03  mag=     3.8117
 ZBRENT: can't locate minimum, use default step
 trial-energy change:   -0.000888  1 .order   -0.000839   -0.000876   -0.000802
 step:   0.0458(harm=  0.1361)  dis= 0.00084  next Energy=  -696.900052 (dE=-0.520E-02)
 bond charge predicted
       N       E                     dE             d eps       ncg     rms          rms(c)
DAV:   1    -0.696897970727E+03   -0.22399E-02   -0.42214E-02 15344   0.244E-01    0.642E-02
RMM:   2    -0.696898195401E+03   -0.22467E-03   -0.66434E-04 12895   0.487E-02    0.171E-01
RMM:   3    -0.696898086241E+03    0.10916E-03   -0.14984E-04  8681   0.216E-02    0.114E-01
RMM:   4    -0.696898083814E+03    0.24272E-05   -0.52906E-05  8138   0.154E-02    0.109E-01
RMM:   5    -0.696898036561E+03    0.47253E-04   -0.24422E-05  7766   0.982E-03    0.576E-02
RMM:   6    -0.696898039814E+03   -0.32526E-05   -0.22007E-05  7643   0.861E-03    0.612E-02
RMM:   7    -0.696898023609E+03    0.16205E-04   -0.11705E-05  6984   0.689E-03    0.317E-02
RMM:   8    -0.696898023197E+03    0.41172E-06   -0.52591E-06  5808   0.449E-03
  38 F= -.69689802E+03 E0= -.69633583E+03  d E =-.317497E-02  mag=     3.8116
 curvature:  -0.19 expect dE=-0.890E-02 dE for cont linesearch -0.175E-02
 ZBRENT: increasing intervall
 opt :   0.1145  next Energy=  -696.902039 (dE=-0.719E-02)
 bond charge predicted
       N       E                     dE             d eps       ncg     rms          rms(c)
DAV:   1    -0.696901874029E+03   -0.38504E-02   -0.16825E-01 15360   0.488E-01    0.122E-01
RMM:   2    -0.696902903433E+03   -0.10294E-02   -0.26380E-03 14627   0.973E-02    0.368E-01
RMM:   3    -0.696902228768E+03    0.67467E-03   -0.66461E-04 13245   0.419E-02    0.189E-01
RMM:   4    -0.696902331477E+03   -0.10271E-03   -0.16186E-04  9044   0.238E-02    0.210E-01
RMM:   5    -0.696902133186E+03    0.19829E-03   -0.93289E-05  8596   0.196E-02    0.128E-01
RMM:   6    -0.696902116026E+03    0.17159E-04   -0.88539E-05  8431   0.165E-02    0.109E-01
RMM:   7    -0.696902059914E+03    0.56112E-04   -0.55875E-05  8210   0.140E-02    0.651E-02
RMM:   8    -0.696902051366E+03    0.85477E-05   -0.23098E-05  7244   0.926E-03
  39 F= -.69690205E+03 E0= -.69634005E+03  d E =-.720313E-02  mag=     3.8118
 curvature:  -0.43 expect dE=-0.273E-01 dE for cont linesearch -0.160E-02
 ZBRENT: increasing intervall
 opt :   0.2519  next Energy=  -696.904369 (dE=-0.952E-02)
 bond charge predicted
       N       E                     dE             d eps       ncg     rms          rms(c)
DAV:   1    -0.696903516467E+03   -0.14566E-02   -0.67292E-01 15360   0.977E-01    0.256E-01
RMM:   2    -0.696908804604E+03   -0.52881E-02   -0.10615E-02 14814   0.195E-01    0.836E-01
RMM:   3    -0.696904774832E+03    0.40298E-02   -0.27198E-03 16219   0.843E-02    0.334E-01
RMM:   4    -0.696905360722E+03   -0.58589E-03   -0.69716E-04 13415   0.461E-02    0.427E-01
RMM:   5    -0.696904536481E+03    0.82424E-03   -0.37926E-04 11608   0.355E-02    0.241E-01
RMM:   6    -0.696904496684E+03    0.39796E-04   -0.36644E-04 11390   0.328E-02    0.212E-01
RMM:   7    -0.696904280124E+03    0.21656E-03   -0.20937E-04  9652   0.252E-02    0.128E-01
RMM:   8    -0.696904230695E+03    0.49430E-04   -0.79882E-05  8594   0.174E-02
  40 F= -.69690423E+03 E0= -.69634260E+03  d E =-.938246E-02  mag=     3.8124
 curvature:  -0.63 expect dE=-0.207E+00 dE for cont linesearch -0.118E-03
 trial: gam= 4.96820 g(F)=  0.330E+00 g(S)=  0.000E+00 ort =-0.914E-02 (trialstep = 0.236E-02)
 search vector abs. value=  0.113E+02
 bond charge predicted
       N       E                     dE             d eps       ncg     rms          rms(c)
DAV:   1    -0.696904840854E+03   -0.56073E-03   -0.40799E-03 15536   0.799E-02    0.465E-02
RMM:   2    -0.696905241363E+03   -0.40051E-03   -0.14937E-04  8869   0.215E-02    0.245E-01
RMM:   3    -0.696904933873E+03    0.30749E-03   -0.60827E-05  8134   0.172E-02    0.117E-01
RMM:   4    -0.696904888352E+03    0.45521E-04   -0.20349E-05  7910   0.889E-03    0.613E-02
RMM:   5    -0.696904891818E+03   -0.34663E-05   -0.76876E-06  6806   0.591E-03    0.309E-02
RMM:   6    -0.696904900190E+03   -0.83714E-05   -0.28438E-06  5091   0.385E-03    0.188E-02
RMM:   7    -0.696904912299E+03   -0.12109E-04   -0.97691E-07  3459   0.312E-03    0.951E-03
RMM:   8    -0.696904919939E+03   -0.76403E-05   -0.27471E-07  2507   0.283E-03
  41 F= -.69690492E+03 E0= -.69634323E+03  d E =-.689244E-03  mag=     3.8130
 ZBRENT: can't locate minimum, use default step
 trial-energy change:   -0.000689  1 .order   -0.000617   -0.000672   -0.000562
 step:   0.0094(harm=  0.0144)  dis= 0.00079  next Energy=  -696.906282 (dE=-0.205E-02)
 bond charge predicted
       N       E                     dE             d eps       ncg     rms          rms(c)
DAV:   1    -0.696906106309E+03   -0.11940E-02   -0.36480E-02 15360   0.222E-01    0.632E-02
RMM:   2    -0.696906412666E+03   -0.30636E-03   -0.53613E-04 12380   0.444E-02    0.201E-01
RMM:   3    -0.696906171197E+03    0.24147E-03   -0.12184E-04  8523   0.201E-02    0.792E-02
RMM:   4    -0.696906201221E+03   -0.30023E-04   -0.43433E-05  8087   0.139E-02    0.952E-02
RMM:   5    -0.696906170859E+03    0.30362E-04   -0.26687E-05  7526   0.961E-03    0.633E-02
RMM:   6    -0.696906163230E+03    0.76290E-05   -0.21742E-05  7565   0.874E-03    0.472E-02
RMM:   7    -0.696906157229E+03    0.60005E-05   -0.10055E-05  6889   0.626E-03    0.248E-02
RMM:   8    -0.696906158583E+03   -0.13541E-05   -0.35086E-06  5322   0.403E-03
  42 F= -.69690616E+03 E0= -.69634455E+03  d E =-.192789E-02  mag=     3.8137
 curvature:  -0.24 expect dE=-0.746E-01 dE for cont linesearch -0.314E-03
 ZBRENT: increasing intervall
 opt :   0.0236  next Energy=  -696.906252 (dE=-0.202E-02)
 bond charge predicted
       N       E                     dE             d eps       ncg     rms          rms(c)
DAV:   1    -0.696908066745E+03   -0.19095E-02   -0.14583E-01 15360   0.444E-01    0.129E-01
RMM:   2    -0.696908775303E+03   -0.70856E-03   -0.21048E-03 14515   0.884E-02    0.303E-01
RMM:   3    -0.696908461851E+03    0.31345E-03   -0.53372E-04 12592   0.379E-02    0.210E-01
RMM:   4    -0.696908559595E+03   -0.97744E-04   -0.16474E-04  9056   0.237E-02    0.236E-01
RMM:   5    -0.696908308300E+03    0.25129E-03   -0.10866E-04  8576   0.207E-02    0.137E-01
RMM:   6    -0.696908269110E+03    0.39191E-04   -0.81715E-05  8355   0.168E-02    0.102E-01
RMM:   7    -0.696908221425E+03    0.47685E-04   -0.47576E-05  8115   0.130E-02    0.586E-02
RMM:   8    -0.696908213230E+03    0.81942E-05   -0.19082E-05  7077   0.855E-03
  43 F= -.69690821E+03 E0= -.69634676E+03  d E =-.398254E-02  mag=     3.8144
 curvature:  -0.07 expect dE=-0.246E-01 dE for cont linesearch -0.278E-03
 ZBRENT: increasing intervall
 opt :   0.0519  next Energy=  -696.916672 (dE=-0.124E-01)
 bond charge predicted
       N       E                     dE             d eps       ncg     rms          rms(c)
DAV:   1    -0.696912369394E+03   -0.41480E-02   -0.58435E-01 15280   0.890E-01    0.260E-01
RMM:   2    -0.696917237099E+03   -0.48677E-02   -0.85387E-03 14790   0.177E-01    0.814E-01
RMM:   3    -0.696913401795E+03    0.38353E-02   -0.22292E-03 15738   0.768E-02    0.327E-01
RMM:   4    -0.696913941822E+03   -0.54003E-03   -0.61433E-04 13238   0.435E-02    0.402E-01
RMM:   5    -0.696913299658E+03    0.64216E-03   -0.40183E-04 11834   0.357E-02    0.255E-01
RMM:   6    -0.696913187541E+03    0.11212E-03   -0.35549E-04 11310   0.331E-02    0.202E-01
RMM:   7    -0.696912994135E+03    0.19341E-03   -0.18225E-04  9319   0.241E-02    0.117E-01
RMM:   8    -0.696912954140E+03    0.39995E-04   -0.70937E-05  8547   0.165E-02
  44 F= -.69691295E+03 E0= -.69635178E+03  d E =-.872345E-02  mag=     3.8154
 curvature:  -2.15 expect dE=-0.932E+00 dE for cont linesearch -0.707E-02
 ZBRENT: increasing intervall
 opt :   0.1086  next Energy=  -696.922836 (dE=-0.186E-01)
 bond charge predicted
       N       E                     dE             d eps       ncg     rms          rms(c)
DAV:   1    -0.696901344314E+03    0.11650E-01   -0.23236E+00 15200   0.177E+00    0.552E-01
RMM:   2    -0.696914802057E+03   -0.13458E-01   -0.33384E-02 14840   0.354E-01    0.133E+00
RMM:   3    -0.696909141420E+03    0.56606E-02   -0.89571E-03 16231   0.154E-01    0.970E-01
RMM:   4    -0.696907105156E+03    0.20363E-02   -0.27356E-03 14658   0.919E-02    0.754E-01
RMM:   5    -0.696905257816E+03    0.18473E-02   -0.15940E-03 14128   0.722E-02    0.490E-01
RMM:   6    -0.696904887834E+03    0.36998E-03   -0.13363E-03 14220   0.625E-02    0.410E-01
RMM:   7    -0.696904063185E+03    0.82465E-03   -0.64592E-04 13203   0.442E-02    0.226E-01
RMM:   8    -0.696903911782E+03    0.15140E-03   -0.27297E-04 10819   0.285E-02    0.129E-01
RMM:   9    -0.696903886617E+03    0.25165E-04   -0.10134E-04  8832   0.201E-02
  45 F= -.69690389E+03 E0= -.69634299E+03  d E =0.344077E-03  mag=     3.8173
 curvature:  -3.00 expect dE=-0.217E+01 dE for cont linesearch -0.659E-01
 ZBRENT: bracketing found
 ZBRENT: interpolating
 opt :   0.0678  next Energy=  -696.914476 (dE=-0.102E-01)
 bond charge predicted
       N       E                     dE             d eps       ncg     rms          rms(c)
DAV:   1    -0.696913123877E+03   -0.92121E-02   -0.12092E+00 15312   0.128E+00    0.452E-01
RMM:   2    -0.696919084088E+03   -0.59602E-02   -0.17734E-02 14816   0.258E-01    0.920E-01
RMM:   3    -0.696922994586E+03   -0.39105E-02   -0.45118E-03 15116   0.119E-01    0.118E+00
RMM:   4    -0.696915694289E+03    0.73003E-02   -0.18417E-03 14180   0.778E-02    0.530E-01
RMM:   5    -0.696915452300E+03    0.24199E-03   -0.10621E-03 13875   0.585E-02    0.434E-01
RMM:   6    -0.696915169221E+03    0.28308E-03   -0.65260E-04 13449   0.465E-02    0.340E-01
RMM:   7    -0.696914597796E+03    0.57142E-03   -0.31779E-04 10936   0.309E-02    0.187E-01
RMM:   8    -0.696914523061E+03    0.74736E-04   -0.16912E-04  9401   0.223E-02
  46 F= -.69691452E+03 E0= -.69635334E+03  d E =-.102924E-01  mag=     3.8183
 curvature:  -0.07 expect dE=-0.335E-01 dE for cont linesearch -0.108E-04
 trial: gam= 0.55921 g(F)=  0.483E+00 g(S)=  0.000E+00 ort =-0.418E-01 (trialstep = 0.154E-01)
 search vector abs. value=  0.395E+01
 bond charge predicted
       N       E                     dE             d eps       ncg     rms          rms(c)
DAV:   1    -0.696920788825E+03   -0.61910E-02   -0.47030E-02 15552   0.286E-01    0.932E-02
RMM:   2    -0.696922013409E+03   -0.12246E-02   -0.87203E-04 14083   0.566E-02    0.425E-01
RMM:   3    -0.696921126171E+03    0.88724E-03   -0.24638E-04  9827   0.293E-02    0.231E-01
RMM:   4    -0.696920875230E+03    0.25094E-03   -0.77871E-05  8070   0.199E-02    0.572E-02
RMM:   5    -0.696920886633E+03   -0.11404E-04   -0.35925E-05  7878   0.118E-02    0.567E-02
RMM:   6    -0.696920900725E+03   -0.14092E-04   -0.24555E-05  7592   0.949E-03    0.736E-02
RMM:   7    -0.696920903985E+03   -0.32602E-05   -0.13793E-05  6945   0.718E-03    0.691E-02
RMM:   8    -0.696920886981E+03    0.17004E-04   -0.92880E-06  6846   0.555E-03
  47 F= -.69692089E+03 E0= -.69635980E+03  d E =-.636392E-02  mag=     3.8191
 ZBRENT: can't locate minimum, use default step
 trial-energy change:   -0.006364  1 .order   -0.006451   -0.007090   -0.005812
 step:   0.0618(harm=  0.0856)  dis= 0.00384  next Energy=  -696.934186 (dE=-0.197E-01)
 bond charge predicted
       N       E                     dE             d eps       ncg     rms          rms(c)
DAV:   1    -0.696926766613E+03   -0.58626E-02   -0.42166E-01 15232   0.847E-01    0.221E-01
RMM:   2    -0.696927890160E+03   -0.11235E-02   -0.61050E-03 14823   0.151E-01    0.362E-01
RMM:   3    -0.696928172915E+03   -0.28275E-03   -0.13764E-03 14858   0.656E-02    0.366E-01
RMM:   4    -0.696928559631E+03   -0.38672E-03   -0.51906E-04 12975   0.374E-02    0.440E-01
RMM:   5    -0.696927684098E+03    0.87553E-03   -0.28129E-04 10459   0.314E-02    0.225E-01
RMM:   6    -0.696927566724E+03    0.11737E-03   -0.18017E-04  9109   0.275E-02    0.177E-01
RMM:   7    -0.696927459138E+03    0.10759E-03   -0.84074E-05  8541   0.177E-02    0.117E-01
RMM:   8    -0.696927397011E+03    0.62127E-04   -0.43353E-05  8091   0.123E-02
  48 F= -.69692740E+03 E0= -.69636648E+03  d E =-.128740E-01  mag=     3.8202
 curvature:  -0.33 expect dE=-0.113E+00 dE for cont linesearch -0.488E-03
 ZBRENT: interpolating
 opt :   0.0539  next Energy=  -696.927700 (dE=-0.132E-01)
 bond charge predicted
       N       E                     dE             d eps       ncg     rms          rms(c)
DAV:   1    -0.696927738951E+03   -0.27981E-03   -0.12245E-02 15600   0.145E-01    0.489E-02
RMM:   2    -0.696927939176E+03   -0.20022E-03   -0.23087E-04  8956   0.289E-02    0.170E-01
RMM:   3    -0.696927860633E+03    0.78543E-04   -0.60756E-05  7932   0.175E-02    0.128E-01
RMM:   4    -0.696927773012E+03    0.87621E-04   -0.18839E-05  7861   0.902E-03    0.387E-02
RMM:   5    -0.696927788061E+03   -0.15049E-04   -0.96846E-06  6965   0.630E-03    0.344E-02
RMM:   6    -0.696927798271E+03   -0.10210E-04   -0.61365E-06  6706   0.511E-03    0.337E-02
RMM:   7    -0.696927805964E+03   -0.76931E-05   -0.36044E-06  5725   0.408E-03    0.194E-02
RMM:   8    -0.696927815882E+03   -0.99178E-05   -0.18007E-06  3941   0.332E-03
  49 F= -.69692782E+03 E0= -.69636685E+03  d E =-.132928E-01  mag=     3.8209
 curvature:  -0.20 expect dE=-0.574E-01 dE for cont linesearch -0.200E-04
 trial: gam= 0.28577 g(F)=  0.284E+00 g(S)=  0.000E+00 ort =-0.198E-01 (trialstep = 0.231E-01)
 search vector abs. value=  0.596E+00
 bond charge predicted
       N       E                     dE             d eps       ncg     rms          rms(c)
DAV:   1    -0.696933956452E+03   -0.61505E-02   -0.22281E-02 15392   0.217E-01    0.405E-02
RMM:   2    -0.696934078205E+03   -0.12175E-03   -0.42578E-04 10882   0.396E-02    0.120E-01
RMM:   3    -0.696934034715E+03    0.43490E-04   -0.79251E-05  8040   0.185E-02    0.744E-02
RMM:   4    -0.696934031435E+03    0.32801E-05   -0.25559E-05  7917   0.111E-02    0.591E-02
RMM:   5    -0.696934020116E+03    0.11319E-04   -0.94725E-06  7325   0.667E-03    0.338E-02
RMM:   6    -0.696934026136E+03   -0.60205E-05   -0.50525E-06  6594   0.461E-03    0.304E-02
RMM:   7    -0.696934030501E+03   -0.43648E-05   -0.29760E-06  5530   0.390E-03    0.139E-02
RMM:   8    -0.696934037206E+03   -0.67047E-05   -0.14243E-06  3741   0.319E-03
  50 F= -.69693404E+03 E0= -.69637304E+03  d E =-.622132E-02  mag=     3.8214
 ZBRENT: can't locate minimum, use default step
 trial-energy change:   -0.006221  1 .order   -0.006148   -0.006444   -0.005851
 step:   0.0925(harm=  0.2514)  dis= 0.00343  next Energy=  -696.962834 (dE=-0.350E-01)
 bond charge predicted
       N       E                     dE             d eps       ncg     rms          rms(c)
DAV:   1    -0.696946211492E+03   -0.12181E-01   -0.20025E-01 15360   0.649E-01    0.118E-01
RMM:   2    -0.696946667090E+03   -0.45560E-03   -0.37181E-03 14828   0.118E-01    0.179E-01
RMM:   3    -0.696947062160E+03   -0.39507E-03   -0.75195E-04 13852   0.485E-02    0.269E-01
RMM:   4    -0.696946871793E+03    0.19037E-03   -0.19999E-04  9152   0.267E-02    0.221E-01
RMM:   5    -0.696946647706E+03    0.22409E-03   -0.90336E-05  8555   0.214E-02    0.113E-01
RMM:   6    -0.696946634139E+03    0.13567E-04   -0.41614E-05  8356   0.126E-02    0.830E-02
RMM:   7    -0.696946611861E+03    0.22278E-04   -0.29720E-05  8108   0.104E-02    0.451E-02
RMM:   8    -0.696946615807E+03   -0.39456E-05   -0.18369E-05  7338   0.785E-03
  51 F= -.69694662E+03 E0= -.69638551E+03  d E =-.187999E-01  mag=     3.8216
 curvature:  -0.14 expect dE=-0.384E-01 dE for cont linesearch -0.222E-02
 ZBRENT: increasing intervall
 opt :   0.2313  next Energy=  -696.938644 (dE=-0.108E-01)
 bond charge predicted
       N       E                     dE             d eps       ncg     rms          rms(c)
DAV:   1    -0.696944655524E+03    0.19563E-02   -0.80196E-01 15312   0.130E+00    0.245E-01
RMM:   2    -0.696947418115E+03   -0.27626E-02   -0.14996E-02 14848   0.237E-01    0.522E-01
RMM:   3    -0.696947981148E+03   -0.56303E-03   -0.32266E-03 16294   0.984E-02    0.536E-01
RMM:   4    -0.696946812275E+03    0.11689E-02   -0.80184E-04 13969   0.541E-02    0.341E-01
RMM:   5    -0.696946397176E+03    0.41510E-03   -0.34486E-04 11622   0.369E-02    0.226E-01
RMM:   6    -0.696946272383E+03    0.12479E-03   -0.18159E-04  9225   0.257E-02    0.161E-01
RMM:   7    -0.696946180360E+03    0.92022E-04   -0.12578E-04  8876   0.210E-02    0.935E-02
RMM:   8    -0.696946180557E+03   -0.19636E-06   -0.69018E-05  8579   0.153E-02
  52 F= -.69694618E+03 E0= -.69638486E+03  d E =-.183647E-01  mag=     3.8214
 curvature:   0.50 expect dE= 0.599E+00 dE for cont linesearch  0.703E-02
 ZBRENT: bracketing found
 ZBRENT: interpolating
 opt :   0.1641  next Energy=  -696.949267 (dE=-0.215E-01)
 bond charge predicted
       N       E                     dE             d eps       ncg     rms          rms(c)
DAV:   1    -0.696949758926E+03   -0.35786E-02   -0.18863E-01 15376   0.631E-01    0.125E-01
RMM:   2    -0.696950489244E+03   -0.73032E-03   -0.35702E-03 14815   0.116E-01    0.261E-01
RMM:   3    -0.696950864589E+03   -0.37535E-03   -0.74460E-04 14033   0.495E-02    0.351E-01
RMM:   4    -0.696950139937E+03    0.72465E-03   -0.20219E-04  9059   0.275E-02    0.127E-01
RMM:   5    -0.696950153595E+03   -0.13657E-04   -0.85543E-05  8376   0.208E-02    0.923E-02
RMM:   6    -0.696950190427E+03   -0.36833E-04   -0.53282E-05  8120   0.135E-02    0.108E-01
RMM:   7    -0.696950164404E+03    0.26023E-04   -0.38229E-05  7960   0.119E-02    0.661E-02
RMM:   8    -0.696950163267E+03    0.11371E-05   -0.21038E-05  7423   0.823E-03
  53 F= -.69695016E+03 E0= -.69638902E+03  d E =-.223474E-01  mag=     3.8209
 curvature:  -0.22 expect dE=-0.144E+00 dE for cont linesearch -0.285E-06
 trial: gam= 2.33853 g(F)=  0.660E+00 g(S)=  0.000E+00 ort =-0.883E-03 (trialstep = 0.781E-02)
 search vector abs. value=  0.391E+01
 bond charge predicted
       N       E                     dE             d eps       ncg     rms          rms(c)
DAV:   1    -0.696954979916E+03   -0.48155E-02   -0.17064E-02 15536   0.174E-01    0.427E-02
RMM:   2    -0.696955121512E+03   -0.14160E-03   -0.32164E-04  9916   0.352E-02    0.141E-01
RMM:   3    -0.696955025998E+03    0.95514E-04   -0.67524E-05  7969   0.173E-02    0.771E-02
RMM:   4    -0.696955015437E+03    0.10561E-04   -0.25708E-05  7878   0.107E-02    0.660E-02
RMM:   5    -0.696954990008E+03    0.25429E-04   -0.90878E-06  7056   0.685E-03    0.222E-02
RMM:   6    -0.696954984831E+03    0.51771E-05   -0.74272E-06  7039   0.489E-03    0.353E-02
RMM:   7    -0.696954973642E+03    0.11189E-04   -0.41306E-06  6123   0.439E-03    0.152E-02
RMM:   8    -0.696954971022E+03    0.26195E-05   -0.12909E-06  3505   0.313E-03
  54 F= -.69695497E+03 E0= -.69639374E+03  d E =-.480776E-02  mag=     3.8204
 ZBRENT: can't locate minimum, use default step
 trial-energy change:   -0.004808  1 .order   -0.004845   -0.005143   -0.004547
 step:   0.0312(harm=  0.0674)  dis= 0.00403  next Energy=  -696.972349 (dE=-0.222E-01)
 bond charge predicted
       N       E                     dE             d eps       ncg     rms          rms(c)
DAV:   1    -0.696966752298E+03   -0.11779E-01   -0.15266E-01 15328   0.518E-01    0.127E-01
RMM:   2    -0.696967037056E+03   -0.28476E-03   -0.26472E-03 14733   0.100E-01    0.134E-01
RMM:   3    -0.696967376784E+03   -0.33973E-03   -0.55283E-04 12788   0.415E-02    0.255E-01
RMM:   4    -0.696967382280E+03   -0.54959E-05   -0.18711E-04  9091   0.253E-02    0.278E-01
RMM:   5    -0.696966947665E+03    0.43461E-03   -0.84937E-05  8509   0.202E-02    0.911E-02
RMM:   6    -0.696966933826E+03    0.13839E-04   -0.49501E-05  8255   0.129E-02    0.825E-02
RMM:   7    -0.696966885458E+03    0.48368E-04   -0.32719E-05  7977   0.110E-02    0.440E-02
RMM:   8    -0.696966878502E+03    0.69556E-05   -0.14567E-05  6931   0.726E-03
  55 F= -.69696688E+03 E0= -.69640539E+03  d E =-.167152E-01  mag=     3.8193
 curvature:  -0.13 expect dE=-0.422E-01 dE for cont linesearch -0.790E-02
 ZBRENT: increasing intervall
 opt :   0.0781  next Energy=  -696.985920 (dE=-0.358E-01)
 bond charge predicted
       N       E                     dE             d eps       ncg     rms          rms(c)
DAV:   1    -0.696984666406E+03   -0.17781E-01   -0.61105E-01 15328   0.104E+00    0.227E-01
RMM:   2    -0.696986077011E+03   -0.14106E-02   -0.10606E-02 14829   0.200E-01    0.333E-01
RMM:   3    -0.696987506244E+03   -0.14292E-02   -0.23904E-03 16256   0.827E-02    0.543E-01
RMM:   4    -0.696986599252E+03    0.90699E-03   -0.69567E-04 13691   0.466E-02    0.439E-01
RMM:   5    -0.696985608856E+03    0.99040E-03   -0.27679E-04 10529   0.335E-02    0.183E-01
RMM:   6    -0.696985572009E+03    0.36847E-04   -0.21108E-04  9534   0.263E-02    0.177E-01
RMM:   7    -0.696985376716E+03    0.19529E-03   -0.14737E-04  8990   0.222E-02    0.981E-02
RMM:   8    -0.696985347749E+03    0.28968E-04   -0.60873E-05  8515   0.149E-02
  56 F= -.69698535E+03 E0= -.69642336E+03  d E =-.351845E-01  mag=     3.8174
 curvature:  -0.31 expect dE=-0.698E-01 dE for cont linesearch -0.953E-02
 ZBRENT: increasing intervall
 opt :   0.1719  next Energy=  -697.004571 (dE=-0.544E-01)
 bond charge predicted
       N       E                     dE             d eps       ncg     rms          rms(c)
DAV:   1    -0.696979894706E+03    0.54820E-02   -0.24438E+00 15104   0.207E+00    0.411E-01
RMM:   2    -0.696986173800E+03   -0.62791E-02   -0.43046E-02 14848   0.406E-01    0.734E-01
RMM:   3    -0.696989258076E+03   -0.30843E-02   -0.10168E-02 16781   0.166E-01    0.913E-01
RMM:   4    -0.696986345396E+03    0.29127E-02   -0.23850E-03 14935   0.868E-02    0.710E-01
RMM:   5    -0.696984136158E+03    0.22092E-02   -0.95737E-04 13917   0.609E-02    0.391E-01
RMM:   6    -0.696983902310E+03    0.23385E-03   -0.80447E-04 13777   0.475E-02    0.344E-01
RMM:   7    -0.696983214872E+03    0.68744E-03   -0.68138E-04 13508   0.427E-02    0.192E-01
RMM:   8    -0.696983130267E+03    0.84605E-04   -0.28293E-04 10945   0.289E-02
  57 F= -.69698313E+03 E0= -.69642001E+03  d E =-.329670E-01  mag=     3.8136
 curvature:  -0.62 expect dE=-0.814E+00 dE for cont linesearch -0.194E-01
 ZBRENT: bracketing found
 ZBRENT: interpolating
 opt :   0.1249  next Energy=  -696.993526 (dE=-0.434E-01)
 bond charge predicted
       N       E                     dE             d eps       ncg     rms          rms(c)
DAV:   1    -0.696992868810E+03   -0.96539E-02   -0.61649E-01 15360   0.104E+00    0.207E-01
RMM:   2    -0.696994804921E+03   -0.19361E-02   -0.10629E-02 14830   0.204E-01    0.392E-01
RMM:   3    -0.696995663142E+03   -0.85822E-03   -0.24461E-03 16049   0.840E-02    0.504E-01
RMM:   4    -0.696994310685E+03    0.13525E-02   -0.56356E-04 13295   0.423E-02    0.219E-01
RMM:   5    -0.696994286859E+03    0.23826E-04   -0.23849E-04  9662   0.297E-02    0.157E-01
RMM:   6    -0.696994436828E+03   -0.14997E-03   -0.22044E-04  9571   0.265E-02    0.173E-01
RMM:   7    -0.696994439043E+03   -0.22152E-05   -0.18170E-04  9176   0.231E-02    0.974E-02
RMM:   8    -0.696994498661E+03   -0.59618E-04   -0.89722E-05  8522   0.170E-02
  58 F= -.69699450E+03 E0= -.69643221E+03  d E =-.443354E-01  mag=     3.8113
 curvature:  -0.26 expect dE=-0.149E+00 dE for cont linesearch -0.132E-05
[...]
DAV:   1    -0.697088696599E+03   -0.16432E-03   -0.17962E-03 15088   0.599E-02    0.144E-02
RMM:   2    -0.697088707904E+03   -0.11304E-04   -0.35570E-05  7843   0.122E-02    0.406E-02
RMM:   3    -0.697088699172E+03    0.87314E-05   -0.67898E-06  7517   0.605E-03    0.188E-02
RMM:   4    -0.697088701584E+03   -0.24120E-05   -0.85348E-07  3333   0.310E-03    0.201E-02
RMM:   5    -0.697088701376E+03    0.20839E-06   -0.22549E-07  2313   0.292E-03    0.183E-02
RMM:   6    -0.697088700836E+03    0.54030E-06   -0.15240E-07  2035   0.287E-03    0.153E-02
RMM:   7    -0.697088700689E+03    0.14627E-06   -0.83022E-08  1506   0.288E-03    0.125E-02
RMM:   8    -0.697088700195E+03    0.49420E-06   -0.58083E-08  1318   0.285E-03
  92 F= -.69708870E+03 E0= -.69652711E+03  d E =-.168527E-03  mag=     3.8216
 trial-energy change:   -0.000169  1 .order   -0.000167   -0.000208   -0.000125
 step:   0.0790(harm=  0.0790)  dis= 0.00060  next Energy=  -697.088791 (dE=-0.259E-03)
 bond charge predicted
       N       E                     dE             d eps       ncg     rms          rms(c)
DAV:   1    -0.697088788989E+03   -0.88300E-04   -0.39970E-03 15456   0.890E-02    0.202E-02
RMM:   2    -0.697088799182E+03   -0.10193E-04   -0.77267E-05  7844   0.179E-02    0.420E-02
RMM:   3    -0.697088795749E+03    0.34329E-05   -0.13773E-05  7665   0.854E-03    0.205E-02
RMM:   4    -0.697088806814E+03   -0.11064E-04   -0.42770E-06  6552   0.432E-03    0.460E-02
RMM:   5    -0.697088795380E+03    0.11433E-04   -0.26595E-06  5702   0.390E-03    0.253E-02
RMM:   6    -0.697088797661E+03   -0.22806E-05   -0.99097E-07  3631   0.320E-03    0.217E-02
RMM:   7    -0.697088794637E+03    0.30242E-05   -0.45342E-07  2431   0.297E-03    0.108E-02
RMM:   8    -0.697088795971E+03   -0.13340E-05   -0.71672E-08  1518   0.280E-03
  93 F= -.69708880E+03 E0= -.69652723E+03  d E =-.264303E-03  mag=     3.8216
 curvature:  -0.06 expect dE=-0.287E-03 dE for cont linesearch -0.541E-07
 trial: gam= 0.69619 g(F)=  0.468E-02 g(S)=  0.000E+00 ort = 0.948E-04 (trialstep = 0.412E-01)
 search vector abs. value=  0.976E-02
 bond charge predicted
       N       E                     dE             d eps       ncg     rms          rms(c)
DAV:   1    -0.697088950939E+03   -0.15630E-03   -0.29790E-03 15312   0.738E-02    0.182E-02
RMM:   2    -0.697088970268E+03   -0.19329E-04   -0.54902E-05  7825   0.150E-02    0.543E-02
RMM:   3    -0.697088962828E+03    0.74395E-05   -0.11759E-05  7773   0.770E-03    0.391E-02
RMM:   4    -0.697088958594E+03    0.42345E-05   -0.37930E-06  6326   0.427E-03    0.261E-02
RMM:   5    -0.697088957570E+03    0.10233E-05   -0.80399E-07  3605   0.318E-03    0.151E-02
RMM:   6    -0.697088958116E+03   -0.54584E-06   -0.23765E-07  2097   0.283E-03    0.121E-02
RMM:   7    -0.697088958417E+03   -0.30107E-06   -0.38265E-07  2146   0.275E-03    0.104E-02
RMM:   8    -0.697088958747E+03   -0.32930E-06   -0.18503E-07  1536   0.261E-03
  94 F= -.69708896E+03 E0= -.69652739E+03  d E =-.162776E-03  mag=     3.8215
 trial-energy change:   -0.000163  1 .order   -0.000157   -0.000195   -0.000120
 step:   0.1061(harm=  0.1061)  dis= 0.00069  next Energy=  -697.089048 (dE=-0.252E-03)
 bond charge predicted
       N       E                     dE             d eps       ncg     rms          rms(c)
DAV:   1    -0.697089046659E+03   -0.88242E-04   -0.73755E-03 15504   0.116E-01    0.242E-02
RMM:   2    -0.697089081741E+03   -0.35082E-04   -0.13090E-04  8100   0.231E-02    0.694E-02
RMM:   3    -0.697089055933E+03    0.25808E-04   -0.24910E-05  7848   0.113E-02    0.279E-02
RMM:   4    -0.697089065545E+03   -0.96119E-05   -0.79186E-06  7040   0.587E-03    0.399E-02
RMM:   5    -0.697089063081E+03    0.24641E-05   -0.41278E-06  6426   0.447E-03    0.326E-02
RMM:   6    -0.697089058403E+03    0.46783E-05   -0.10979E-06  3769   0.323E-03    0.217E-02
RMM:   7    -0.697089057685E+03    0.71790E-06   -0.81919E-07  3159   0.316E-03    0.120E-02
RMM:   8    -0.697089058008E+03   -0.32375E-06   -0.53456E-07  2375   0.297E-03
  95 F= -.69708906E+03 E0= -.69652747E+03  d E =-.262038E-03  mag=     3.8214
 curvature:  -0.11 expect dE=-0.408E-03 dE for cont linesearch -0.386E-06
 trial: gam= 0.77140 g(F)=  0.374E-02 g(S)=  0.000E+00 ort = 0.186E-03 (trialstep = 0.538E-01)
 search vector abs. value=  0.983E-02
 bond charge predicted
       N       E                     dE             d eps       ncg     rms          rms(c)
DAV:   1    -0.697089192444E+03   -0.13476E-03   -0.54333E-03 15392   0.997E-02    0.186E-02
RMM:   2    -0.697089202674E+03   -0.10230E-04   -0.89439E-05  7966   0.192E-02    0.290E-02
RMM:   3    -0.697089212136E+03   -0.94626E-05   -0.17656E-05  7777   0.930E-03    0.483E-02
RMM:   4    -0.697089198896E+03    0.13240E-04   -0.46615E-06  6638   0.474E-03    0.147E-02
RMM:   5    -0.697089202953E+03   -0.40577E-05   -0.13134E-06  4239   0.336E-03    0.266E-02
RMM:   6    -0.697089199248E+03    0.37059E-05   -0.71620E-07  3182   0.309E-03    0.118E-02
RMM:   7    -0.697089199130E+03    0.11748E-06   -0.15060E-06  3701   0.325E-03    0.978E-03
RMM:   8    -0.697089198709E+03    0.42057E-06   -0.28161E-07  1919   0.283E-03
  96 F= -.69708920E+03 E0= -.69652760E+03  d E =-.140701E-03  mag=     3.8212
 trial-energy change:   -0.000141  1 .order   -0.000138   -0.000209   -0.000067
 step:   0.0794(harm=  0.0794)  dis= 0.00051  next Energy=  -697.089212 (dE=-0.154E-03)
 bond charge predicted
       N       E                     dE             d eps       ncg     rms          rms(c)
DAV:   1    -0.697089211073E+03   -0.11943E-04   -0.12339E-03 15120   0.476E-02    0.103E-02
RMM:   2    -0.697089222308E+03   -0.11235E-04   -0.23215E-05  7776   0.974E-03    0.378E-02
RMM:   3    -0.697089214876E+03    0.74315E-05   -0.51614E-06  7101   0.514E-03    0.291E-02
RMM:   4    -0.697089212627E+03    0.22493E-05   -0.39817E-07  2581   0.288E-03    0.139E-02
RMM:   5    -0.697089214052E+03   -0.14255E-05   -0.32377E-08  1571   0.267E-03    0.182E-02
RMM:   6    -0.697089211750E+03    0.23026E-05   -0.28951E-08  1327   0.271E-03    0.103E-02
RMM:   7    -0.697089211408E+03    0.34194E-06   -0.50806E-08  1190   0.273E-03    0.572E-03
RMM:   8    -0.697089210936E+03    0.47158E-06   -0.68039E-08  1182   0.275E-03
  97 F= -.69708921E+03 E0= -.69652761E+03  d E =-.152928E-03  mag=     3.8211
 curvature:  -0.10 expect dE=-0.228E-03 dE for cont linesearch -0.531E-06
 trial: gam= 0.65475 g(F)=  0.227E-02 g(S)=  0.000E+00 ort =-0.228E-03 (trialstep = 0.589E-01)
 search vector abs. value=  0.619E-02
 bond charge predicted
       N       E                     dE             d eps       ncg     rms          rms(c)
DAV:   1    -0.697089302820E+03   -0.91413E-04   -0.40605E-03 15328   0.768E-02    0.166E-02
RMM:   2    -0.697089313216E+03   -0.10395E-04   -0.60502E-05  7885   0.156E-02    0.323E-02
RMM:   3    -0.697089315732E+03   -0.25164E-05   -0.12638E-05  7503   0.741E-03    0.390E-02
RMM:   4    -0.697089307780E+03    0.79524E-05   -0.35254E-06  6030   0.426E-03    0.156E-02
RMM:   5    -0.697089308525E+03   -0.74537E-06   -0.75520E-07  3252   0.307E-03    0.161E-02
RMM:   6    -0.697089307199E+03    0.13260E-05   -0.41963E-07  2370   0.295E-03    0.108E-02
RMM:   7    -0.697089306514E+03    0.68495E-06   -0.12644E-06  3134   0.316E-03    0.958E-03
RMM:   8    -0.697089306025E+03    0.48884E-06   -0.42260E-07  1893   0.289E-03
  98 F= -.69708931E+03 E0= -.69652772E+03  d E =-.950892E-04  mag=     3.8208
 trial-energy change:   -0.000095  1 .order   -0.000095   -0.000125   -0.000064
 step:   0.1213(harm=  0.1213)  dis= 0.00055  next Energy=  -697.089340 (dE=-0.129E-03)
 bond charge predicted
       N       E                     dE             d eps       ncg     rms          rms(c)
DAV:   1    -0.697089343177E+03   -0.36663E-04   -0.45425E-03 15296   0.815E-02    0.179E-02
RMM:   2    -0.697089371400E+03   -0.28223E-04   -0.68789E-05  7943   0.164E-02    0.592E-02
RMM:   3    -0.697089350516E+03    0.20884E-04   -0.14794E-05  7633   0.802E-03    0.312E-02
RMM:   4    -0.697089350640E+03   -0.12390E-06   -0.42927E-06  6064   0.454E-03    0.181E-02
RMM:   5    -0.697089349092E+03    0.15474E-05   -0.83091E-07  3376   0.314E-03    0.983E-03
RMM:   6    -0.697089348797E+03    0.29588E-06   -0.54755E-07  2539   0.295E-03    0.118E-02
RMM:   7    -0.697089347836E+03    0.96002E-06   -0.11267E-06  3142   0.312E-03    0.716E-03
RMM:   8    -0.697089347813E+03    0.23014E-07   -0.15699E-07  1496   0.274E-03
  99 F= -.69708935E+03 E0= -.69652777E+03  d E =-.136877E-03  mag=     3.8206
 curvature:  -0.18 expect dE=-0.696E-03 dE for cont linesearch -0.561E-06
 trial: gam= 1.51789 g(F)=  0.393E-02 g(S)=  0.000E+00 ort = 0.140E-03 (trialstep = 0.237E-01)
 search vector abs. value=  0.186E-01
 bond charge predicted
       N       E                     dE             d eps       ncg     rms          rms(c)
DAV:   1    -0.697089435175E+03   -0.87339E-04   -0.20301E-03 15216   0.527E-02    0.123E-02
RMM:   2    -0.697089445251E+03   -0.10076E-04   -0.31328E-05  7776   0.107E-02    0.357E-02
RMM:   3    -0.697089440393E+03    0.48582E-05   -0.62959E-06  6781   0.537E-03    0.228E-02
RMM:   4    -0.697089439937E+03    0.45625E-06   -0.13964E-06  3927   0.322E-03    0.176E-02
RMM:   5    -0.697089438754E+03    0.11825E-05   -0.23556E-07  2183   0.277E-03    0.893E-03
RMM:   6    -0.697089439167E+03   -0.41255E-06   -0.58230E-08  1499   0.268E-03    0.118E-02
RMM:   7    -0.697089438519E+03    0.64804E-06   -0.21633E-07  1485   0.279E-03    0.684E-03
RMM:   8    -0.697089438413E+03    0.10525E-06   -0.20696E-07  1280   0.281E-03
 100 F= -.69708944E+03 E0= -.69652788E+03  d E =-.905999E-04  mag=     3.8204
 ZBRENT: can't locate minimum, use default step
 trial-energy change:   -0.000091  1 .order   -0.000087   -0.000098   -0.000075
 step:   0.0949(harm=  0.1016)  dis= 0.00062  next Energy=  -697.089558 (dE=-0.210E-03)
 bond charge predicted
       N       E                     dE             d eps       ncg     rms          rms(c)
DAV:   1    -0.697089544813E+03   -0.10629E-03   -0.18100E-02 15344   0.157E-01    0.364E-02
RMM:   2    -0.697089577137E+03   -0.32323E-04   -0.26521E-04  9429   0.314E-02    0.509E-02
RMM:   3    -0.697089592742E+03   -0.15606E-04   -0.54098E-05  7978   0.143E-02    0.651E-02
RMM:   4    -0.697089606496E+03   -0.13754E-04   -0.17658E-05  7399   0.836E-03    0.821E-02
RMM:   5    -0.697089566924E+03    0.39572E-04   -0.86235E-06  6965   0.627E-03    0.299E-02
RMM:   6    -0.697089567765E+03   -0.84050E-06   -0.48198E-06  6075   0.446E-03    0.195E-02
RMM:   7    -0.697089567877E+03   -0.11206E-06   -0.39645E-06  5295   0.388E-03    0.179E-02
RMM:   8    -0.697089566779E+03    0.10973E-05   -0.13010E-06  3452   0.328E-03
 101 F= -.69708957E+03 E0= -.69652806E+03  d E =-.218966E-03  mag=     3.8202
 curvature:  -0.23 expect dE=-0.679E-03 dE for cont linesearch -0.114E-05
 trial: gam= 0.72819 g(F)=  0.300E-02 g(S)=  0.000E+00 ort = 0.306E-03 (trialstep = 0.380E-01)
 search vector abs. value=  0.133E-01
 bond charge predicted
       N       E                     dE             d eps       ncg     rms          rms(c)
DAV:   1    -0.697089660418E+03   -0.92542E-04   -0.37908E-03 15392   0.723E-02    0.183E-02
RMM:   2    -0.697089668489E+03   -0.80702E-05   -0.56579E-05  7897   0.145E-02    0.286E-02
RMM:   3    -0.697089669529E+03   -0.10400E-05   -0.10764E-05  7358   0.697E-03    0.289E-02
RMM:   4    -0.697089675215E+03   -0.56861E-05   -0.33960E-06  5451   0.393E-03    0.414E-02
RMM:   5    -0.697089665442E+03    0.97729E-05   -0.16989E-06  4589   0.349E-03    0.192E-02
RMM:   6    -0.697089664929E+03    0.51298E-06   -0.38415E-07  2363   0.286E-03    0.855E-03
RMM:   7    -0.697089664841E+03    0.87573E-07   -0.30316E-07  1911   0.287E-03    0.851E-03
RMM:   8    -0.697089665099E+03   -0.25830E-06   -0.33052E-07  1707   0.283E-03
 102 F= -.69708967E+03 E0= -.69652817E+03  d E =-.983202E-04  mag=     3.8199
 trial-energy change:   -0.000098  1 .order   -0.000098   -0.000122   -0.000074
 step:   0.0959(harm=  0.0959)  dis= 0.00044  next Energy=  -697.089721 (dE=-0.154E-03)
 bond charge predicted
       N       E                     dE             d eps       ncg     rms          rms(c)
DAV:   1    -0.697089701535E+03   -0.36694E-04   -0.88802E-03 15360   0.110E-01    0.277E-02
RMM:   2    -0.697089723208E+03   -0.21673E-04   -0.13007E-04  8252   0.221E-02    0.459E-02
RMM:   3    -0.697089732348E+03   -0.91407E-05   -0.26191E-05  7781   0.104E-02    0.614E-02
RMM:   4    -0.697089717532E+03    0.14816E-04   -0.88274E-06  6878   0.611E-03    0.374E-02
RMM:   5    -0.697089715422E+03    0.21102E-05   -0.46708E-06  6440   0.476E-03    0.283E-02
RMM:   6    -0.697089711868E+03    0.35535E-05   -0.19592E-06  4466   0.350E-03    0.166E-02
RMM:   7    -0.697089711683E+03    0.18503E-06   -0.16300E-06  3404   0.325E-03    0.142E-02
RMM:   8    -0.697089710942E+03    0.74114E-06   -0.77977E-07  2693   0.308E-03
 103 F= -.69708971E+03 E0= -.69652825E+03  d E =-.144163E-03  mag=     3.8197
 curvature:  -0.20 expect dE=-0.692E-03 dE for cont linesearch -0.208E-05
 trial: gam= 1.36390 g(F)=  0.349E-02 g(S)=  0.000E+00 ort =-0.374E-03 (trialstep = 0.242E-01)
 search vector abs. value=  0.272E-01
 bond charge predicted
       N       E                     dE             d eps       ncg     rms          rms(c)
DAV:   1    -0.697089771323E+03   -0.59640E-04   -0.31177E-03 15280   0.612E-02    0.172E-02
RMM:   2    -0.697089788701E+03   -0.17378E-04   -0.44960E-05  7867   0.126E-02    0.463E-02
RMM:   3    -0.697089780877E+03    0.78243E-05   -0.95487E-06  7144   0.649E-03    0.356E-02
RMM:   4    -0.697089777173E+03    0.37033E-05   -0.23628E-06  4598   0.364E-03    0.203E-02
RMM:   5    -0.697089776936E+03    0.23737E-06   -0.10198E-06  3474   0.318E-03    0.160E-02
RMM:   6    -0.697089775649E+03    0.12868E-05   -0.16535E-07  1789   0.281E-03    0.911E-03
RMM:   7    -0.697089776432E+03   -0.78243E-06   -0.48621E-07  1945   0.292E-03    0.123E-02
RMM:   8    -0.697089776468E+03   -0.35929E-07   -0.60056E-07  1978   0.294E-03
 104 F= -.69708978E+03 E0= -.69652833E+03  d E =-.655252E-04  mag=     3.8195
 trial-energy change:   -0.000066  1 .order   -0.000060   -0.000072   -0.000048
 step:   0.0714(harm=  0.0714)  dis= 0.00043  next Energy=  -697.089817 (dE=-0.106E-03)
 bond charge predicted
       N       E                     dE             d eps       ncg     rms          rms(c)
DAV:   1    -0.697089799060E+03   -0.22629E-04   -0.11832E-02 15328   0.119E-01    0.323E-02
RMM:   2    -0.697089843849E+03   -0.44789E-04   -0.16195E-04  8591   0.240E-02    0.709E-02
RMM:   3    -0.697089836087E+03    0.77623E-05   -0.35372E-05  7930   0.116E-02    0.710E-02
RMM:   4    -0.697089812065E+03    0.24022E-04   -0.10591E-05  6853   0.674E-03    0.265E-02
RMM:   5    -0.697089815527E+03   -0.34612E-05   -0.53830E-06  6335   0.494E-03    0.300E-02
RMM:   6    -0.697089812545E+03    0.29812E-05   -0.38714E-06  5631   0.414E-03    0.209E-02
RMM:   7    -0.697089811987E+03    0.55791E-06   -0.33840E-06  4848   0.361E-03    0.163E-02
RMM:   8    -0.697089811411E+03    0.57682E-06   -0.89406E-07  2906   0.314E-03
 105 F= -.69708981E+03 E0= -.69652841E+03  d E =-.100468E-03  mag=     3.8193
 curvature:  -0.33 expect dE=-0.917E-03 dE for cont linesearch -0.584E-05
 ZBRENT: interpolating
 opt :   0.0591  next Energy=  -697.089816 (dE=-0.105E-03)
 bond charge predicted
       N       E                     dE             d eps       ncg     rms          rms(c)
DAV:   1    -0.697089814825E+03   -0.28373E-05   -0.80745E-04 14560   0.310E-02    0.117E-02
RMM:   2    -0.697089864145E+03   -0.49320E-04   -0.15424E-05  7656   0.727E-03    0.863E-02
RMM:   3    -0.697089809773E+03    0.54372E-04   -0.46098E-06  6421   0.495E-03    0.173E-02
RMM:   4    -0.697089816050E+03   -0.62767E-05   -0.48564E-07  2635   0.282E-03    0.870E-03
RMM:   5    -0.697089815943E+03    0.10687E-06   -0.15647E-07  1465   0.265E-03    0.573E-03
RMM:   6    -0.697089816603E+03   -0.65953E-06   -0.72683E-08  1110   0.260E-03    0.733E-03
RMM:   7    -0.697089817091E+03   -0.48806E-06   -0.51225E-07  1642   0.281E-03    0.610E-03
RMM:   8    -0.697089817699E+03   -0.60805E-06   -0.59828E-07  1742   0.281E-03
 106 F= -.69708982E+03 E0= -.69652840E+03  d E =-.106756E-03  mag=     3.8192
 curvature:  -0.24 expect dE=-0.636E-03 dE for cont linesearch -0.557E-06
 trial: gam= 0.09523 g(F)=  0.264E-02 g(S)=  0.000E+00 ort = 0.251E-03 (trialstep = 0.312E-01)
 search vector abs. value=  0.294E-02
 bond charge predicted
       N       E                     dE             d eps       ncg     rms          rms(c)
DAV:   1    -0.697089872245E+03   -0.55155E-04   -0.66823E-04 14992   0.398E-02    0.771E-03
RMM:   2    -0.697089874416E+03   -0.21709E-05   -0.15375E-05  7491   0.743E-03    0.128E-02
RMM:   3    -0.697089876011E+03   -0.15953E-05   -0.16177E-06  4503   0.360E-03    0.175E-02
RMM:   4    -0.697089874757E+03    0.12541E-05   -0.68809E-08  1429   0.245E-03    0.704E-03
RMM:   5    -0.697089875754E+03   -0.99710E-06   -0.14555E-08  1085   0.237E-03    0.113E-02
RMM:   6    -0.697089876171E+03   -0.41626E-06   -0.25864E-08  1047   0.238E-03    0.890E-03
RMM:   7    -0.697089876480E+03   -0.30894E-06   -0.54309E-08  1002   0.244E-03    0.550E-03
RMM:   8    -0.697089876836E+03   -0.35687E-06   -0.49143E-08   981   0.245E-03
 107 F= -.69708988E+03 E0= -.69652847E+03  d E =-.591378E-04  mag=     3.8191
 trial-energy change:   -0.000059  1 .order   -0.000055   -0.000083   -0.000027
 step:   0.0458(harm=  0.0458)  dis= 0.00016  next Energy=  -697.089879 (dE=-0.611E-04)
 bond charge predicted
       N       E                     dE             d eps       ncg     rms          rms(c)
DAV:   1    -0.697089882915E+03   -0.64351E-05   -0.14547E-04 11376   0.189E-02    0.411E-03
RMM:   2    -0.697089884022E+03   -0.11070E-05   -0.62006E-06  6224   0.509E-03    0.545E-03
RMM:   3    -0.697089884195E+03   -0.17330E-06   -0.14319E-07  1573   0.259E-03    0.457E-03
RMM:   4    -0.697089884483E+03   -0.28840E-06   -0.67510E-09   902   0.246E-03    0.429E-03
RMM:   5    -0.697089884745E+03   -0.26129E-06   -0.66743E-10   828   0.244E-03    0.617E-03
RMM:   6    -0.697089884825E+03   -0.79854E-07    0.00000E+00   828   0.245E-03    0.225E-03
RMM:   7    -0.697089885311E+03   -0.48638E-06    0.00000E+00   815   0.245E-03    0.194E-03
RMM:   8    -0.697089885608E+03   -0.29716E-06    0.00000E+00   780   0.246E-03
 108 F= -.69708989E+03 E0= -.69652849E+03  d E =-.679094E-04  mag=     3.8190
 curvature:  -0.03 expect dE=-0.215E-04 dE for cont linesearch -0.613E-08
 trial: gam= 0.33271 g(F)=  0.851E-03 g(S)=  0.000E+00 ort =-0.267E-04 (trialstep = 0.341E-01)
 search vector abs. value=  0.116E-02
 bond charge predicted
       N       E                     dE             d eps       ncg     rms          rms(c)
DAV:   1    -0.697089909794E+03   -0.24483E-04   -0.25424E-04 13616   0.231E-02    0.433E-03
RMM:   2    -0.697089911524E+03   -0.17305E-05   -0.67822E-06  7244   0.538E-03    0.118E-02
RMM:   3    -0.697089910750E+03    0.77426E-06   -0.36574E-07  2094   0.274E-03    0.626E-03
RMM:   4    -0.697089911103E+03   -0.35307E-06   -0.38431E-09  1057   0.246E-03    0.653E-03
RMM:   5    -0.697089911234E+03   -0.13047E-06   -0.58712E-10   851   0.245E-03    0.529E-03
RMM:   6    -0.697089911664E+03   -0.42983E-06   -0.11387E-09   805   0.245E-03    0.484E-03
RMM:   7    -0.697089911973E+03   -0.30923E-06   -0.62279E-09   846   0.250E-03    0.289E-03
RMM:   8    -0.697089912294E+03   -0.32147E-06   -0.12137E-08   864   0.252E-03
 109 F= -.69708991E+03 E0= -.69652852E+03  d E =-.266862E-04  mag=     3.8189
 trial-energy change:   -0.000027  1 .order   -0.000024   -0.000029   -0.000019
 step:   0.1048(harm=  0.1048)  dis= 0.00016  next Energy=  -697.089930 (dE=-0.441E-04)
 reached required accuracy - stopping structural energy minimisation
 writing wavefunctions
