       N       E                     dE             d eps       ncg     rms          rms(c)
DAV:   1     0.765164976993E+04    0.76516E+04   -0.29982E+05 15152   0.126E+03
DAV:   2     0.609743419500E+03   -0.70419E+04   -0.63600E+04 16048   0.375E+02
DAV:   3    -0.758757905123E+03   -0.13685E+04   -0.13162E+04 18784   0.166E+02
DAV:   4    -0.833300454766E+03   -0.74543E+02   -0.72653E+02 20544   0.431E+01
DAV:   5    -0.834943573651E+03   -0.16431E+01   -0.16142E+01 19232   0.592E+00    0.187E+02
RMM:   6    -0.700160325067E+03    0.13478E+03   -0.63209E+02 14897   0.403E+01    0.172E+02
RMM:   7    -0.146295174285E+04   -0.76279E+03   -0.40710E+02 16532   0.274E+01    0.386E+02
RMM:   8    -0.135261718014E+04    0.11033E+03   -0.12013E+02 19049   0.113E+01    0.372E+02
RMM:   9    -0.146030847066E+04   -0.10769E+03   -0.57510E+01 15585   0.101E+01    0.380E+02
RMM:  10    -0.100831739609E+04    0.45199E+03   -0.51235E+02 22308   0.264E+01    0.320E+02
RMM:  11    -0.114510741236E+04   -0.13679E+03   -0.82463E+01 16888   0.113E+01    0.282E+02
RMM:  12    -0.112861496778E+04    0.16492E+02   -0.22449E+02 19569   0.145E+01    0.168E+02
RMM:  13    -0.100617362548E+04    0.12244E+03   -0.27015E+02 21818   0.213E+01    0.195E+02
RMM:  14    -0.755722437890E+03    0.25045E+03   -0.36373E+01 15907   0.825E+00    0.149E+02
RMM:  15    -0.648318005281E+03    0.10740E+03   -0.58396E+01 17881   0.106E+01    0.133E+02
RMM:  16    -0.651170944117E+03   -0.28529E+01   -0.20475E+01 15636   0.676E+00    0.117E+02
RMM:  17    -0.636886403472E+03    0.14285E+02   -0.88959E+00 16218   0.441E+00    0.104E+02
RMM:  18    -0.625561545420E+03    0.11325E+02   -0.82433E+00 15892   0.426E+00    0.904E+01
RMM:  19    -0.625545875524E+03    0.15670E-01   -0.33297E+00 15806   0.279E+00    0.869E+01
RMM:  20    -0.624257557581E+03    0.12883E+01   -0.31242E+00 15715   0.264E+00    0.755E+01
RMM:  21    -0.625037925873E+03   -0.78037E+00   -0.67868E+00 18641   0.363E+00    0.541E+01
RMM:  22    -0.630864701262E+03   -0.58268E+01   -0.21076E+00 15554   0.227E+00    0.472E+01
RMM:  23    -0.633793743408E+03   -0.29290E+01   -0.10047E+00 15060   0.168E+00    0.461E+01
RMM:  24    -0.647669239370E+03   -0.13875E+02   -0.66030E+00 19631   0.362E+00    0.275E+01
RMM:  25    -0.658376912666E+03   -0.10708E+02   -0.51091E+00 18890   0.311E+00    0.173E+01
RMM:  26    -0.666351853639E+03   -0.79749E+01   -0.38284E+00 17598   0.271E+00    0.161E+01
RMM:  27    -0.670261802542E+03   -0.39099E+01   -0.15677E+00 16263   0.183E+00    0.166E+01
RMM:  28    -0.672507857996E+03   -0.22461E+01   -0.84723E-01 15746   0.140E+00    0.176E+01
RMM:  29    -0.675083832576E+03   -0.25760E+01   -0.14258E+00 16894   0.163E+00    0.145E+01
RMM:  30    -0.679114794449E+03   -0.40310E+01   -0.68600E-01 15976   0.133E+00    0.147E+01
RMM:  31    -0.679601545458E+03   -0.48675E+00   -0.27690E-01 15032   0.869E-01    0.141E+01
RMM:  32    -0.680643919106E+03   -0.10424E+01   -0.32996E-01 16235   0.866E-01    0.110E+01
RMM:  33    -0.679993113472E+03    0.65081E+00   -0.27800E-01 15689   0.785E-01    0.116E+01
RMM:  34    -0.681383122570E+03   -0.13900E+01   -0.34263E-01 16932   0.870E-01    0.145E+01
RMM:  35    -0.684874289951E+03   -0.34912E+01   -0.51350E-01 18113   0.980E-01    0.133E+01
RMM:  36    -0.685773779397E+03   -0.89949E+00   -0.27407E-01 16343   0.745E-01    0.128E+01
RMM:  37    -0.688269109025E+03   -0.24953E+01   -0.45536E-01 17688   0.868E-01    0.139E+01
RMM:  38    -0.689500530362E+03   -0.12314E+01   -0.21640E-01 16734   0.665E-01    0.115E+01
RMM:  39    -0.691050405568E+03   -0.15499E+01   -0.29692E-01 17857   0.734E-01    0.107E+01
RMM:  40    -0.691652875283E+03   -0.60247E+00   -0.20504E-01 16758   0.611E-01    0.122E+01
RMM:  41    -0.691238974004E+03    0.41390E+00   -0.16549E-01 16641   0.545E-01    0.930E+00
RMM:  42    -0.692814711557E+03   -0.15757E+01   -0.19117E-01 17505   0.543E-01    0.864E+00
RMM:  43    -0.692188554101E+03    0.62616E+00   -0.67551E-02 15559   0.370E-01    0.722E+00
RMM:  44    -0.693051147858E+03   -0.86259E+00   -0.17274E-01 18774   0.526E-01    0.452E+00
RMM:  45    -0.694256297946E+03   -0.12052E+01   -0.49438E-02 15692   0.303E-01    0.395E+00
RMM:  46    -0.694680065073E+03   -0.42377E+00   -0.12939E-01 18860   0.442E-01    0.430E+00
RMM:  47    -0.694602017742E+03    0.78047E-01   -0.37026E-02 15974   0.259E-01    0.446E+00
RMM:  48    -0.694870945042E+03   -0.26893E+00   -0.33865E-02 16342   0.234E-01    0.518E+00
RMM:  49    -0.694944799671E+03   -0.73855E-01   -0.94143E-03 15420   0.150E-01    0.538E+00
RMM:  50    -0.695446195551E+03   -0.50140E+00   -0.33631E-02 19078   0.242E-01    0.660E+00
RMM:  51    -0.694463472137E+03    0.98272E+00   -0.26576E-01 24402   0.621E-01    0.397E+00
RMM:  52    -0.694884731145E+03   -0.42126E+00   -0.11112E-02 15851   0.191E-01    0.344E+00
RMM:  53    -0.695081319295E+03   -0.19659E+00   -0.15679E-02 17331   0.180E-01    0.275E+00
RMM:  54    -0.695351620246E+03   -0.27030E+00   -0.12765E-02 17224   0.160E-01    0.224E+00
RMM:  55    -0.695445242782E+03   -0.93623E-01   -0.34049E-03 15089   0.931E-02    0.187E+00
RMM:  56    -0.695492683576E+03   -0.47441E-01   -0.23405E-02 20236   0.211E-01    0.877E-01
RMM:  57    -0.695638095916E+03   -0.14541E+00   -0.63354E-03 16700   0.109E-01    0.102E+00
RMM:  58    -0.695748783949E+03   -0.11069E+00   -0.73915E-03 17206   0.106E-01    0.106E+00
RMM:  59    -0.695891717859E+03   -0.14293E+00   -0.30297E-03 15082   0.715E-02    0.890E-01
RMM:  60    -0.695978211902E+03   -0.86494E-01   -0.13388E-03 14042   0.519E-02    0.630E-01
RMM:  61    -0.696051246291E+03   -0.73034E-01   -0.22722E-03 15671   0.625E-02    0.460E-01
RMM:  62    -0.696155761412E+03   -0.10452E+00   -0.11760E-03 13727   0.454E-02    0.396E-01
RMM:  63    -0.696259292871E+03   -0.10353E+00   -0.13759E-03 13906   0.454E-02    0.255E-01
RMM:  64    -0.696308612165E+03   -0.49319E-01   -0.64761E-04 12625   0.337E-02    0.165E-01
RMM:  65    -0.696333621769E+03   -0.25010E-01   -0.29867E-04 10751   0.248E-02    0.119E-01
RMM:  66    -0.696347136010E+03   -0.13514E-01   -0.17339E-04  9596   0.192E-02    0.882E-02
RMM:  67    -0.696359960596E+03   -0.12825E-01   -0.10824E-04  9099   0.160E-02    0.611E-02
RMM:  68    -0.696368411732E+03   -0.84511E-02   -0.70396E-05  8883   0.124E-02    0.460E-02
RMM:  69    -0.696373522641E+03   -0.51109E-02   -0.44737E-05  8336   0.101E-02    0.404E-02
RMM:  70    -0.696378225035E+03   -0.47024E-02   -0.48094E-05  8440   0.884E-03    0.376E-02
RMM:  71    -0.696381079288E+03   -0.28543E-02   -0.32394E-05  7926   0.805E-03    0.400E-02
RMM:  72    -0.696383407923E+03   -0.23286E-02   -0.49500E-05  8518   0.893E-03    0.351E-02
RMM:  73    -0.696386322054E+03   -0.29141E-02   -0.66597E-05  8038   0.865E-03    0.242E-02
RMM:  74    -0.696387042036E+03   -0.71998E-03   -0.49948E-05  8123   0.797E-03    0.228E-02
RMM:  75    -0.696387992368E+03   -0.95033E-03   -0.45321E-05  7561   0.734E-03    0.173E-02
RMM:  76    -0.696388831395E+03   -0.83903E-03   -0.31834E-05  7021   0.666E-03    0.137E-02
RMM:  77    -0.696388958144E+03   -0.12675E-03   -0.18533E-05  6527   0.582E-03    0.114E-02
RMM:  78    -0.696389347135E+03   -0.38899E-03   -0.10535E-05  5899   0.493E-03    0.876E-03
RMM:  79    -0.696389907316E+03   -0.56018E-03   -0.69914E-06  5347   0.416E-03    0.806E-03
RMM:  80    -0.696390226179E+03   -0.31886E-03   -0.52180E-06  5271   0.389E-03
   1 F= -.69639023E+03 E0= -.69581413E+03  d E =-.696390E+03  mag=     2.6269
       N       E                     dE             d eps       ncg     rms          rms(c)
DAV:   1    -0.694888647809E+03    0.15013E+01   -0.31951E+02 15328   0.228E+01    0.508E+00
RMM:   2    -0.695995383364E+03   -0.11067E+01   -0.80890E+00 14848   0.437E+00    0.104E+01
RMM:   3    -0.696000023420E+03   -0.46401E-02   -0.18444E+00 16362   0.190E+00    0.788E+00
RMM:   4    -0.696717264483E+03   -0.71724E+00   -0.33878E-01 15069   0.889E-01    0.129E+01
RMM:   5    -0.695777000004E+03    0.94026E+00   -0.13675E-01 14886   0.713E-01    0.506E+00
RMM:   6    -0.695742157051E+03    0.34843E-01   -0.77060E-02 14914   0.482E-01    0.423E+00
RMM:   7    -0.695679966743E+03    0.62190E-01   -0.57285E-02 15132   0.404E-01    0.258E+00
RMM:   8    -0.695656511146E+03    0.23456E-01   -0.52495E-02 15720   0.329E-01    0.125E+00
RMM:   9    -0.695661063988E+03   -0.45528E-02   -0.14412E-02 14933   0.200E-01    0.137E+00
RMM:  10    -0.695657055067E+03    0.40089E-02   -0.59108E-03 14823   0.144E-01    0.929E-01
RMM:  11    -0.695655566943E+03    0.14881E-02   -0.32848E-03 14629   0.956E-02    0.645E-01
RMM:  12    -0.695654789454E+03    0.77749E-03   -0.18474E-03 14036   0.703E-02    0.440E-01
RMM:  13    -0.695654310409E+03    0.47905E-03   -0.10772E-03 13585   0.489E-02    0.262E-01
RMM:  14    -0.695653992379E+03    0.31803E-03   -0.60233E-04 12527   0.362E-02    0.148E-01
RMM:  15    -0.695653672230E+03    0.32015E-03   -0.42751E-04 11499   0.289E-02    0.134E-01
RMM:  16    -0.695653272179E+03    0.40005E-03   -0.20204E-04  9626   0.217E-02    0.112E-01
RMM:  17    -0.695652532191E+03    0.73999E-03   -0.24223E-04  9748   0.218E-02    0.878E-02
RMM:  18    -0.695651627696E+03    0.90450E-03   -0.17255E-04  9342   0.196E-02    0.928E-02
RMM:  19    -0.695650706229E+03    0.92147E-03   -0.13299E-04  9040   0.179E-02    0.630E-02
RMM:  20    -0.695650057082E+03    0.64915E-03   -0.93977E-05  8686   0.150E-02    0.513E-02
RMM:  21    -0.695649711667E+03    0.34541E-03   -0.63664E-05  8319   0.126E-02    0.345E-02
RMM:  22    -0.695650071900E+03   -0.36023E-03   -0.29133E-05  7640   0.927E-03    0.267E-02
RMM:  23    -0.695650694126E+03   -0.62223E-03   -0.25791E-05  7420   0.743E-03    0.263E-02
RMM:  24    -0.695651303899E+03   -0.60977E-03   -0.16612E-05  6883   0.624E-03    0.238E-02
RMM:  25    -0.695651777197E+03   -0.47330E-03   -0.14602E-05  6649   0.558E-03    0.199E-02
RMM:  26    -0.695652465850E+03   -0.68865E-03   -0.20016E-05  7109   0.584E-03    0.195E-02
RMM:  27    -0.695653207417E+03   -0.74157E-03   -0.24188E-05  7033   0.598E-03    0.160E-02
RMM:  28    -0.695653685407E+03   -0.47799E-03   -0.16166E-05  6284   0.543E-03    0.170E-02
RMM:  29    -0.695654068693E+03   -0.38329E-03   -0.17567E-05  6594   0.552E-03    0.114E-02
RMM:  30    -0.695654328152E+03   -0.25946E-03   -0.68486E-06  4884   0.441E-03    0.108E-02
RMM:  31    -0.695654583149E+03   -0.25500E-03   -0.49071E-06  4426   0.379E-03    0.926E-03
RMM:  32    -0.695654952531E+03   -0.36938E-03   -0.46260E-06  5041   0.383E-03    0.768E-03
RMM:  33    -0.695655269202E+03   -0.31667E-03   -0.25791E-06  4019   0.335E-03    0.733E-03
RMM:  34    -0.695655528852E+03   -0.25965E-03   -0.11383E-06  3164   0.307E-03    0.653E-03
RMM:  35    -0.695655878366E+03   -0.34951E-03   -0.13668E-06  3270   0.304E-03    0.657E-03
RMM:  36    -0.695656245978E+03   -0.36761E-03   -0.12521E-06  3061   0.300E-03    0.607E-03
RMM:  37    -0.695656586999E+03   -0.34102E-03   -0.14303E-06  3061   0.301E-03    0.527E-03
RMM:  38    -0.695656874788E+03   -0.28779E-03   -0.10301E-06  2849   0.298E-03    0.380E-03
RMM:  39    -0.695657019893E+03   -0.14511E-03   -0.45454E-07  2241   0.286E-03    0.316E-03
RMM:  40    -0.695657157560E+03   -0.13767E-03   -0.50687E-07  2125   0.287E-03    0.316E-03
RMM:  41    -0.695657288004E+03   -0.13044E-03   -0.43789E-07  2074   0.287E-03    0.268E-03
RMM:  42    -0.695657424032E+03   -0.13603E-03   -0.10103E-06  2515   0.293E-03    0.232E-03
RMM:  43    -0.695657516300E+03   -0.92268E-04   -0.70359E-07  2414   0.291E-03
   2 F= -.69565752E+03 E0= -.69508525E+03  d E =0.732710E+00  mag=     2.5410
       N       E                     dE             d eps       ncg     rms          rms(c)
DAV:   1    -0.696164489475E+03   -0.50707E+00   -0.16011E+02 15008   0.160E+01    0.472E+00
RMM:   2    -0.696787507011E+03   -0.62302E+00   -0.46089E+00 14848   0.321E+00    0.899E+00
RMM:   3    -0.697068174826E+03   -0.28067E+00   -0.10345E+00 16105   0.137E+00    0.886E+00
RMM:   4    -0.697140740260E+03   -0.72565E-01   -0.21458E-01 15069   0.750E-01    0.979E+00
RMM:   5    -0.696598326937E+03    0.54241E+00   -0.99656E-02 14897   0.600E-01    0.316E+00
RMM:   6    -0.696601464012E+03   -0.31371E-02   -0.40364E-02 14903   0.356E-01    0.303E+00
RMM:   7    -0.696559519308E+03    0.41945E-01   -0.26054E-02 15051   0.279E-01    0.134E+00
RMM:   8    -0.696553910663E+03    0.56086E-02   -0.16383E-02 15111   0.208E-01    0.118E+00
RMM:   9    -0.696544063613E+03    0.98471E-02   -0.89440E-03 15144   0.156E-01    0.927E-01
RMM:  10    -0.696539505491E+03    0.45581E-02   -0.31048E-03 14504   0.968E-02    0.747E-01
RMM:  11    -0.696535854323E+03    0.36512E-02   -0.13077E-03 13931   0.607E-02    0.481E-01
RMM:  12    -0.696534858626E+03    0.99570E-03   -0.51436E-04 12586   0.376E-02    0.317E-01
RMM:  13    -0.696535379313E+03   -0.52069E-03   -0.39073E-04 11709   0.306E-02    0.214E-01
RMM:  14    -0.696536736627E+03   -0.13573E-02   -0.30279E-04 10711   0.259E-02    0.139E-01
RMM:  15    -0.696538345877E+03   -0.16093E-02   -0.17444E-04  9526   0.202E-02    0.813E-02
RMM:  16    -0.696540237358E+03   -0.18915E-02   -0.68446E-05  8557   0.137E-02    0.615E-02
RMM:  17    -0.696542815664E+03   -0.25783E-02   -0.58816E-05  7908   0.102E-02    0.426E-02
RMM:  18    -0.696545954831E+03   -0.31392E-02   -0.70223E-05  8156   0.994E-03    0.343E-02
RMM:  19    -0.696548190595E+03   -0.22358E-02   -0.51104E-05  7710   0.913E-03    0.264E-02
RMM:  20    -0.696549796500E+03   -0.16059E-02   -0.33932E-05  7181   0.772E-03    0.249E-02
RMM:  21    -0.696550994275E+03   -0.11978E-02   -0.21575E-05  6450   0.625E-03    0.167E-02
RMM:  22    -0.696551968063E+03   -0.97379E-03   -0.13742E-05  5866   0.525E-03    0.143E-02
RMM:  23    -0.696553428935E+03   -0.14609E-02   -0.21732E-05  6657   0.550E-03    0.122E-02
RMM:  24    -0.696554301241E+03   -0.87231E-03   -0.12454E-05  5437   0.472E-03    0.906E-03
RMM:  25    -0.696554819026E+03   -0.51779E-03   -0.71216E-06  4879   0.418E-03    0.769E-03
RMM:  26    -0.696555171699E+03   -0.35267E-03   -0.38593E-06  4042   0.352E-03    0.708E-03
RMM:  27    -0.696555623432E+03   -0.45173E-03   -0.30142E-06  3780   0.333E-03    0.561E-03
RMM:  28    -0.696556131581E+03   -0.50815E-03   -0.27710E-06  3831   0.331E-03    0.568E-03
RMM:  29    -0.696556380793E+03   -0.24921E-03   -0.13807E-06  3156   0.310E-03    0.539E-03
RMM:  30    -0.696556642057E+03   -0.26126E-03   -0.14043E-06  2982   0.301E-03    0.441E-03
RMM:  31    -0.696556827824E+03   -0.18577E-03   -0.56920E-07  2520   0.294E-03    0.365E-03
RMM:  32    -0.696557005831E+03   -0.17801E-03   -0.62788E-07  2395   0.289E-03    0.300E-03
RMM:  33    -0.696557172420E+03   -0.16659E-03   -0.30367E-07  2207   0.287E-03    0.277E-03
RMM:  34    -0.696557361089E+03   -0.18867E-03   -0.94335E-08  1940   0.280E-03    0.271E-03
RMM:  35    -0.696557433873E+03   -0.72784E-04   -0.80528E-08  1850   0.280E-03
   3 F= -.69655743E+03 E0= -.69598261E+03  d E =-.167208E+00  mag=     2.6070
       N       E                     dE             d eps       ncg     rms          rms(c)
DAV:   1    -0.696582852309E+03   -0.25491E-01   -0.15879E+00 15296   0.159E+00    0.379E-01
RMM:   2    -0.696588357511E+03   -0.55052E-02   -0.32219E-02 14697   0.270E-01    0.966E-01
RMM:   3    -0.696587933074E+03    0.42444E-03   -0.52840E-03 14794   0.113E-01    0.673E-01
RMM:   4    -0.696589031335E+03   -0.10983E-02   -0.16355E-03 14055   0.655E-02    0.816E-01
RMM:   5    -0.696585925502E+03    0.31058E-02   -0.69747E-04 12803   0.494E-02    0.437E-01
RMM:   6    -0.696585811388E+03    0.11411E-03   -0.29516E-04 10731   0.317E-02    0.378E-01
RMM:   7    -0.696585359786E+03    0.45160E-03   -0.34050E-04 10352   0.290E-02    0.194E-01
RMM:   8    -0.696585229750E+03    0.13004E-03   -0.18963E-04  9181   0.221E-02    0.108E-01
RMM:   9    -0.696585226570E+03    0.31803E-05   -0.47706E-05  8315   0.149E-02
   4 F= -.69658523E+03 E0= -.69601014E+03  d E =-.195000E+00  mag=     2.6089
       N       E                     dE             d eps       ncg     rms          rms(c)
DAV:   1    -0.696282384943E+03    0.30284E+00   -0.82112E+01 14960   0.119E+01    0.303E+00
RMM:   2    -0.696554130055E+03   -0.27175E+00   -0.15137E+00 14848   0.220E+00    0.591E+00
RMM:   3    -0.696871542408E+03   -0.31741E+00   -0.40651E-01 16083   0.994E-01    0.815E+00
RMM:   4    -0.696520073271E+03    0.35147E+00   -0.10411E-01 15089   0.551E-01    0.431E+00
RMM:   5    -0.696447237879E+03    0.72835E-01   -0.36017E-02 14933   0.351E-01    0.234E+00
RMM:   6    -0.696432044558E+03    0.15193E-01   -0.26747E-02 15111   0.261E-01    0.174E+00
RMM:   7    -0.696429425813E+03    0.26187E-02   -0.19973E-02 15541   0.222E-01    0.160E+00
RMM:   8    -0.696417992440E+03    0.11433E-01   -0.63481E-03 14833   0.148E-01    0.724E-01
RMM:   9    -0.696418239807E+03   -0.24737E-03   -0.34413E-03 14672   0.948E-02    0.669E-01
RMM:  10    -0.696417032249E+03    0.12076E-02   -0.12042E-03 13408   0.654E-02    0.347E-01
RMM:  11    -0.696416836909E+03    0.19534E-03   -0.50647E-04 12201   0.370E-02    0.195E-01
RMM:  12    -0.696417161526E+03   -0.32462E-03   -0.37702E-04 11309   0.302E-02    0.172E-01
RMM:  13    -0.696417244124E+03   -0.82599E-04   -0.25331E-04 10221   0.254E-02
   5 F= -.69641724E+03 E0= -.69584244E+03  d E =0.167982E+00  mag=     2.6037
       N       E                     dE             d eps       ncg     rms          rms(c)
DAV:   1    -0.696528592423E+03   -0.11143E+00   -0.11574E+01 15344   0.450E+00    0.957E-01
RMM:   2    -0.696571244151E+03   -0.42652E-01   -0.20538E-01 14849   0.769E-01    0.234E+00
RMM:   3    -0.696571714691E+03   -0.47054E-03   -0.48837E-02 16413   0.346E-01    0.203E+00
RMM:   4    -0.696559716074E+03    0.11999E-01   -0.10359E-02 15245   0.171E-01    0.148E+00
RMM:   5    -0.696550139261E+03    0.95768E-02   -0.44010E-03 14710   0.119E-01    0.777E-01
RMM:   6    -0.696551188246E+03   -0.10490E-02   -0.30756E-03 14826   0.902E-02    0.785E-01
RMM:   7    -0.696550093698E+03    0.10945E-02   -0.27331E-03 15199   0.839E-02    0.564E-01
RMM:   8    -0.696549538623E+03    0.55507E-03   -0.14029E-03 14028   0.631E-02    0.363E-01
RMM:   9    -0.696549113985E+03    0.42464E-03   -0.39264E-04 11770   0.375E-02    0.209E-01
RMM:  10    -0.696549038453E+03    0.75532E-04   -0.12031E-04  8887   0.200E-02
   6 F= -.69654904E+03 E0= -.69597493E+03  d E =0.361881E-01  mag=     2.5961
       N       E                     dE             d eps       ncg     rms          rms(c)
DAV:   1    -0.696619646914E+03   -0.70533E-01   -0.40973E+00 15328   0.265E+00    0.614E-01
RMM:   2    -0.696639066555E+03   -0.19420E-01   -0.69607E-02 14849   0.445E-01    0.159E+00
RMM:   3    -0.696635248415E+03    0.38181E-02   -0.16563E-02 16148   0.205E-01    0.126E+00
RMM:   4    -0.696627728717E+03    0.75197E-02   -0.36560E-03 14902   0.106E-01    0.578E-01
RMM:   5    -0.696627113695E+03    0.61502E-03   -0.18910E-03 14104   0.729E-02    0.452E-01
RMM:   6    -0.696627858434E+03   -0.74474E-03   -0.11565E-03 14048   0.577E-02    0.490E-01
RMM:   7    -0.696626841990E+03    0.10164E-02   -0.80375E-04 13487   0.483E-02    0.255E-01
RMM:   8    -0.696626707676E+03    0.13431E-03   -0.30155E-04 10916   0.317E-02    0.136E-01
RMM:   9    -0.696626758398E+03   -0.50723E-04   -0.11577E-04  8895   0.205E-02
   7 F= -.69662676E+03 E0= -.69605236E+03  d E =-.415318E-01  mag=     2.5924
       N       E                     dE             d eps       ncg     rms          rms(c)
DAV:   1    -0.696641235595E+03   -0.14528E-01   -0.32706E+00 15360   0.236E+00    0.516E-01
RMM:   2    -0.696656854608E+03   -0.15619E-01   -0.55580E-02 14849   0.405E-01    0.146E+00
RMM:   3    -0.696653748110E+03    0.31065E-02   -0.13261E-02 16138   0.184E-01    0.114E+00
RMM:   4    -0.696649076943E+03    0.46712E-02   -0.32324E-03 14670   0.979E-02    0.744E-01
RMM:   5    -0.696646626618E+03    0.24503E-02   -0.12026E-03 13637   0.632E-02    0.348E-01
RMM:   6    -0.696647149560E+03   -0.52294E-03   -0.93799E-04 13626   0.480E-02    0.415E-01
RMM:   7    -0.696646476414E+03    0.67315E-03   -0.58692E-04 12875   0.418E-02    0.275E-01
RMM:   8    -0.696646197436E+03    0.27898E-03   -0.31693E-04 10805   0.302E-02    0.131E-01
RMM:   9    -0.696646175722E+03    0.21714E-04   -0.98173E-05  8686   0.201E-02
   8 F= -.69664618E+03 E0= -.69607154E+03  d E =-.609492E-01  mag=     2.5917
       N       E                     dE             d eps       ncg     rms          rms(c)
DAV:   1    -0.696650684171E+03   -0.44867E-02   -0.25945E-01 15344   0.666E-01    0.163E-01
RMM:   2    -0.696651562144E+03   -0.87797E-03   -0.43312E-03 14508   0.113E-01    0.373E-01
RMM:   3    -0.696651459467E+03    0.10268E-03   -0.81101E-04 13100   0.523E-02    0.236E-01
RMM:   4    -0.696651919008E+03   -0.45954E-03   -0.31904E-04 10429   0.289E-02    0.365E-01
RMM:   5    -0.696651272447E+03    0.64656E-03   -0.11693E-04  8448   0.225E-02    0.129E-01
RMM:   6    -0.696651311955E+03   -0.39507E-04   -0.81916E-05  8236   0.162E-02    0.111E-01
RMM:   7    -0.696651398581E+03   -0.86627E-04   -0.66315E-05  8098   0.144E-02    0.727E-02
RMM:   8    -0.696651435833E+03   -0.37252E-04   -0.26074E-05  7497   0.102E-02
   9 F= -.69665144E+03 E0= -.69607676E+03  d E =-.662093E-01  mag=     2.5922
       N       E                     dE             d eps       ncg     rms          rms(c)
DAV:   1    -0.696595741713E+03    0.55657E-01   -0.46978E+01 14848   0.852E+00    0.241E+00
RMM:   2    -0.696847236153E+03   -0.25149E+00   -0.89887E-01 14848   0.166E+00    0.625E+00
RMM:   3    -0.696923129973E+03   -0.75894E-01   -0.22843E-01 15862   0.742E-01    0.623E+00
RMM:   4    -0.696726809155E+03    0.19632E+00   -0.64882E-02 14988   0.433E-01    0.358E+00
RMM:   5    -0.696697045548E+03    0.29764E-01   -0.20636E-02 14978   0.265E-01    0.234E+00
RMM:   6    -0.696684856371E+03    0.12189E-01   -0.21297E-02 15259   0.233E-01    0.202E+00
RMM:   7    -0.696671496541E+03    0.13360E-01   -0.16031E-02 15617   0.203E-01    0.129E+00
RMM:   8    -0.696664880427E+03    0.66161E-02   -0.51128E-03 14824   0.133E-01    0.649E-01
RMM:   9    -0.696663634556E+03    0.12459E-02   -0.28457E-03 14300   0.824E-02    0.467E-01
RMM:  10    -0.696663396117E+03    0.23844E-03   -0.85433E-04 13108   0.532E-02    0.334E-01
RMM:  11    -0.696663078924E+03    0.31719E-03   -0.31596E-04 10855   0.290E-02    0.199E-01
RMM:  12    -0.696663111039E+03   -0.32115E-04   -0.20527E-04  9770   0.228E-02
  10 F= -.69666311E+03 E0= -.69608745E+03  d E =-.116752E-01  mag=     2.5929
       N       E                     dE             d eps       ncg     rms          rms(c)
DAV:   1    -0.696744354826E+03   -0.81276E-01   -0.11306E+01 15280   0.425E+00    0.108E+00
RMM:   2    -0.696812760550E+03   -0.68406E-01   -0.20879E-01 14848   0.779E-01    0.319E+00
RMM:   3    -0.696788408673E+03    0.24352E-01   -0.50046E-02 16110   0.347E-01    0.219E+00
RMM:   4    -0.696778524084E+03    0.98846E-02   -0.13024E-02 15032   0.188E-01    0.187E+00
RMM:   5    -0.696763684139E+03    0.14840E-01   -0.63001E-03 14833   0.138E-01    0.875E-01
RMM:   6    -0.696762526767E+03    0.11574E-02   -0.42563E-03 14984   0.108E-01    0.778E-01
RMM:   7    -0.696760725515E+03    0.18013E-02   -0.25711E-03 14508   0.873E-02    0.535E-01
RMM:   8    -0.696760218026E+03    0.50749E-03   -0.16339E-03 14103   0.679E-02    0.397E-01
RMM:   9    -0.696759448285E+03    0.76974E-03   -0.53725E-04 12526   0.430E-02    0.198E-01
RMM:  10    -0.696759333144E+03    0.11514E-03   -0.18182E-04  9601   0.232E-02    0.104E-01
RMM:  11    -0.696759306224E+03    0.26920E-04   -0.64365E-05  8758   0.154E-02
  11 F= -.69675931E+03 E0= -.69618451E+03  d E =-.107870E+00  mag=     2.5901
       N       E                     dE             d eps       ncg     rms          rms(c)
DAV:   1    -0.696762278048E+03   -0.29449E-02   -0.55471E-01 15216   0.934E-01    0.260E-01
RMM:   2    -0.696765576039E+03   -0.32980E-02   -0.10074E-02 14811   0.172E-01    0.729E-01
RMM:   3    -0.696765531143E+03    0.44896E-04   -0.22235E-03 14434   0.798E-02    0.637E-01
RMM:   4    -0.696763495867E+03    0.20353E-02   -0.74146E-04 13081   0.464E-02    0.341E-01
RMM:   5    -0.696763217009E+03    0.27886E-03   -0.30728E-04 10702   0.320E-02    0.217E-01
RMM:   6    -0.696763135364E+03    0.81644E-04   -0.22806E-04  9621   0.268E-02    0.201E-01
RMM:   7    -0.696762961299E+03    0.17406E-03   -0.16472E-04  8993   0.231E-02    0.925E-02
RMM:   8    -0.696762912855E+03    0.48445E-04   -0.54572E-05  8268   0.149E-02
  12 F= -.69676291E+03 E0= -.69618818E+03  d E =-.111477E+00  mag=     2.5887
       N       E                     dE             d eps       ncg     rms          rms(c)
DAV:   1    -0.696573863009E+03    0.18910E+00   -0.34487E+01 14912   0.773E+00    0.187E+00
RMM:   2    -0.696686130104E+03   -0.11227E+00   -0.73851E-01 14848   0.132E+00    0.431E+00
RMM:   3    -0.696659067076E+03    0.27063E-01   -0.12113E-01 15560   0.566E-01    0.252E+00
RMM:   4    -0.696731391745E+03   -0.72325E-01   -0.34658E-02 15787   0.283E-01    0.421E+00
RMM:   5    -0.696648568489E+03    0.82823E-01   -0.15186E-02 14981   0.213E-01    0.207E+00
RMM:   6    -0.696659440513E+03   -0.10872E-01   -0.19868E-02 16190   0.220E-01    0.221E+00
RMM:   7    -0.696636584168E+03    0.22856E-01   -0.10422E-02 15491   0.177E-01    0.106E+00
RMM:   8    -0.696631930805E+03    0.46534E-02   -0.43813E-03 14636   0.118E-01    0.489E-01
RMM:   9    -0.696631825657E+03    0.10515E-03   -0.14856E-03 13726   0.645E-02    0.460E-01
RMM:  10    -0.696631316132E+03    0.50952E-03   -0.46415E-04 12114   0.395E-02    0.349E-01
RMM:  11    -0.696631092170E+03    0.22396E-03   -0.18183E-04  9628   0.224E-02    0.255E-01
RMM:  12    -0.696631194676E+03   -0.10251E-03   -0.26161E-04  9915   0.242E-02    0.187E-01
RMM:  13    -0.696631211616E+03   -0.16940E-04   -0.17882E-04  9279   0.221E-02
  13 F= -.69663121E+03 E0= -.69605563E+03  d E =0.131701E+00  mag=     2.5981
       N       E                     dE             d eps       ncg     rms          rms(c)
DAV:   1    -0.696748774187E+03   -0.11758E+00   -0.15518E+01 15360   0.526E+00    0.153E+00
RMM:   2    -0.696800588480E+03   -0.51814E-01   -0.32211E-01 14848   0.881E-01    0.285E+00
RMM:   3    -0.696797138541E+03    0.34499E-02   -0.53139E-02 15407   0.381E-01    0.202E+00
RMM:   4    -0.696855292017E+03   -0.58153E-01   -0.18664E-02 15111   0.216E-01    0.360E+00
RMM:   5    -0.696779571965E+03    0.75720E-01   -0.12343E-02 15112   0.194E-01    0.105E+00
RMM:   6    -0.696785740645E+03   -0.61687E-02   -0.71100E-03 15151   0.147E-01    0.131E+00
RMM:   7    -0.696776788141E+03    0.89525E-02   -0.29626E-03 14418   0.105E-01    0.587E-01
RMM:   8    -0.696775707040E+03    0.10811E-02   -0.15533E-03 13722   0.702E-02    0.343E-01
RMM:   9    -0.696775520981E+03    0.18606E-03   -0.55605E-04 12445   0.403E-02    0.248E-01
RMM:  10    -0.696775348048E+03    0.17293E-03   -0.17955E-04  9652   0.242E-02    0.164E-01
RMM:  11    -0.696775275019E+03    0.73029E-04   -0.61156E-05  8706   0.149E-02
  14 F= -.69677528E+03 E0= -.69620012E+03  d E =-.123622E-01  mag=     2.5993
       N       E                     dE             d eps       ncg     rms          rms(c)
DAV:   1    -0.696780254554E+03   -0.49065E-02   -0.19003E-01 15296   0.576E-01    0.159E-01
RMM:   2    -0.696781521795E+03   -0.12672E-02   -0.40616E-03 14528   0.989E-02    0.420E-01
RMM:   3    -0.696781159957E+03    0.36184E-03   -0.68979E-04 12476   0.471E-02    0.316E-01
RMM:   4    -0.696780742150E+03    0.41781E-03   -0.23398E-04  9595   0.255E-02    0.166E-01
RMM:   5    -0.696780754112E+03   -0.11962E-04   -0.10728E-04  8584   0.207E-02    0.119E-01
RMM:   6    -0.696780867358E+03   -0.11325E-03   -0.10339E-04  8597   0.186E-02    0.162E-01
RMM:   7    -0.696780777567E+03    0.89791E-04   -0.59593E-05  8334   0.157E-02    0.776E-02
RMM:   8    -0.696780767029E+03    0.10538E-04   -0.28140E-05  7595   0.101E-02
  15 F= -.69678077E+03 E0= -.69620577E+03  d E =-.178542E-01  mag=     2.5988
       N       E                     dE             d eps       ncg     rms          rms(c)
DAV:   1    -0.696782429928E+03   -0.16524E-02   -0.57124E-01 15328   0.996E-01    0.235E-01
RMM:   2    -0.696784029441E+03   -0.15995E-02   -0.11598E-02 14768   0.166E-01    0.499E-01
RMM:   3    -0.696783575748E+03    0.45369E-03   -0.17402E-03 13938   0.706E-02    0.262E-01
RMM:   4    -0.696785624234E+03   -0.20485E-02   -0.65032E-04 12789   0.382E-02    0.605E-01
RMM:   5    -0.696783489233E+03    0.21350E-02   -0.30250E-04 10571   0.314E-02    0.251E-01
RMM:   6    -0.696783591239E+03   -0.10201E-03   -0.24831E-04  9919   0.279E-02    0.241E-01
RMM:   7    -0.696783321940E+03    0.26930E-03   -0.13146E-04  8695   0.227E-02    0.116E-01
RMM:   8    -0.696783249661E+03    0.72278E-04   -0.61788E-05  8218   0.151E-02
  16 F= -.69678325E+03 E0= -.69620832E+03  d E =-.203368E-01  mag=     2.5966
       N       E                     dE             d eps       ncg     rms          rms(c)
DAV:   1    -0.696783871535E+03   -0.54959E-03   -0.10424E-01 15312   0.425E-01    0.117E-01
RMM:   2    -0.696784853844E+03   -0.98231E-03   -0.22775E-03 13816   0.742E-02    0.407E-01
RMM:   3    -0.696784549956E+03    0.30389E-03   -0.40494E-04 11104   0.369E-02    0.317E-01
RMM:   4    -0.696783991026E+03    0.55893E-03   -0.12374E-04  8419   0.219E-02    0.823E-02
RMM:   5    -0.696784040540E+03   -0.49513E-04   -0.58238E-05  8025   0.144E-02    0.101E-01
RMM:   6    -0.696784017436E+03    0.23103E-04   -0.43015E-05  7777   0.122E-02    0.850E-02
RMM:   7    -0.696784013596E+03    0.38400E-05   -0.30240E-05  7602   0.105E-02    0.741E-02
RMM:   8    -0.696783990169E+03    0.23427E-04   -0.12139E-05  7031   0.722E-03
  17 F= -.69678399E+03 E0= -.69620913E+03  d E =-.210773E-01  mag=     2.5945
       N       E                     dE             d eps       ncg     rms          rms(c)
DAV:   1    -0.696805012695E+03   -0.20999E-01   -0.39446E+00 15328   0.278E+00    0.494E-01
RMM:   2    -0.696818632990E+03   -0.13620E-01   -0.80805E-02 14848   0.473E-01    0.118E+00
RMM:   3    -0.696817235637E+03    0.13974E-02   -0.15989E-02 16297   0.195E-01    0.814E-01
RMM:   4    -0.696824636088E+03   -0.74005E-02   -0.41690E-03 14640   0.103E-01    0.149E+00
RMM:   5    -0.696818785276E+03    0.58508E-02   -0.13106E-03 14046   0.709E-02    0.100E+00
RMM:   6    -0.696813454497E+03    0.53308E-02   -0.75163E-04 13481   0.500E-02    0.544E-01
RMM:   7    -0.696812520388E+03    0.93411E-03   -0.71757E-04 13366   0.457E-02    0.290E-01
RMM:   8    -0.696812539857E+03   -0.19470E-04   -0.39037E-04 11755   0.337E-02
  18 F= -.69681254E+03 E0= -.69623771E+03  d E =-.285497E-01  mag=     2.5931
       N       E                     dE             d eps       ncg     rms          rms(c)
DAV:   1    -0.696821711420E+03   -0.91910E-02   -0.46863E-01 15344   0.958E-01    0.192E-01
RMM:   2    -0.696825485096E+03   -0.37737E-02   -0.95993E-03 14764   0.162E-01    0.764E-01
RMM:   3    -0.696823429026E+03    0.20561E-02   -0.18715E-03 14628   0.716E-02    0.406E-01
RMM:   4    -0.696823309233E+03    0.11979E-03   -0.52482E-04 12303   0.410E-02    0.404E-01
RMM:   5    -0.696822904603E+03    0.40463E-03   -0.20334E-04  9249   0.277E-02    0.271E-01
RMM:   6    -0.696822482806E+03    0.42180E-03   -0.10511E-04  8395   0.203E-02    0.130E-01
RMM:   7    -0.696822536558E+03   -0.53753E-04   -0.77429E-05  8228   0.151E-02    0.991E-02
RMM:   8    -0.696822523163E+03    0.13395E-04   -0.58200E-05  7994   0.139E-02
  19 F= -.69682252E+03 E0= -.69624770E+03  d E =-.385330E-01  mag=     2.5920
       N       E                     dE             d eps       ncg     rms          rms(c)
DAV:   1    -0.696864865102E+03   -0.42329E-01   -0.18659E+00 15168   0.181E+00    0.426E-01
RMM:   2    -0.696875562679E+03   -0.10698E-01   -0.42071E-02 14848   0.322E-01    0.117E+00
RMM:   3    -0.696870744888E+03    0.48178E-02   -0.72754E-03 15890   0.140E-01    0.729E-01
RMM:   4    -0.696873163301E+03   -0.24184E-02   -0.20883E-03 14547   0.728E-02    0.996E-01
RMM:   5    -0.696869544162E+03    0.36191E-02   -0.13086E-03 13948   0.622E-02    0.635E-01
RMM:   6    -0.696867496324E+03    0.20478E-02   -0.62801E-04 13168   0.474E-02    0.319E-01
RMM:   7    -0.696867372365E+03    0.12396E-03   -0.45945E-04 11827   0.348E-02    0.161E-01
RMM:   8    -0.696867256308E+03    0.11606E-03   -0.40562E-04 11204   0.297E-02    0.149E-01
RMM:   9    -0.696867186564E+03    0.69744E-04   -0.74788E-05  8530   0.178E-02
  20 F= -.69686719E+03 E0= -.69629230E+03  d E =-.446634E-01  mag=     2.5898
       N       E                     dE             d eps       ncg     rms          rms(c)
DAV:   1    -0.696868894316E+03   -0.16380E-02   -0.82890E-02 15312   0.381E-01    0.112E-01
RMM:   2    -0.696869724754E+03   -0.83044E-03   -0.20831E-03 13983   0.705E-02    0.328E-01
RMM:   3    -0.696869288002E+03    0.43675E-03   -0.36024E-04 10590   0.334E-02    0.239E-01
RMM:   4    -0.696869107550E+03    0.18045E-03   -0.12246E-04  8684   0.207E-02    0.144E-01
RMM:   5    -0.696869067500E+03    0.40049E-04   -0.72685E-05  8376   0.158E-02    0.117E-01
RMM:   6    -0.696868991985E+03    0.75515E-04   -0.23378E-05  7803   0.106E-02    0.523E-02
RMM:   7    -0.696868998218E+03   -0.62334E-05   -0.21852E-05  7578   0.816E-03    0.685E-02
RMM:   8    -0.696868984900E+03    0.13319E-04   -0.16706E-05  7265   0.795E-03
  21 F= -.69686898E+03 E0= -.69629408E+03  d E =-.464617E-01  mag=     2.5873
       N       E                     dE             d eps       ncg     rms          rms(c)
DAV:   1    -0.696882189155E+03   -0.13191E-01   -0.95731E-01 15136   0.124E+00    0.389E-01
RMM:   2    -0.696889755156E+03   -0.75660E-02   -0.22330E-02 14850   0.219E-01    0.107E+00
RMM:   3    -0.696885987645E+03    0.37675E-02   -0.33847E-03 15030   0.956E-02    0.734E-01
RMM:   4    -0.696885988205E+03   -0.55962E-06   -0.12287E-03 14006   0.566E-02    0.695E-01
RMM:   5    -0.696884799127E+03    0.11891E-02   -0.11161E-03 14079   0.536E-02    0.547E-01
RMM:   6    -0.696883377353E+03    0.14218E-02   -0.46558E-04 12334   0.421E-02    0.271E-01
RMM:   7    -0.696883356537E+03    0.20816E-04   -0.30642E-04 10233   0.284E-02    0.176E-01
RMM:   8    -0.696883232877E+03    0.12366E-03   -0.22385E-04  9401   0.228E-02    0.101E-01
RMM:   9    -0.696883236421E+03   -0.35436E-05   -0.44418E-05  8147   0.144E-02
  22 F= -.69688324E+03 E0= -.69630824E+03  d E =-.142515E-01  mag=     2.5854
       N       E                     dE             d eps       ncg     rms          rms(c)
DAV:   1    -0.696885106055E+03   -0.18732E-02   -0.58963E-02 15360   0.308E-01    0.110E-01
RMM:   2    -0.696885805428E+03   -0.69937E-03   -0.14193E-03 13284   0.575E-02    0.344E-01
RMM:   3    -0.696885329267E+03    0.47616E-03   -0.23236E-04  9228   0.299E-02    0.173E-01
RMM:   4    -0.696885265509E+03    0.63757E-04   -0.82212E-05  8159   0.170E-02    0.139E-01
RMM:   5    -0.696885269092E+03   -0.35825E-05   -0.59898E-05  7963   0.135E-02    0.127E-01
RMM:   6    -0.696885209791E+03    0.59300E-04   -0.36496E-05  7738   0.122E-02    0.602E-02
RMM:   7    -0.696885226523E+03   -0.16732E-04   -0.19224E-05  7113   0.804E-03    0.473E-02
RMM:   8    -0.696885235955E+03   -0.94321E-05   -0.13774E-05  6814   0.662E-03
  23 F= -.69688524E+03 E0= -.69631019E+03  d E =-.162511E-01  mag=     2.5837
       N       E                     dE             d eps       ncg     rms          rms(c)
DAV:   1    -0.696901933159E+03   -0.16707E-01   -0.28090E-01 15344   0.733E-01    0.179E-01
RMM:   2    -0.696902810319E+03   -0.87716E-03   -0.68673E-03 14620   0.131E-01    0.260E-01
RMM:   3    -0.696903294458E+03   -0.48414E-03   -0.10693E-03 13228   0.550E-02    0.386E-01
RMM:   4    -0.696902537706E+03    0.75675E-03   -0.32949E-04  9887   0.300E-02    0.149E-01
RMM:   5    -0.696902724962E+03   -0.18726E-03   -0.13799E-04  8706   0.222E-02    0.190E-01
RMM:   6    -0.696902649263E+03    0.75699E-04   -0.10518E-04  8520   0.197E-02    0.139E-01
RMM:   7    -0.696902584809E+03    0.64454E-04   -0.67052E-05  8345   0.162E-02    0.876E-02
RMM:   8    -0.696902566416E+03    0.18394E-04   -0.31567E-05  7742   0.113E-02
  24 F= -.69690257E+03 E0= -.69632760E+03  d E =-.173305E-01  mag=     2.5835
       N       E                     dE             d eps       ncg     rms          rms(c)
DAV:   1    -0.696904726165E+03   -0.21414E-02   -0.94229E-02 15328   0.425E-01    0.108E-01
RMM:   2    -0.696905308349E+03   -0.58218E-03   -0.23870E-03 13913   0.768E-02    0.255E-01
RMM:   3    -0.696905383871E+03   -0.75522E-04   -0.40782E-04 10644   0.347E-02    0.307E-01
RMM:   4    -0.696904880569E+03    0.50330E-03   -0.12414E-04  8485   0.219E-02    0.918E-02
RMM:   5    -0.696904915005E+03   -0.34436E-04   -0.45624E-05  8125   0.135E-02    0.905E-02
RMM:   6    -0.696904903431E+03    0.11574E-04   -0.38886E-05  7854   0.110E-02    0.753E-02
RMM:   7    -0.696904878994E+03    0.24438E-04   -0.23756E-05  7412   0.952E-03    0.606E-02
RMM:   8    -0.696904866978E+03    0.12015E-04   -0.11769E-05  6899   0.698E-03
  25 F= -.69690487E+03 E0= -.69632991E+03  d E =-.196310E-01  mag=     2.5845
       N       E                     dE             d eps       ncg     rms          rms(c)
DAV:   1    -0.696915614142E+03   -0.10735E-01   -0.30241E-01 15344   0.757E-01    0.205E-01
RMM:   2    -0.696918011410E+03   -0.23973E-02   -0.80723E-03 14815   0.146E-01    0.556E-01
RMM:   3    -0.696917082137E+03    0.92927E-03   -0.13427E-03 14007   0.630E-02    0.445E-01
RMM:   4    -0.696916128597E+03    0.95354E-03   -0.40818E-04 10727   0.355E-02    0.155E-01
RMM:   5    -0.696916257499E+03   -0.12890E-03   -0.16001E-04  8963   0.229E-02    0.196E-01
RMM:   6    -0.696916374534E+03   -0.11703E-03   -0.16394E-04  8973   0.234E-02    0.223E-01
RMM:   7    -0.696916055100E+03    0.31943E-03   -0.11825E-04  8434   0.218E-02    0.136E-01
RMM:   8    -0.696915934110E+03    0.12099E-03   -0.59848E-05  8225   0.151E-02    0.602E-02
RMM:   9    -0.696915897285E+03    0.36825E-04   -0.18924E-05  7295   0.855E-03
  26 F= -.69691590E+03 E0= -.69634092E+03  d E =-.110303E-01  mag=     2.5872
       N       E                     dE             d eps       ncg     rms          rms(c)
DAV:   1    -0.696916040139E+03   -0.10603E-03   -0.69498E-02 15376   0.364E-01    0.100E-01
RMM:   2    -0.696916306436E+03   -0.26630E-03   -0.18938E-03 13812   0.705E-02    0.196E-01
RMM:   3    -0.696916259581E+03    0.46856E-04   -0.30066E-04  9523   0.293E-02    0.175E-01
RMM:   4    -0.696916176454E+03    0.83127E-04   -0.91367E-05  8361   0.185E-02    0.123E-01
RMM:   5    -0.696916181025E+03   -0.45708E-05   -0.46111E-05  8202   0.128E-02    0.119E-01
RMM:   6    -0.696916122286E+03    0.58739E-04   -0.45485E-05  8126   0.127E-02    0.115E-01
RMM:   7    -0.696916027747E+03    0.94539E-04   -0.23535E-05  7575   0.103E-02    0.547E-02
RMM:   8    -0.696915975526E+03    0.52221E-04   -0.14514E-05  6729   0.660E-03
  27 F= -.69691598E+03 E0= -.69634096E+03  d E =-.111085E-01  mag=     2.5907
       N       E                     dE             d eps       ncg     rms          rms(c)
DAV:   1    -0.696916353711E+03   -0.32596E-03   -0.14040E-02 15376   0.164E-01    0.451E-02
RMM:   2    -0.696916503505E+03   -0.14979E-03   -0.38140E-04  9213   0.317E-02    0.150E-01
RMM:   3    -0.696916432471E+03    0.71034E-04   -0.64456E-05  7991   0.159E-02    0.831E-02
RMM:   4    -0.696916429988E+03    0.24827E-05   -0.19941E-05  7447   0.837E-03    0.863E-02
RMM:   5    -0.696916418623E+03    0.11365E-04   -0.90260E-06  6557   0.615E-03    0.506E-02
RMM:   6    -0.696916432109E+03   -0.13485E-04   -0.77636E-06  6431   0.515E-03    0.410E-02
RMM:   7    -0.696916453319E+03   -0.21211E-04   -0.49814E-06  6174   0.487E-03    0.258E-02
RMM:   8    -0.696916480066E+03   -0.26747E-04   -0.30790E-06  4844   0.370E-03
  28 F= -.69691648E+03 E0= -.69634140E+03  d E =-.116131E-01  mag=     2.5940
       N       E                     dE             d eps       ncg     rms          rms(c)
DAV:   1    -0.696919268343E+03   -0.28150E-02   -0.25000E-01 15344   0.644E-01    0.161E-01
RMM:   2    -0.696920034038E+03   -0.76570E-03   -0.50405E-03 14461   0.107E-01    0.339E-01
RMM:   3    -0.696919897222E+03    0.13682E-03   -0.81438E-04 11855   0.437E-02    0.231E-01
RMM:   4    -0.696920000736E+03   -0.10351E-03   -0.23855E-04  9249   0.247E-02    0.250E-01
RMM:   5    -0.696919778060E+03    0.22268E-03   -0.11706E-04  8514   0.201E-02    0.169E-01
RMM:   6    -0.696919806382E+03   -0.28323E-04   -0.10690E-04  8438   0.193E-02    0.186E-01
RMM:   7    -0.696919631428E+03    0.17495E-03   -0.54633E-05  8129   0.155E-02    0.936E-02
RMM:   8    -0.696919546445E+03    0.84983E-04   -0.25508E-05  7427   0.972E-03
  29 F= -.69691955E+03 E0= -.69634448E+03  d E =-.306638E-02  mag=     2.5981
       N       E                     dE             d eps       ncg     rms          rms(c)
DAV:   1    -0.696921161049E+03   -0.15296E-02   -0.32517E-02 15328   0.233E-01    0.633E-02
RMM:   2    -0.696921384169E+03   -0.22312E-03   -0.69873E-04 10639   0.401E-02    0.192E-01
RMM:   3    -0.696921356176E+03    0.27994E-04   -0.12557E-04  8226   0.204E-02    0.164E-01
RMM:   4    -0.696921211276E+03    0.14490E-03   -0.32793E-05  7800   0.116E-02    0.576E-02
RMM:   5    -0.696921223109E+03   -0.11834E-04   -0.11229E-05  6757   0.654E-03    0.491E-02
RMM:   6    -0.696921246303E+03   -0.23194E-04   -0.12887E-05  7076   0.643E-03    0.635E-02
RMM:   7    -0.696921266290E+03   -0.19987E-04   -0.11054E-05  7184   0.662E-03    0.404E-02
RMM:   8    -0.696921287360E+03   -0.21070E-04   -0.44761E-06  6069   0.454E-03
  30 F= -.69692129E+03 E0= -.69634618E+03  d E =-.480729E-02  mag=     2.6019
       N       E                     dE             d eps       ncg     rms          rms(c)
DAV:   1    -0.696925273313E+03   -0.40070E-02   -0.72689E-02 15360   0.377E-01    0.818E-02
RMM:   2    -0.696925621881E+03   -0.34857E-03   -0.17008E-03 12920   0.628E-02    0.174E-01
RMM:   3    -0.696925720726E+03   -0.98845E-04   -0.25719E-04  9123   0.280E-02    0.216E-01
RMM:   4    -0.696925491511E+03    0.22921E-03   -0.67839E-05  8160   0.168E-02    0.604E-02
RMM:   5    -0.696925552136E+03   -0.60625E-04   -0.27252E-05  7814   0.955E-03    0.992E-02
RMM:   6    -0.696925538407E+03    0.13729E-04   -0.16074E-05  7160   0.818E-03    0.449E-02
RMM:   7    -0.696925593463E+03   -0.55056E-04   -0.12782E-05  6898   0.658E-03    0.407E-02
RMM:   8    -0.696925631853E+03   -0.38390E-04   -0.95711E-06  6403   0.558E-03
  31 F= -.69692563E+03 E0= -.69635050E+03  d E =-.434449E-02  mag=     2.6049
       N       E                     dE             d eps       ncg     rms          rms(c)
DAV:   1    -0.696925711991E+03   -0.11853E-03   -0.15002E-03 15088   0.552E-02    0.306E-02
RMM:   2    -0.696926338914E+03   -0.62692E-03   -0.94829E-05  8059   0.137E-02    0.304E-01
RMM:   3    -0.696925756560E+03    0.58235E-03   -0.48032E-05  7930   0.147E-02    0.594E-02
RMM:   4    -0.696925755416E+03    0.11448E-05   -0.11041E-05  6847   0.715E-03    0.265E-02
RMM:   5    -0.696925767940E+03   -0.12524E-04   -0.25823E-06  5100   0.382E-03    0.181E-02
RMM:   6    -0.696925788337E+03   -0.20398E-04   -0.14970E-07  1827   0.257E-03    0.120E-02
RMM:   7    -0.696925810470E+03   -0.22132E-04   -0.15572E-08  1396   0.245E-03    0.169E-02
RMM:   8    -0.696925833891E+03   -0.23422E-04   -0.41347E-08  1384   0.254E-03
  32 F= -.69692583E+03 E0= -.69635067E+03  d E =-.454653E-02  mag=     2.6076
       N       E                     dE             d eps       ncg     rms          rms(c)
DAV:   1    -0.696927278544E+03   -0.14681E-02   -0.13907E-02 15328   0.166E-01    0.364E-02
RMM:   2    -0.696927455442E+03   -0.17690E-03   -0.27636E-04  8808   0.286E-02    0.158E-01
RMM:   3    -0.696927340128E+03    0.11531E-03   -0.41704E-05  7918   0.139E-02    0.628E-02
RMM:   4    -0.696927418977E+03   -0.78849E-04   -0.19424E-05  7344   0.785E-03    0.127E-01
RMM:   5    -0.696927359981E+03    0.58996E-04   -0.90118E-06  6770   0.645E-03    0.537E-02
RMM:   6    -0.696927367003E+03   -0.70223E-05   -0.44375E-06  5965   0.436E-03    0.412E-02
RMM:   7    -0.696927381075E+03   -0.14072E-04   -0.25032E-06  5302   0.391E-03    0.161E-02
RMM:   8    -0.696927400012E+03   -0.18936E-04   -0.54710E-07  2669   0.290E-03
  33 F= -.69692740E+03 E0= -.69635223E+03  d E =-.156612E-02  mag=     2.6097
       N       E                     dE             d eps       ncg     rms          rms(c)
DAV:   1    -0.696927943606E+03   -0.56253E-03   -0.19049E-02 15264   0.194E-01    0.416E-02
RMM:   2    -0.696928103865E+03   -0.16026E-03   -0.36896E-04  9586   0.335E-02    0.148E-01
RMM:   3    -0.696928015278E+03    0.88586E-04   -0.57207E-05  7961   0.158E-02    0.695E-02
RMM:   4    -0.696928096252E+03   -0.80974E-04   -0.24547E-05  7558   0.918E-03    0.137E-01
RMM:   5    -0.696928023705E+03    0.72547E-04   -0.11024E-05  6912   0.707E-03    0.537E-02
RMM:   6    -0.696928035938E+03   -0.12233E-04   -0.54706E-06  6307   0.464E-03    0.438E-02
RMM:   7    -0.696928044080E+03   -0.81422E-05   -0.29422E-06  5630   0.408E-03    0.326E-02
RMM:   8    -0.696928055412E+03   -0.11332E-04   -0.59730E-07  2661   0.292E-03
  34 F= -.69692806E+03 E0= -.69635290E+03  d E =-.222152E-02  mag=     2.6116
       N       E                     dE             d eps       ncg     rms          rms(c)
DAV:   1    -0.696929203517E+03   -0.11594E-02   -0.55113E-03 15344   0.999E-02    0.376E-02
RMM:   2    -0.696929346868E+03   -0.14335E-03   -0.14682E-04  8144   0.213E-02    0.129E-01
RMM:   3    -0.696929345255E+03    0.16132E-05   -0.43608E-05  7903   0.140E-02    0.146E-01
RMM:   4    -0.696929278154E+03    0.67101E-04   -0.10040E-05  7401   0.720E-03    0.960E-02
RMM:   5    -0.696929248593E+03    0.29562E-04   -0.24409E-06  5225   0.372E-03    0.730E-02
RMM:   6    -0.696929237558E+03    0.11034E-04   -0.19736E-06  4493   0.353E-03    0.473E-02
RMM:   7    -0.696929241006E+03   -0.34476E-05   -0.38499E-06  5887   0.399E-03    0.329E-02
RMM:   8    -0.696929245778E+03   -0.47719E-05   -0.17639E-06  3941   0.339E-03
  35 F= -.69692925E+03 E0= -.69635411E+03  d E =-.119037E-02  mag=     2.6133
       N       E                     dE             d eps       ncg     rms          rms(c)
DAV:   1    -0.696931261586E+03   -0.20206E-02   -0.49372E-02 15360   0.299E-01    0.870E-02
RMM:   2    -0.696932147083E+03   -0.88550E-03   -0.11929E-03 14263   0.628E-02    0.379E-01
RMM:   3    -0.696931424444E+03    0.72264E-03   -0.23709E-04  9314   0.273E-02    0.155E-01
RMM:   4    -0.696931943030E+03   -0.51859E-03   -0.13167E-04  8315   0.219E-02    0.338E-01
RMM:   5    -0.696931522543E+03    0.42049E-03   -0.54304E-05  8076   0.150E-02    0.212E-01
RMM:   6    -0.696931391694E+03    0.13085E-03   -0.34209E-05  7957   0.107E-02    0.136E-01
RMM:   7    -0.696931319594E+03    0.72100E-04   -0.19374E-05  7505   0.921E-03    0.605E-02
RMM:   8    -0.696931307367E+03    0.12226E-04   -0.96766E-06  6861   0.575E-03
  36 F= -.69693131E+03 E0= -.69635620E+03  d E =-.325196E-02  mag=     2.6151
       N       E                     dE             d eps       ncg     rms          rms(c)
DAV:   1    -0.696931522335E+03   -0.20274E-03   -0.97013E-03 15520   0.133E-01    0.558E-02
RMM:   2    -0.696931795885E+03   -0.27355E-03   -0.24753E-04  8970   0.283E-02    0.197E-01
RMM:   3    -0.696931822243E+03   -0.26358E-04   -0.84742E-05  7980   0.188E-02    0.226E-01
RMM:   4    -0.696931637178E+03    0.18507E-03   -0.23002E-05  7910   0.112E-02    0.136E-01
RMM:   5    -0.696931555303E+03    0.81875E-04   -0.74016E-06  6758   0.537E-03    0.867E-02
RMM:   6    -0.696931529339E+03    0.25964E-04   -0.60782E-06  6618   0.514E-03    0.484E-02
RMM:   7    -0.696931514722E+03    0.14617E-04   -0.65246E-06  6790   0.508E-03    0.304E-02
RMM:   8    -0.696931512344E+03    0.23778E-05   -0.24668E-06  5297   0.400E-03
  37 F= -.69693151E+03 E0= -.69635641E+03  d E =-.345693E-02  mag=     2.6172
       N       E                     dE             d eps       ncg     rms          rms(c)
DAV:   1    -0.696932220186E+03   -0.70546E-03   -0.13251E-03 15104   0.452E-02    0.288E-02
RMM:   2    -0.696932417654E+03   -0.19747E-03   -0.40155E-05  7903   0.106E-02    0.172E-01
RMM:   3    -0.696932284729E+03    0.13293E-03   -0.27212E-05  7900   0.104E-02    0.106E-01
RMM:   4    -0.696932254375E+03    0.30354E-04   -0.65043E-06  6787   0.614E-03    0.711E-02
RMM:   5    -0.696932229348E+03    0.25027E-04   -0.87409E-07  3650   0.312E-03    0.343E-02
RMM:   6    -0.696932227594E+03    0.17541E-05   -0.20160E-07  2300   0.267E-03    0.193E-02
RMM:   7    -0.696932231125E+03   -0.35309E-05   -0.67532E-08  1523   0.265E-03    0.124E-02
RMM:   8    -0.696932235243E+03   -0.41188E-05   -0.20529E-08  1181   0.267E-03
  38 F= -.69693224E+03 E0= -.69635712E+03  d E =-.722900E-03  mag=     2.6192
       N       E                     dE             d eps       ncg     rms          rms(c)
DAV:   1    -0.696934138211E+03   -0.19071E-02   -0.11896E-02 15360   0.135E-01    0.458E-02
RMM:   2    -0.696934318828E+03   -0.18062E-03   -0.21929E-04  8687   0.271E-02    0.169E-01
RMM:   3    -0.696934185335E+03    0.13349E-03   -0.41118E-05  7907   0.142E-02    0.752E-02
RMM:   4    -0.696934280242E+03   -0.94907E-04   -0.23769E-05  7422   0.845E-03    0.148E-01
RMM:   5    -0.696934187922E+03    0.92320E-04   -0.15023E-05  7410   0.807E-03    0.580E-02
RMM:   6    -0.696934190425E+03   -0.25029E-05   -0.80575E-06  7120   0.568E-03    0.375E-02
RMM:   7    -0.696934192597E+03   -0.21719E-05   -0.28592E-06  5803   0.412E-03    0.218E-02
RMM:   8    -0.696934196329E+03   -0.37323E-05   -0.27085E-07  2393   0.268E-03
  39 F= -.69693420E+03 E0= -.69635909E+03  d E =-.268399E-02  mag=     2.6210
       N       E                     dE             d eps       ncg     rms          rms(c)
DAV:   1    -0.696935939284E+03   -0.17467E-02   -0.47046E-02 15328   0.268E-01    0.926E-02
RMM:   2    -0.696936722328E+03   -0.78304E-03   -0.84432E-04 13740   0.543E-02    0.358E-01
RMM:   3    -0.696936118889E+03    0.60344E-03   -0.18936E-04  8985   0.243E-02    0.172E-01
RMM:   4    -0.696936388729E+03   -0.26984E-03   -0.84015E-05  8088   0.182E-02    0.272E-01
RMM:   5    -0.696936062013E+03    0.32672E-03   -0.61193E-05  7994   0.148E-02    0.117E-01
RMM:   6    -0.696936064728E+03   -0.27151E-05   -0.36617E-05  7901   0.118E-02    0.723E-02
RMM:   7    -0.696936064527E+03    0.20126E-06   -0.14624E-05  7112   0.805E-03    0.620E-02
RMM:   8    -0.696936056223E+03    0.83038E-05   -0.48514E-06  6242   0.479E-03
  40 F= -.69693606E+03 E0= -.69636100E+03  d E =-.454388E-02  mag=     2.6228
       N       E                     dE             d eps       ncg     rms          rms(c)
DAV:   1    -0.696937247009E+03   -0.11825E-02   -0.50976E-03 14928   0.105E-01    0.494E-02
RMM:   2    -0.696939461250E+03   -0.22142E-02   -0.31285E-04  9896   0.265E-02    0.580E-01
RMM:   3    -0.696937176375E+03    0.22849E-02   -0.12783E-04  8056   0.249E-02    0.555E-02
RMM:   4    -0.696937252355E+03   -0.75980E-04   -0.31586E-05  7731   0.121E-02    0.253E-02
RMM:   5    -0.696937260535E+03   -0.81806E-05   -0.78369E-06  6680   0.615E-03    0.171E-02
RMM:   6    -0.696937271771E+03   -0.11236E-04   -0.33980E-06  5354   0.383E-03    0.319E-02
RMM:   7    -0.696937281750E+03   -0.99791E-05   -0.28300E-06  5055   0.374E-03    0.321E-02
RMM:   8    -0.696937290564E+03   -0.88138E-05   -0.16496E-06  4160   0.341E-03
  41 F= -.69693729E+03 E0= -.69636220E+03  d E =-.123434E-02  mag=     2.6243
       N       E                     dE             d eps       ncg     rms          rms(c)
DAV:   1    -0.696938240769E+03   -0.95902E-03   -0.21694E-02 15344   0.217E-01    0.560E-02
RMM:   2    -0.696939068528E+03   -0.82776E-03   -0.69681E-04 11710   0.434E-02    0.351E-01
RMM:   3    -0.696938304024E+03    0.76450E-03   -0.11728E-04  8174   0.214E-02    0.838E-02
RMM:   4    -0.696938351322E+03   -0.47297E-04   -0.45089E-05  7974   0.132E-02    0.106E-01
RMM:   5    -0.696938342774E+03    0.85482E-05   -0.15551E-05  7193   0.768E-03    0.818E-02
RMM:   6    -0.696938348396E+03   -0.56224E-05   -0.76531E-06  6524   0.566E-03    0.629E-02
RMM:   7    -0.696938354302E+03   -0.59059E-05   -0.96865E-06  6635   0.571E-03    0.382E-02
RMM:   8    -0.696938364820E+03   -0.10518E-04   -0.45979E-06  5825   0.473E-03
  42 F= -.69693836E+03 E0= -.69636325E+03  d E =-.230860E-02  mag=     2.6255
       N       E                     dE             d eps       ncg     rms          rms(c)
DAV:   1    -0.696938797660E+03   -0.44336E-03   -0.23994E-03 15072   0.721E-02    0.171E-02
RMM:   2    -0.696938923250E+03   -0.12559E-03   -0.64590E-05  7899   0.159E-02    0.137E-01
RMM:   3    -0.696938825573E+03    0.97677E-04   -0.11944E-05  7842   0.841E-03    0.493E-02
RMM:   4    -0.696938838549E+03   -0.12976E-04   -0.35905E-06  5868   0.396E-03    0.601E-02
RMM:   5    -0.696938835263E+03    0.32857E-05   -0.16244E-06  4113   0.336E-03    0.364E-02
RMM:   6    -0.696938839506E+03   -0.42424E-05   -0.40450E-07  2703   0.296E-03    0.264E-02
RMM:   7    -0.696938849963E+03   -0.10457E-04   -0.45371E-07  2330   0.295E-03    0.159E-02
RMM:   8    -0.696938857305E+03   -0.73425E-05   -0.15768E-07  1681   0.278E-03
  43 F= -.69693886E+03 E0= -.69636372E+03  d E =-.492486E-03  mag=     2.6262
       N       E                     dE             d eps       ncg     rms          rms(c)
DAV:   1    -0.696939260335E+03   -0.41037E-03   -0.12721E-02 15408   0.166E-01    0.376E-02
RMM:   2    -0.696939372790E+03   -0.11245E-03   -0.28044E-04  9038   0.346E-02    0.126E-01
RMM:   3    -0.696939316860E+03    0.55930E-04   -0.48151E-05  7926   0.154E-02    0.770E-02
RMM:   4    -0.696939386808E+03   -0.69948E-04   -0.20659E-05  7835   0.859E-03    0.132E-01
RMM:   5    -0.696939297224E+03    0.89584E-04   -0.10351E-05  6962   0.683E-03    0.415E-02
RMM:   6    -0.696939310403E+03   -0.13179E-04   -0.52465E-06  6326   0.473E-03    0.382E-02
RMM:   7    -0.696939311539E+03   -0.11358E-05   -0.20653E-06  5308   0.371E-03    0.210E-02
RMM:   8    -0.696939316512E+03   -0.49737E-05   -0.40368E-07  2393   0.277E-03
  44 F= -.69693932E+03 E0= -.69636416E+03  d E =-.951693E-03  mag=     2.6267
       N       E                     dE             d eps       ncg     rms          rms(c)
DAV:   1    -0.696939526404E+03   -0.21487E-03   -0.17082E-03 15024   0.588E-02    0.232E-02
RMM:   2    -0.696939657072E+03   -0.13067E-03   -0.58201E-05  7966   0.129E-02    0.131E-01
RMM:   3    -0.696939555127E+03    0.10195E-03   -0.19520E-05  7842   0.967E-03    0.718E-02
RMM:   4    -0.696939540781E+03    0.14346E-04   -0.43765E-06  6206   0.469E-03    0.285E-02
RMM:   5    -0.696939539770E+03    0.10116E-05   -0.10240E-06  2978   0.303E-03    0.153E-02
RMM:   6    -0.696939544567E+03   -0.47973E-05   -0.25509E-07  1983   0.284E-03    0.115E-02
RMM:   7    -0.696939552632E+03   -0.80651E-05   -0.44649E-07  2213   0.297E-03    0.183E-02
RMM:   8    -0.696939555486E+03   -0.28539E-05   -0.18798E-07  1547   0.283E-03
  45 F= -.69693956E+03 E0= -.69636438E+03  d E =-.238974E-03  mag=     2.6270
       N       E                     dE             d eps       ncg     rms          rms(c)
DAV:   1    -0.696939620978E+03   -0.68346E-04   -0.17719E-03 15072   0.597E-02    0.151E-02
RMM:   2    -0.696939666585E+03   -0.45607E-04   -0.51231E-05  7865   0.123E-02    0.764E-02
RMM:   3    -0.696939638803E+03    0.27783E-04   -0.11107E-05  7619   0.733E-03    0.488E-02
RMM:   4    -0.696939633005E+03    0.57972E-05   -0.18860E-06  4789   0.356E-03    0.238E-02
RMM:   5    -0.696939632113E+03    0.89241E-06   -0.16590E-07  1777   0.255E-03    0.121E-02
RMM:   6    -0.696939634283E+03   -0.21701E-05   -0.79734E-08  1632   0.242E-03    0.119E-02
RMM:   7    -0.696939638479E+03   -0.41959E-05   -0.22600E-07  1732   0.264E-03    0.635E-03
RMM:   8    -0.696939640323E+03   -0.18442E-05   -0.19167E-07  1370   0.266E-03
  46 F= -.69693964E+03 E0= -.69636447E+03  d E =-.323811E-03  mag=     2.6271
       N       E                     dE             d eps       ncg     rms          rms(c)
DAV:   1    -0.696939777808E+03   -0.13933E-03   -0.84791E-04 15040   0.389E-02    0.113E-02
RMM:   2    -0.696939809098E+03   -0.31290E-04   -0.17317E-05  7694   0.791E-03    0.655E-02
RMM:   3    -0.696939777933E+03    0.31164E-04   -0.38878E-06  6784   0.459E-03    0.134E-02
RMM:   4    -0.696939782569E+03   -0.46358E-05   -0.14873E-07  2059   0.259E-03    0.961E-03
RMM:   5    -0.696939784907E+03   -0.23375E-05   -0.36060E-08  1468   0.262E-03    0.164E-02
RMM:   6    -0.696939786697E+03   -0.17900E-05   -0.14872E-07  1770   0.280E-03    0.146E-02
RMM:   7    -0.696939786650E+03    0.46668E-07   -0.64893E-08  1293   0.276E-03    0.370E-03
RMM:   8    -0.696939787853E+03   -0.12032E-05   -0.27741E-08  1162   0.271E-03
  47 F= -.69693979E+03 E0= -.69636460E+03  d E =-.147530E-03  mag=     2.6272
       N       E                     dE             d eps       ncg     rms          rms(c)
DAV:   1    -0.696939924629E+03   -0.13798E-03   -0.45489E-03 15312   0.901E-02    0.232E-02
RMM:   2    -0.696939938214E+03   -0.13585E-04   -0.81703E-05  7971   0.178E-02    0.390E-02
RMM:   3    -0.696939941328E+03   -0.31139E-05   -0.15708E-05  7706   0.879E-03    0.431E-02
RMM:   4    -0.696939933265E+03    0.80627E-05   -0.46233E-06  6281   0.463E-03    0.252E-02
RMM:   5    -0.696939939057E+03   -0.57922E-05   -0.33097E-06  5922   0.392E-03    0.348E-02
RMM:   6    -0.696939930859E+03    0.81983E-05   -0.17682E-06  4904   0.365E-03    0.176E-02
RMM:   7    -0.696939929221E+03    0.16384E-05   -0.61392E-07  2636   0.297E-03    0.819E-03
RMM:   8    -0.696939929022E+03    0.19882E-06   -0.11294E-07  1694   0.270E-03
  48 F= -.69693993E+03 E0= -.69636472E+03  d E =-.288699E-03  mag=     2.6270
       N       E                     dE             d eps       ncg     rms          rms(c)
DAV:   1    -0.696940073650E+03   -0.14443E-03   -0.97360E-04 14992   0.411E-02    0.132E-02
RMM:   2    -0.696940080190E+03   -0.65402E-05   -0.22436E-05  7827   0.858E-03    0.309E-02
RMM:   3    -0.696940079403E+03    0.78676E-06   -0.45569E-06  6752   0.503E-03    0.273E-02
RMM:   4    -0.696940075741E+03    0.36619E-05   -0.19571E-07  2066   0.259E-03    0.133E-02
RMM:   5    -0.696940077373E+03   -0.16318E-05   -0.29123E-07  1949   0.264E-03    0.151E-02
RMM:   6    -0.696940075943E+03    0.14304E-05   -0.38857E-08  1301   0.254E-03    0.602E-03
RMM:   7    -0.696940076535E+03   -0.59281E-06   -0.36039E-08  1263   0.255E-03    0.845E-03
RMM:   8    -0.696940076054E+03    0.48174E-06   -0.31006E-09  1084   0.251E-03
  49 F= -.69694008E+03 E0= -.69636485E+03  d E =-.147032E-03  mag=     2.6268
       N       E                     dE             d eps       ncg     rms          rms(c)
DAV:   1    -0.696940307841E+03   -0.23131E-03   -0.86237E-03 15488   0.122E-01    0.355E-02
RMM:   2    -0.696940333356E+03   -0.25515E-04   -0.18730E-04  8272   0.247E-02    0.564E-02
RMM:   3    -0.696940337164E+03   -0.38079E-05   -0.33109E-05  7847   0.127E-02    0.586E-02
RMM:   4    -0.696940323760E+03    0.13404E-04   -0.98156E-06  6899   0.618E-03    0.401E-02
RMM:   5    -0.696940325322E+03   -0.15619E-05   -0.62857E-06  6973   0.516E-03    0.352E-02
RMM:   6    -0.696940321058E+03    0.42638E-05   -0.43475E-06  6475   0.452E-03    0.308E-02
RMM:   7    -0.696940313396E+03    0.76620E-05   -0.16022E-06  4396   0.348E-03    0.121E-02
RMM:   8    -0.696940312768E+03    0.62845E-06   -0.22404E-07  1974   0.278E-03
  50 F= -.69694031E+03 E0= -.69636507E+03  d E =-.383746E-03  mag=     2.6265
       N       E                     dE             d eps       ncg     rms          rms(c)
DAV:   1    -0.696940331421E+03   -0.18024E-04   -0.11360E-03 15056   0.444E-02    0.155E-02
RMM:   2    -0.696940390525E+03   -0.59105E-04   -0.30226E-05  7921   0.971E-03    0.941E-02
RMM:   3    -0.696940332784E+03    0.57742E-04   -0.85206E-06  7404   0.661E-03    0.363E-02
RMM:   4    -0.696940333495E+03   -0.71138E-06   -0.14943E-06  4331   0.336E-03    0.122E-02
RMM:   5    -0.696940333392E+03    0.10274E-06   -0.18941E-07  1845   0.262E-03    0.115E-02
RMM:   6    -0.696940334987E+03   -0.15948E-05   -0.61698E-08  1452   0.249E-03    0.212E-02
RMM:   7    -0.696940333292E+03    0.16949E-05   -0.27835E-08  1278   0.252E-03    0.125E-02
RMM:   8    -0.696940332869E+03    0.42285E-06   -0.32744E-08  1065   0.260E-03
  51 F= -.69694033E+03 E0= -.69636506E+03  d E =-.403847E-03  mag=     2.6262
       N       E                     dE             d eps       ncg     rms          rms(c)
DAV:   1    -0.696940430100E+03   -0.96808E-04   -0.46085E-04 14816   0.264E-02    0.783E-03
RMM:   2    -0.696940432856E+03   -0.27556E-05   -0.91394E-06  7473   0.607E-03    0.154E-02
RMM:   3    -0.696940432775E+03    0.80458E-07   -0.93125E-07  3415   0.320E-03    0.116E-02
RMM:   4    -0.696940433170E+03   -0.39474E-06   -0.49501E-08  1361   0.258E-03    0.105E-02
RMM:   5    -0.696940434919E+03   -0.17486E-05   -0.10958E-08  1222   0.258E-03    0.163E-02
RMM:   6    -0.696940434752E+03    0.16663E-06   -0.85086E-09  1159   0.257E-03    0.105E-02
RMM:   7    -0.696940435507E+03   -0.75535E-06   -0.26802E-08   981   0.258E-03    0.721E-03
RMM:   8    -0.696940436272E+03   -0.76468E-06   -0.95179E-09   926   0.257E-03
  52 F= -.69694044E+03 E0= -.69636515E+03  d E =-.103403E-03  mag=     2.6259
       N       E                     dE             d eps       ncg     rms          rms(c)
DAV:   1    -0.696940718823E+03   -0.28332E-03   -0.40550E-03 15392   0.783E-02    0.232E-02
RMM:   2    -0.696940731015E+03   -0.12191E-04   -0.70240E-05  7907   0.161E-02    0.411E-02
RMM:   3    -0.696940737270E+03   -0.62555E-05   -0.14113E-05  7709   0.845E-03    0.441E-02
RMM:   4    -0.696940728083E+03    0.91875E-05   -0.42526E-06  6045   0.432E-03    0.278E-02
RMM:   5    -0.696940729090E+03   -0.10074E-05   -0.21551E-06  5112   0.358E-03    0.231E-02
RMM:   6    -0.696940727715E+03    0.13750E-05   -0.11317E-06  3938   0.327E-03    0.190E-02
RMM:   7    -0.696940726902E+03    0.81361E-06   -0.28909E-07  2275   0.291E-03    0.102E-02
RMM:   8    -0.696940726728E+03    0.17316E-06   -0.20965E-07  1508   0.284E-03
  53 F= -.69694073E+03 E0= -.69636542E+03  d E =-.393859E-03  mag=     2.6257
       N       E                     dE             d eps       ncg     rms          rms(c)
DAV:   1    -0.696941260651E+03   -0.53375E-03   -0.16132E-02 15360   0.156E-01    0.456E-02
RMM:   2    -0.696941305356E+03   -0.44705E-04   -0.27922E-04  9610   0.329E-02    0.834E-02
RMM:   3    -0.696941295982E+03    0.93736E-05   -0.57363E-05  7938   0.158E-02    0.520E-02
RMM:   4    -0.696941396576E+03   -0.10059E-03   -0.23102E-05  7822   0.899E-03    0.134E-01
RMM:   5    -0.696941279427E+03    0.11715E-03   -0.13026E-05  7408   0.762E-03    0.407E-02
RMM:   6    -0.696941287304E+03   -0.78780E-05   -0.79775E-06  7112   0.561E-03    0.320E-02
RMM:   7    -0.696941284582E+03    0.27222E-05   -0.37934E-06  5890   0.425E-03    0.219E-02
RMM:   8    -0.696941282715E+03    0.18673E-05   -0.10257E-06  3427   0.305E-03
  54 F= -.69694128E+03 E0= -.69636592E+03  d E =-.949846E-03  mag=     2.6254
       N       E                     dE             d eps       ncg     rms          rms(c)
DAV:   1    -0.696942232444E+03   -0.94786E-03   -0.64284E-02 15360   0.312E-01    0.880E-02
RMM:   2    -0.696942370093E+03   -0.13765E-03   -0.10672E-03 14449   0.654E-02    0.136E-01
RMM:   3    -0.696942382435E+03   -0.12343E-04   -0.24600E-04  9601   0.276E-02    0.107E-01
RMM:   4    -0.696942525218E+03   -0.14278E-03   -0.80441E-05  8399   0.188E-02    0.185E-01
RMM:   5    -0.696942335533E+03    0.18969E-03   -0.41257E-05  8116   0.127E-02    0.824E-02
RMM:   6    -0.696942342324E+03   -0.67914E-05   -0.28295E-05  7994   0.106E-02    0.700E-02
RMM:   7    -0.696942324763E+03    0.17561E-04   -0.17442E-05  7279   0.829E-03    0.439E-02
RMM:   8    -0.696942317101E+03    0.76627E-05   -0.74119E-06  6762   0.546E-03
  55 F= -.69694232E+03 E0= -.69636683E+03  d E =-.198423E-02  mag=     2.6251
       N       E                     dE             d eps       ncg     rms          rms(c)
DAV:   1    -0.696946347746E+03   -0.40230E-02   -0.25658E-01 15312   0.624E-01    0.166E-01
RMM:   2    -0.696947067368E+03   -0.71962E-03   -0.43013E-03 14848   0.131E-01    0.341E-01
RMM:   3    -0.696947231497E+03   -0.16413E-03   -0.11180E-03 14439   0.545E-02    0.294E-01
RMM:   4    -0.696947382751E+03   -0.15125E-03   -0.29071E-04 10432   0.299E-02    0.332E-01
RMM:   5    -0.696946767670E+03    0.61508E-03   -0.15535E-04  8896   0.263E-02    0.148E-01
RMM:   6    -0.696946766215E+03    0.14549E-05   -0.10795E-04  8654   0.197E-02    0.126E-01
RMM:   7    -0.696946739323E+03    0.26892E-04   -0.76949E-05  8362   0.167E-02    0.978E-02
RMM:   8    -0.696946693418E+03    0.45905E-04   -0.35778E-05  8063   0.116E-02
  56 F= -.69694669E+03 E0= -.69637095E+03  d E =-.636055E-02  mag=     2.6244
       N       E                     dE             d eps       ncg     rms          rms(c)
DAV:   1    -0.696950732285E+03   -0.39930E-02   -0.10248E+00 15200   0.125E+00    0.337E-01
RMM:   2    -0.696953259802E+03   -0.25275E-02   -0.17148E-02 14848   0.261E-01    0.629E-01
RMM:   3    -0.696952946384E+03    0.31342E-03   -0.43001E-03 16451   0.109E-01    0.377E-01
RMM:   4    -0.696956851799E+03   -0.39054E-02   -0.11925E-03 14440   0.549E-02    0.858E-01
RMM:   5    -0.696952427528E+03    0.44243E-02   -0.57325E-04 13472   0.465E-02    0.296E-01
RMM:   6    -0.696952491212E+03   -0.63684E-04   -0.45088E-04 12876   0.375E-02    0.256E-01
RMM:   7    -0.696952355308E+03    0.13590E-03   -0.32163E-04 10572   0.310E-02    0.188E-01
RMM:   8    -0.696952183538E+03    0.17177E-03   -0.13397E-04  8932   0.219E-02    0.809E-02
RMM:   9    -0.696952212733E+03   -0.29195E-04   -0.49575E-05  8516   0.143E-02
  57 F= -.69695221E+03 E0= -.69637604E+03  d E =-.118799E-01  mag=     2.6231
       N       E                     dE             d eps       ncg     rms          rms(c)
DAV:   1    -0.696952352686E+03   -0.16915E-03   -0.19928E-01 15360   0.549E-01    0.161E-01
RMM:   2    -0.696953120751E+03   -0.76806E-03   -0.33538E-03 14848   0.115E-01    0.358E-01
RMM:   3    -0.696953633373E+03   -0.51262E-03   -0.83296E-04 13843   0.491E-02    0.390E-01
RMM:   4    -0.696952905598E+03    0.72777E-03   -0.26208E-04  9950   0.292E-02    0.215E-01
RMM:   5    -0.696952720961E+03    0.18464E-03   -0.12450E-04  8670   0.241E-02    0.878E-02
RMM:   6    -0.696952770966E+03   -0.50005E-04   -0.94767E-05  8433   0.169E-02    0.109E-01
RMM:   7    -0.696952762310E+03    0.86555E-05   -0.61620E-05  8222   0.150E-02    0.979E-02
RMM:   8    -0.696952698551E+03    0.63759E-04   -0.26883E-05  7770   0.101E-02
  58 F= -.69695270E+03 E0= -.69637661E+03  d E =-.123657E-01  mag=     2.6236
       N       E                     dE             d eps       ncg     rms          rms(c)
DAV:   1    -0.696953293665E+03   -0.53135E-03   -0.22569E-02 15520   0.185E-01    0.581E-02
RMM:   2    -0.696953441402E+03   -0.14774E-03   -0.40282E-04 11186   0.398E-02    0.154E-01
RMM:   3    -0.696953459677E+03   -0.18275E-04   -0.99118E-05  8155   0.196E-02    0.148E-01
RMM:   4    -0.696953366432E+03    0.93245E-04   -0.35695E-05  7922   0.127E-02    0.879E-02
RMM:   5    -0.696953345011E+03    0.21422E-04   -0.14784E-05  7710   0.818E-03    0.382E-02
RMM:   6    -0.696953349645E+03   -0.46339E-05   -0.11383E-05  6960   0.631E-03    0.368E-02
RMM:   7    -0.696953356288E+03   -0.66435E-05   -0.75280E-06  6747   0.529E-03    0.248E-02
RMM:   8    -0.696953357246E+03   -0.95833E-06   -0.25334E-06  4655   0.367E-03
  59 F= -.69695336E+03 E0= -.69637719E+03  d E =-.130244E-01  mag=     2.6240
       N       E                     dE             d eps       ncg     rms          rms(c)
DAV:   1    -0.696953428820E+03   -0.72532E-04   -0.13123E-02 15360   0.141E-01    0.385E-02
RMM:   2    -0.696953533028E+03   -0.10421E-03   -0.22940E-04  9130   0.294E-02    0.114E-01
RMM:   3    -0.696953494658E+03    0.38370E-04   -0.51938E-05  7964   0.155E-02    0.951E-02
RMM:   4    -0.696953451242E+03    0.43416E-04   -0.16108E-05  7685   0.846E-03    0.305E-02
RMM:   5    -0.696953464088E+03   -0.12845E-04   -0.75975E-06  6884   0.571E-03    0.390E-02
RMM:   6    -0.696953461137E+03    0.29509E-05   -0.60412E-06  7091   0.509E-03    0.273E-02
RMM:   7    -0.696953462555E+03   -0.14179E-05   -0.31665E-06  5666   0.399E-03    0.197E-02
RMM:   8    -0.696953464121E+03   -0.15658E-05   -0.10683E-06  3466   0.306E-03
  60 F= -.69695346E+03 E0= -.69637724E+03  d E =-.131313E-01  mag=     2.6245
       N       E                     dE             d eps       ncg     rms          rms(c)
DAV:   1    -0.696953486054E+03   -0.23499E-04   -0.18795E-03 14864   0.535E-02    0.187E-02
RMM:   2    -0.696953532682E+03   -0.46628E-04   -0.39973E-05  7852   0.119E-02    0.932E-02
RMM:   3    -0.696953492615E+03    0.40067E-04   -0.10561E-05  7474   0.717E-03    0.475E-02
RMM:   4    -0.696953484975E+03    0.76401E-05   -0.30203E-06  5792   0.414E-03    0.138E-02
RMM:   5    -0.696953483146E+03    0.18285E-05   -0.34013E-07  2446   0.284E-03    0.148E-02
RMM:   6    -0.696953480093E+03    0.30536E-05   -0.60237E-07  2679   0.309E-03    0.150E-02
RMM:   7    -0.696953474920E+03    0.51730E-05   -0.80657E-07  2422   0.304E-03    0.999E-03
RMM:   8    -0.696953472031E+03    0.28887E-05   -0.51401E-07  1925   0.290E-03
  61 F= -.69695347E+03 E0= -.69637725E+03  d E =-.131392E-01  mag=     2.6250
       N       E                     dE             d eps       ncg     rms          rms(c)
DAV:   1    -0.696953495276E+03   -0.20357E-04   -0.27224E-05  8912   0.717E-03    0.725E-03
RMM:   2    -0.696953518383E+03   -0.23106E-04   -0.44346E-06  6129   0.424E-03    0.615E-02
RMM:   3    -0.696953493097E+03    0.25285E-04   -0.12922E-06  4250   0.323E-03    0.163E-02
RMM:   4    -0.696953493223E+03   -0.12518E-06   -0.28604E-08  1237   0.225E-03    0.647E-03
RMM:   5    -0.696953493228E+03   -0.51150E-08   -0.16628E-09   891   0.220E-03    0.911E-03
RMM:   6    -0.696953493175E+03    0.53042E-07   -0.42985E-10   849   0.224E-03    0.100E-02
RMM:   7    -0.696953492428E+03    0.74714E-06   -0.11863E-09   819   0.228E-03    0.521E-03
RMM:   8    -0.696953492038E+03    0.38917E-06   -0.39884E-09   848   0.230E-03
  62 F= -.69695349E+03 E0= -.69637726E+03  d E =-.200076E-04  mag=     2.6256
       N       E                     dE             d eps       ncg     rms          rms(c)
DAV:   1    -0.696953561850E+03   -0.69422E-04   -0.28020E-04 13584   0.204E-02    0.639E-03
RMM:   2    -0.696953567563E+03   -0.57133E-05   -0.80439E-06  6849   0.571E-03    0.292E-02
RMM:   3    -0.696953564773E+03    0.27899E-05   -0.14626E-06  4242   0.339E-03    0.152E-02
RMM:   4    -0.696953563373E+03    0.14001E-05   -0.32944E-09  1073   0.247E-03    0.412E-03
RMM:   5    -0.696953564704E+03   -0.13311E-05   -0.10648E-09   890   0.245E-03    0.802E-03
RMM:   6    -0.696953565072E+03   -0.36774E-06   -0.41508E-10   896   0.243E-03    0.612E-03
RMM:   7    -0.696953566076E+03   -0.10036E-05   -0.18047E-09   848   0.245E-03    0.316E-03
RMM:   8    -0.696953567038E+03   -0.96256E-06   -0.38142E-10   847   0.247E-03
  63 F= -.69695357E+03 E0= -.69637733E+03  d E =-.950073E-04  mag=     2.6261
       N       E                     dE             d eps       ncg     rms          rms(c)
DAV:   1    -0.696953669206E+03   -0.10313E-03   -0.11017E-03 15024   0.400E-02    0.111E-02
RMM:   2    -0.696953673374E+03   -0.41675E-05   -0.19184E-05  7710   0.866E-03    0.215E-02
RMM:   3    -0.696953672623E+03    0.75084E-06   -0.33688E-06  6252   0.438E-03    0.735E-03
RMM:   4    -0.696953674617E+03   -0.19943E-05   -0.19599E-07  2058   0.255E-03    0.918E-03
RMM:   5    -0.696953675726E+03   -0.11087E-05   -0.55632E-08  1617   0.255E-03    0.850E-03
RMM:   6    -0.696953677512E+03   -0.17859E-05   -0.31222E-08  1237   0.252E-03    0.102E-02
RMM:   7    -0.696953678767E+03   -0.12553E-05   -0.78053E-08  1181   0.258E-03    0.118E-02
RMM:   8    -0.696953679230E+03   -0.46322E-06   -0.24507E-08  1042   0.259E-03
  64 F= -.69695368E+03 E0= -.69637742E+03  d E =-.207199E-03  mag=     2.6266
       N       E                     dE             d eps       ncg     rms          rms(c)
DAV:   1    -0.696953735112E+03   -0.56344E-04   -0.43638E-03 15376   0.797E-02    0.223E-02
RMM:   2    -0.696953748256E+03   -0.13144E-04   -0.74763E-05  7921   0.170E-02    0.439E-02
RMM:   3    -0.696953750757E+03   -0.25009E-05   -0.14911E-05  7615   0.851E-03    0.357E-02
RMM:   4    -0.696953757071E+03   -0.63145E-05   -0.48220E-06  6243   0.437E-03    0.456E-02
RMM:   5    -0.696953747726E+03    0.93453E-05   -0.23802E-06  5675   0.380E-03    0.165E-02
RMM:   6    -0.696953749893E+03   -0.21665E-05   -0.76668E-07  3256   0.308E-03    0.172E-02
RMM:   7    -0.696953752038E+03   -0.21453E-05   -0.39327E-07  2440   0.290E-03    0.136E-02
RMM:   8    -0.696953752616E+03   -0.57805E-06   -0.26912E-07  1668   0.292E-03
  65 F= -.69695375E+03 E0= -.69637746E+03  d E =-.280585E-03  mag=     2.6269
       N       E                     dE             d eps       ncg     rms          rms(c)
DAV:   1    -0.696953888787E+03   -0.13675E-03   -0.89764E-06  8624   0.536E-03    0.646E-03
RMM:   2    -0.696953896612E+03   -0.78249E-05   -0.19925E-06  5253   0.362E-03    0.361E-02
RMM:   3    -0.696953892543E+03    0.40688E-05   -0.10647E-07  1852   0.248E-03    0.205E-02
RMM:   4    -0.696953890456E+03    0.20870E-05   -0.71300E-09  1125   0.231E-03    0.636E-03
RMM:   5    -0.696953890402E+03    0.53609E-07    0.00000E+00   885   0.222E-03    0.575E-03
RMM:   6    -0.696953890456E+03   -0.53820E-07    0.00000E+00   722   0.223E-03    0.553E-03
RMM:   7    -0.696953890814E+03   -0.35763E-06   -0.13236E-09   674   0.229E-03    0.384E-03
RMM:   8    -0.696953891693E+03   -0.87966E-06   -0.64531E-08  1046   0.243E-03
  66 F= -.69695389E+03 E0= -.69637759E+03  d E =-.139078E-03  mag=     2.6272
       N       E                     dE             d eps       ncg     rms          rms(c)
DAV:   1    -0.696954292357E+03   -0.40154E-03   -0.55109E-05  8832   0.120E-02    0.689E-03
RMM:   2    -0.696954293450E+03   -0.10929E-05   -0.30191E-06  5753   0.422E-03    0.831E-03
RMM:   3    -0.696954297858E+03   -0.44082E-05   -0.10299E-07  1416   0.254E-03    0.258E-02
RMM:   4    -0.696954293956E+03    0.39027E-05   -0.68192E-09  1175   0.241E-03    0.714E-03
RMM:   5    -0.696954294072E+03   -0.11671E-06   -0.68727E-10   976   0.220E-03    0.433E-03
RMM:   6    -0.696954294541E+03   -0.46824E-06    0.00000E+00   791   0.221E-03    0.291E-03
RMM:   7    -0.696954295324E+03   -0.78354E-06    0.00000E+00   712   0.221E-03    0.154E-03
RMM:   8    -0.696954295914E+03   -0.58959E-06    0.00000E+00   685   0.225E-03
  67 F= -.69695430E+03 E0= -.69637799E+03  d E =-.543298E-03  mag=     2.6275
       N       E                     dE             d eps       ncg     rms          rms(c)
DAV:   1    -0.696955079734E+03   -0.78441E-03   -0.22146E-04 14240   0.231E-02    0.403E-03
RMM:   2    -0.696955082770E+03   -0.30361E-05   -0.47809E-06  5765   0.459E-03    0.169E-02
RMM:   3    -0.696955081158E+03    0.16116E-05   -0.20917E-07  1606   0.259E-03    0.483E-03
RMM:   4    -0.696955081613E+03   -0.45499E-06   -0.66118E-09   974   0.241E-03    0.708E-03
RMM:   5    -0.696955082191E+03   -0.57832E-06   -0.43687E-10   791   0.240E-03    0.573E-03
RMM:   6    -0.696955083276E+03   -0.10849E-05   -0.12508E-09   827   0.242E-03    0.465E-03
RMM:   7    -0.696955084662E+03   -0.13860E-05   -0.49886E-09   886   0.244E-03    0.222E-03
RMM:   8    -0.696955085590E+03   -0.92731E-06   -0.11272E-09   840   0.245E-03
  68 F= -.69695509E+03 E0= -.69637877E+03  d E =-.133297E-02  mag=     2.6277
       N       E                     dE             d eps       ncg     rms          rms(c)
DAV:   1    -0.696956585412E+03   -0.15007E-02   -0.84834E-04 14848   0.450E-02    0.791E-03
RMM:   2    -0.696956589869E+03   -0.44577E-05   -0.18059E-05  7660   0.805E-03    0.191E-02
RMM:   3    -0.696956588658E+03    0.12117E-05   -0.18980E-06  4632   0.378E-03    0.963E-03
RMM:   4    -0.696956590300E+03   -0.16424E-05   -0.10690E-07  1589   0.247E-03    0.150E-02
RMM:   5    -0.696956590427E+03   -0.12640E-06   -0.25941E-08  1307   0.237E-03    0.623E-03
RMM:   6    -0.696956591980E+03   -0.15529E-05   -0.44908E-08  1367   0.236E-03    0.674E-03
RMM:   7    -0.696956593186E+03   -0.12062E-05   -0.27263E-08  1220   0.237E-03    0.427E-03
RMM:   8    -0.696956594198E+03   -0.10121E-05   -0.17139E-08  1085   0.237E-03
  69 F= -.69695659E+03 E0= -.69638027E+03  d E =-.284158E-02  mag=     2.6279
       N       E                     dE             d eps       ncg     rms          rms(c)
DAV:   1    -0.696959309089E+03   -0.27159E-02   -0.33780E-03 15040   0.896E-02    0.159E-02
RMM:   2    -0.696959327483E+03   -0.18394E-04   -0.72005E-05  7908   0.161E-02    0.487E-02
RMM:   3    -0.696959315523E+03    0.11960E-04   -0.10683E-05  7444   0.749E-03    0.164E-02
RMM:   4    -0.696959322407E+03   -0.68842E-05   -0.24818E-06  4993   0.367E-03    0.318E-02
RMM:   5    -0.696959317949E+03    0.44576E-05   -0.44961E-07  2524   0.289E-03    0.176E-02
RMM:   6    -0.696959318382E+03   -0.43229E-06   -0.28350E-07  2176   0.281E-03    0.128E-02
RMM:   7    -0.696959318052E+03    0.33020E-06   -0.16062E-07  1900   0.276E-03    0.881E-03
RMM:   8    -0.696959318113E+03   -0.61598E-07   -0.16928E-07  1732   0.275E-03
  70 F= -.69695932E+03 E0= -.69638297E+03  d E =-.556550E-02  mag=     2.6279
       N       E                     dE             d eps       ncg     rms          rms(c)
DAV:   1    -0.696963630647E+03   -0.43126E-02   -0.13517E-02 15248   0.179E-01    0.315E-02
RMM:   2    -0.696963673248E+03   -0.42601E-04   -0.27733E-04  9156   0.324E-02    0.723E-02
RMM:   3    -0.696963654824E+03    0.18424E-04   -0.45080E-05  7944   0.145E-02    0.336E-02
RMM:   4    -0.696963684649E+03   -0.29825E-04   -0.12659E-05  7466   0.735E-03    0.773E-02
RMM:   5    -0.696963658213E+03    0.26436E-04   -0.54840E-06  6635   0.514E-03    0.450E-02
RMM:   6    -0.696963647550E+03    0.10662E-04   -0.31183E-06  5450   0.386E-03    0.316E-02
RMM:   7    -0.696963643742E+03    0.38090E-05   -0.18146E-06  4684   0.352E-03    0.169E-02
RMM:   8    -0.696963637878E+03    0.58634E-05   -0.70899E-07  3038   0.305E-03
  71 F= -.69696364E+03 E0= -.69638725E+03  d E =-.988526E-02  mag=     2.6276
       N       E                     dE             d eps       ncg     rms          rms(c)
DAV:   1    -0.696967930750E+03   -0.42870E-02   -0.54174E-02 15344   0.359E-01    0.641E-02
RMM:   2    -0.696968105277E+03   -0.17453E-03   -0.10830E-03 13735   0.646E-02    0.148E-01
RMM:   3    -0.696968033892E+03    0.71385E-04   -0.20501E-04  8955   0.259E-02    0.729E-02
RMM:   4    -0.696968105453E+03   -0.71561E-04   -0.49914E-05  8178   0.156E-02    0.131E-01
RMM:   5    -0.696968018847E+03    0.86606E-04   -0.17608E-05  7906   0.878E-03    0.715E-02
RMM:   6    -0.696967992944E+03    0.25903E-04   -0.14297E-05  7334   0.698E-03    0.543E-02
RMM:   7    -0.696967973024E+03    0.19920E-04   -0.86926E-06  7031   0.630E-03    0.342E-02
RMM:   8    -0.696967953774E+03    0.19250E-04   -0.42290E-06  6046   0.436E-03
  72 F= -.69696795E+03 E0= -.69639148E+03  d E =-.142012E-01  mag=     2.6268
       N       E                     dE             d eps       ncg     rms          rms(c)
DAV:   1    -0.696968233362E+03   -0.26034E-03   -0.57134E-03 15568   0.117E-01    0.278E-02
RMM:   2    -0.696968346958E+03   -0.11360E-03   -0.13070E-04  8357   0.218E-02    0.132E-01
RMM:   3    -0.696968238063E+03    0.10889E-03   -0.26461E-05  7919   0.119E-02    0.503E-02
RMM:   4    -0.696968235443E+03    0.26206E-05   -0.69579E-06  7239   0.575E-03    0.311E-02
RMM:   5    -0.696968226067E+03    0.93761E-05   -0.17536E-06  4985   0.358E-03    0.166E-02
RMM:   6    -0.696968220674E+03    0.53929E-05   -0.15851E-06  4115   0.330E-03    0.292E-02
RMM:   7    -0.696968211075E+03    0.95988E-05   -0.10392E-06  3534   0.318E-03    0.157E-02
RMM:   8    -0.696968206704E+03    0.43713E-05   -0.12113E-07  1804   0.262E-03
  73 F= -.69696821E+03 E0= -.69639170E+03  d E =-.144541E-01  mag=     2.6257
       N       E                     dE             d eps       ncg     rms          rms(c)
DAV:   1    -0.696969705129E+03   -0.14941E-02   -0.31831E-03 15264   0.816E-02    0.184E-02
RMM:   2    -0.696969774187E+03   -0.69058E-04   -0.68956E-05  7927   0.169E-02    0.102E-01
RMM:   3    -0.696969711496E+03    0.62691E-04   -0.13118E-05  7872   0.841E-03    0.243E-02
RMM:   4    -0.696969718362E+03   -0.68663E-05   -0.43227E-06  6369   0.422E-03    0.415E-02
RMM:   5    -0.696969713608E+03    0.47543E-05   -0.11967E-06  4223   0.337E-03    0.195E-02
RMM:   6    -0.696969711994E+03    0.16136E-05   -0.34780E-07  2433   0.292E-03    0.121E-02
RMM:   7    -0.696969715098E+03   -0.31039E-05   -0.53557E-07  2568   0.294E-03    0.138E-02
RMM:   8    -0.696969716477E+03   -0.13791E-05   -0.14293E-07  1644   0.273E-03
  74 F= -.69696972E+03 E0= -.69639319E+03  d E =-.150977E-02  mag=     2.6247
       N       E                     dE             d eps       ncg     rms          rms(c)
DAV:   1    -0.696973232512E+03   -0.35174E-02   -0.28612E-02 15360   0.244E-01    0.506E-02
RMM:   2    -0.696973293786E+03   -0.61273E-04   -0.55884E-04 13514   0.496E-02    0.752E-02
RMM:   3    -0.696973299375E+03   -0.55898E-05   -0.12216E-04  8248   0.201E-02    0.406E-02
RMM:   4    -0.696973526888E+03   -0.22751E-03   -0.40265E-05  7947   0.131E-02    0.198E-01
RMM:   5    -0.696973290309E+03    0.23658E-03   -0.16735E-05  7917   0.893E-03    0.495E-02
RMM:   6    -0.696973299953E+03   -0.96432E-05   -0.10034E-05  6955   0.634E-03    0.395E-02
RMM:   7    -0.696973300919E+03   -0.96579E-06   -0.53415E-06  6463   0.501E-03    0.305E-02
RMM:   8    -0.696973301182E+03   -0.26364E-06   -0.14646E-06  4234   0.343E-03
  75 F= -.69697330E+03 E0= -.69639671E+03  d E =-.509448E-02  mag=     2.6237
       N       E                     dE             d eps       ncg     rms          rms(c)
DAV:   1    -0.696975923207E+03   -0.26223E-02   -0.11425E-01 15360   0.488E-01    0.101E-01
RMM:   2    -0.696976332266E+03   -0.40906E-03   -0.21978E-03 14844   0.982E-02    0.226E-01
RMM:   3    -0.696976161432E+03    0.17083E-03   -0.52874E-04 13207   0.383E-02    0.113E-01
RMM:   4    -0.696976496540E+03   -0.33511E-03   -0.99331E-05  8519   0.203E-02    0.237E-01
RMM:   5    -0.696976210250E+03    0.28629E-03   -0.64400E-05  8360   0.167E-02    0.129E-01
RMM:   6    -0.696976192961E+03    0.17290E-04   -0.46752E-05  8254   0.132E-02    0.103E-01
RMM:   7    -0.696976174412E+03    0.18548E-04   -0.32372E-05  8108   0.112E-02    0.558E-02
RMM:   8    -0.696976174269E+03    0.14320E-06   -0.10087E-05  7045   0.706E-03
  76 F= -.69697617E+03 E0= -.69639947E+03  d E =-.796757E-02  mag=     2.6228
       N       E                     dE             d eps       ncg     rms          rms(c)
DAV:   1    -0.696978190607E+03   -0.20162E-02   -0.17233E-02 15328   0.178E-01    0.614E-02
RMM:   2    -0.696979461125E+03   -0.12705E-02   -0.43132E-04 12024   0.383E-02    0.439E-01
RMM:   3    -0.696978162778E+03    0.12983E-02   -0.11447E-04  8293   0.225E-02    0.648E-02
RMM:   4    -0.696978229817E+03   -0.67039E-04   -0.40710E-05  8013   0.139E-02    0.473E-02
RMM:   5    -0.696978239115E+03   -0.92986E-05   -0.16546E-05  7649   0.861E-03    0.467E-02
RMM:   6    -0.696978248971E+03   -0.98560E-05   -0.11866E-05  7054   0.704E-03    0.475E-02
RMM:   7    -0.696978247096E+03    0.18758E-05   -0.49015E-06  6478   0.493E-03    0.245E-02
RMM:   8    -0.696978251989E+03   -0.48931E-05   -0.17721E-06  4080   0.335E-03
  77 F= -.69697825E+03 E0= -.69640146E+03  d E =-.207772E-02  mag=     2.6221
       N       E                     dE             d eps       ncg     rms          rms(c)
DAV:   1    -0.696979989639E+03   -0.17425E-02   -0.86323E-02 15360   0.398E-01    0.106E-01
RMM:   2    -0.696980283129E+03   -0.29349E-03   -0.17774E-03 14754   0.830E-02    0.206E-01
RMM:   3    -0.696980241908E+03    0.41221E-04   -0.40292E-04 11747   0.340E-02    0.154E-01
RMM:   4    -0.696980516416E+03   -0.27451E-03   -0.10563E-04  8516   0.202E-02    0.253E-01
RMM:   5    -0.696980239722E+03    0.27669E-03   -0.85594E-05  8414   0.181E-02    0.151E-01
RMM:   6    -0.696980167320E+03    0.72402E-04   -0.48659E-05  8158   0.144E-02    0.773E-02
RMM:   7    -0.696980176605E+03   -0.92847E-05   -0.33241E-05  8018   0.107E-02    0.572E-02
RMM:   8    -0.696980175037E+03    0.15680E-05   -0.15230E-05  7034   0.770E-03
  78 F= -.69698018E+03 E0= -.69640330E+03  d E =-.400077E-02  mag=     2.6217
       N       E                     dE             d eps       ncg     rms          rms(c)
DAV:   1    -0.696982206418E+03   -0.20298E-02   -0.32633E-02 15392   0.235E-01    0.617E-02
RMM:   2    -0.696982341965E+03   -0.13555E-03   -0.73384E-04 13595   0.505E-02    0.124E-01
RMM:   3    -0.696982319289E+03    0.22677E-04   -0.14303E-04  8501   0.217E-02    0.103E-01
RMM:   4    -0.696982313182E+03    0.61065E-05   -0.43095E-05  8032   0.145E-02    0.837E-02
RMM:   5    -0.696982314586E+03   -0.14042E-05   -0.23004E-05  7942   0.870E-03    0.883E-02
RMM:   6    -0.696982282921E+03    0.31665E-04   -0.98207E-06  7099   0.707E-03    0.440E-02
RMM:   7    -0.696982287027E+03   -0.41054E-05   -0.89622E-06  7121   0.524E-03    0.346E-02
RMM:   8    -0.696982287060E+03   -0.32880E-07   -0.54698E-06  6235   0.453E-03
  79 F= -.69698229E+03 E0= -.69640532E+03  d E =-.211202E-02  mag=     2.6214
       N       E                     dE             d eps       ncg     rms          rms(c)
DAV:   1    -0.696983027569E+03   -0.74054E-03   -0.42030E-02 15360   0.267E-01    0.723E-02
RMM:   2    -0.696983424969E+03   -0.39740E-03   -0.94436E-04 14130   0.572E-02    0.247E-01
RMM:   3    -0.696983289666E+03    0.13530E-03   -0.21498E-04  9102   0.262E-02    0.183E-01
RMM:   4    -0.696983119960E+03    0.16971E-03   -0.77586E-05  8229   0.194E-02    0.934E-02
RMM:   5    -0.696983151356E+03   -0.31397E-04   -0.33959E-05  7973   0.110E-02    0.943E-02
RMM:   6    -0.696983105884E+03    0.45472E-04   -0.16666E-05  7733   0.862E-03    0.560E-02
RMM:   7    -0.696983106007E+03   -0.12296E-06   -0.13849E-05  7230   0.654E-03    0.388E-02
RMM:   8    -0.696983103303E+03    0.27036E-05   -0.65256E-06  6676   0.511E-03
  80 F= -.69698310E+03 E0= -.69640606E+03  d E =-.292827E-02  mag=     2.6212
       N       E                     dE             d eps       ncg     rms          rms(c)
DAV:   1    -0.696984129571E+03   -0.10236E-02   -0.20748E-02 15376   0.206E-01    0.403E-02
RMM:   2    -0.696984276484E+03   -0.14691E-03   -0.41512E-04 12061   0.421E-02    0.149E-01
RMM:   3    -0.696984170138E+03    0.10635E-03   -0.89059E-05  8105   0.183E-02    0.565E-02
RMM:   4    -0.696984236317E+03   -0.66179E-04   -0.26849E-05  7890   0.113E-02    0.116E-01
RMM:   5    -0.696984177560E+03    0.58756E-04   -0.12545E-05  7591   0.731E-03    0.588E-02
RMM:   6    -0.696984174034E+03    0.35260E-05   -0.62407E-06  6935   0.527E-03    0.423E-02
RMM:   7    -0.696984181037E+03   -0.70028E-05   -0.39392E-06  5989   0.404E-03    0.358E-02
RMM:   8    -0.696984182161E+03   -0.11242E-05   -0.77930E-07  3425   0.305E-03
  81 F= -.69698418E+03 E0= -.69640710E+03  d E =-.107886E-02  mag=     2.6211
       N       E                     dE             d eps       ncg     rms          rms(c)
DAV:   1    -0.696984304660E+03   -0.12362E-03   -0.46582E-03 15536   0.975E-02    0.299E-02
RMM:   2    -0.696984412092E+03   -0.10743E-03   -0.10796E-04  8068   0.205E-02    0.118E-01
RMM:   3    -0.696984377075E+03    0.35017E-04   -0.31385E-05  7893   0.122E-02    0.113E-01
RMM:   4    -0.696984333351E+03    0.43723E-04   -0.86767E-06  7473   0.672E-03    0.638E-02
RMM:   5    -0.696984313254E+03    0.20098E-04   -0.22244E-06  5494   0.363E-03    0.327E-02
RMM:   6    -0.696984318690E+03   -0.54366E-05   -0.13591E-06  4211   0.330E-03    0.282E-02
RMM:   7    -0.696984319047E+03   -0.35650E-06   -0.11998E-06  4005   0.328E-03    0.224E-02
RMM:   8    -0.696984318422E+03    0.62487E-06   -0.16201E-07  2032   0.285E-03
  82 F= -.69698432E+03 E0= -.69640719E+03  d E =-.121512E-02  mag=     2.6211
       N       E                     dE             d eps       ncg     rms          rms(c)
DAV:   1    -0.696984568520E+03   -0.24947E-03   -0.60100E-03 15440   0.112E-01    0.229E-02
RMM:   2    -0.696984591774E+03   -0.23253E-04   -0.12979E-04  8032   0.228E-02    0.533E-02
RMM:   3    -0.696984580719E+03    0.11055E-04   -0.22185E-05  7814   0.107E-02    0.277E-02
RMM:   4    -0.696984608952E+03   -0.28233E-04   -0.76671E-06  7018   0.552E-03    0.710E-02
RMM:   5    -0.696984581596E+03    0.27355E-04   -0.34564E-06  6365   0.447E-03    0.322E-02
RMM:   6    -0.696984580530E+03    0.10660E-05   -0.75430E-07  3370   0.311E-03    0.213E-02
RMM:   7    -0.696984580975E+03   -0.44429E-06   -0.57468E-07  2716   0.302E-03    0.103E-02
RMM:   8    -0.696984581712E+03   -0.73783E-06   -0.43821E-07  2306   0.303E-03
  83 F= -.69698458E+03 E0= -.69640742E+03  d E =-.263290E-03  mag=     2.6214
       N       E                     dE             d eps       ncg     rms          rms(c)
DAV:   1    -0.696984602778E+03   -0.21804E-04   -0.11092E-03 14912   0.480E-02    0.105E-02
RMM:   2    -0.696984607127E+03   -0.43492E-05   -0.25348E-05  7830   0.102E-02    0.241E-02
RMM:   3    -0.696984604328E+03    0.27990E-05   -0.43605E-06  7033   0.496E-03    0.108E-02
RMM:   4    -0.696984612277E+03   -0.79490E-05   -0.26020E-07  2379   0.274E-03    0.359E-02
RMM:   5    -0.696984602225E+03    0.10052E-04   -0.22455E-08  1791   0.258E-03    0.861E-03
RMM:   6    -0.696984603531E+03   -0.13062E-05   -0.31744E-08  1457   0.261E-03    0.121E-02
RMM:   7    -0.696984601570E+03    0.19616E-05   -0.22632E-08  1208   0.257E-03    0.836E-03
RMM:   8    -0.696984600260E+03    0.13098E-05   -0.44920E-08  1172   0.259E-03
  84 F= -.69698460E+03 E0= -.69640743E+03  d E =-.281838E-03  mag=     2.6217
       N       E                     dE             d eps       ncg     rms          rms(c)
DAV:   1    -0.696984756444E+03   -0.15487E-03   -0.58289E-03 15456   0.102E-01    0.227E-02
RMM:   2    -0.696984784620E+03   -0.28176E-04   -0.11420E-04  8037   0.215E-02    0.628E-02
RMM:   3    -0.696984765538E+03    0.19082E-04   -0.21617E-05  7759   0.105E-02    0.304E-02
RMM:   4    -0.696984776180E+03   -0.10642E-04   -0.62558E-06  6832   0.526E-03    0.450E-02
RMM:   5    -0.696984773224E+03    0.29557E-05   -0.38855E-06  6463   0.428E-03    0.365E-02
RMM:   6    -0.696984766675E+03    0.65489E-05   -0.21714E-06  5367   0.373E-03    0.216E-02
RMM:   7    -0.696984767253E+03   -0.57757E-06   -0.10604E-06  3170   0.304E-03    0.126E-02
RMM:   8    -0.696984767209E+03    0.43998E-07   -0.33326E-07  2112   0.284E-03
  85 F= -.69698477E+03 E0= -.69640759E+03  d E =-.166949E-03  mag=     2.6220
       N       E                     dE             d eps       ncg     rms          rms(c)
DAV:   1    -0.696984777985E+03   -0.10732E-04   -0.80968E-04 14592   0.382E-02    0.113E-02
RMM:   2    -0.696984792114E+03   -0.14129E-04   -0.18197E-05  7743   0.845E-03    0.477E-02
RMM:   3    -0.696984780804E+03    0.11310E-04   -0.42072E-06  7134   0.492E-03    0.230E-02
RMM:   4    -0.696984780070E+03    0.73428E-06   -0.11867E-07  2050   0.256E-03    0.908E-03
RMM:   5    -0.696984781467E+03   -0.13968E-05   -0.41316E-08  1464   0.253E-03    0.158E-02
RMM:   6    -0.696984781213E+03    0.25397E-06   -0.67262E-09  1177   0.248E-03    0.130E-02
RMM:   7    -0.696984780945E+03    0.26735E-06   -0.15649E-08  1099   0.258E-03    0.806E-03
RMM:   8    -0.696984780695E+03    0.25025E-06   -0.20196E-09   939   0.258E-03
  86 F= -.69698478E+03 E0= -.69640760E+03  d E =-.180435E-03  mag=     2.6223
       N       E                     dE             d eps       ncg     rms          rms(c)
DAV:   1    -0.696984958297E+03   -0.17735E-03   -0.52986E-03 15392   0.920E-02    0.259E-02
RMM:   2    -0.696984971358E+03   -0.13062E-04   -0.98255E-05  7946   0.199E-02    0.499E-02
RMM:   3    -0.696984968376E+03    0.29825E-05   -0.18435E-05  7656   0.988E-03    0.274E-02
RMM:   4    -0.696985004006E+03   -0.35630E-04   -0.71716E-06  6658   0.511E-03    0.813E-02
RMM:   5    -0.696984972299E+03    0.31707E-04   -0.68708E-06  6942   0.528E-03    0.408E-02
RMM:   6    -0.696984971554E+03    0.74559E-06   -0.33976E-06  6214   0.428E-03    0.243E-02
RMM:   7    -0.696984969584E+03    0.19695E-05   -0.86719E-07  3322   0.312E-03    0.145E-02
RMM:   8    -0.696984970042E+03   -0.45764E-06   -0.84258E-08  1620   0.277E-03
  87 F= -.69698497E+03 E0= -.69640781E+03  d E =-.189347E-03  mag=     2.6226
       N       E                     dE             d eps       ncg     rms          rms(c)
DAV:   1    -0.696985060925E+03   -0.91341E-04   -0.11114E-02 15360   0.134E-01    0.388E-02
RMM:   2    -0.696985085847E+03   -0.24923E-04   -0.20255E-04  8831   0.282E-02    0.642E-02
RMM:   3    -0.696985081973E+03    0.38740E-05   -0.38922E-05  7787   0.139E-02    0.385E-02
RMM:   4    -0.696985192898E+03   -0.11092E-03   -0.19154E-05  7678   0.791E-03    0.136E-01
RMM:   5    -0.696985079046E+03    0.11385E-03   -0.13347E-05  7319   0.766E-03    0.497E-02
RMM:   6    -0.696985089134E+03   -0.10088E-04   -0.76926E-06  7011   0.569E-03    0.427E-02
RMM:   7    -0.696985083267E+03    0.58677E-05   -0.37010E-06  6293   0.441E-03    0.163E-02
RMM:   8    -0.696985084879E+03   -0.16126E-05   -0.36548E-07  2397   0.268E-03
  88 F= -.69698508E+03 E0= -.69640798E+03  d E =-.304184E-03  mag=     2.6227
       N       E                     dE             d eps       ncg     rms          rms(c)
DAV:   1    -0.696985181674E+03   -0.98408E-04   -0.72111E-03 15488   0.116E-01    0.328E-02
RMM:   2    -0.696985233224E+03   -0.51549E-04   -0.15333E-04  8274   0.243E-02    0.968E-02
RMM:   3    -0.696985195793E+03    0.37430E-04   -0.28851E-05  7867   0.123E-02    0.425E-02
RMM:   4    -0.696985223969E+03   -0.28176E-04   -0.95480E-06  7354   0.606E-03    0.758E-02
RMM:   5    -0.696985200134E+03    0.23836E-04   -0.87466E-06  6964   0.574E-03    0.425E-02
RMM:   6    -0.696985198114E+03    0.20198E-05   -0.52580E-06  6571   0.482E-03    0.270E-02
RMM:   7    -0.696985197924E+03    0.18982E-06   -0.15014E-06  4612   0.349E-03    0.151E-02
RMM:   8    -0.696985198974E+03   -0.10496E-05   -0.30170E-07  2135   0.275E-03
  89 F= -.69698520E+03 E0= -.69640812E+03  d E =-.114094E-03  mag=     2.6228
       N       E                     dE             d eps       ncg     rms          rms(c)
DAV:   1    -0.696985200383E+03   -0.24592E-05   -0.11493E-04 10688   0.153E-02    0.852E-03
RMM:   2    -0.696985214931E+03   -0.14548E-04   -0.93811E-06  7128   0.654E-03    0.498E-02
RMM:   3    -0.696985203502E+03    0.11429E-04   -0.25874E-06  5537   0.393E-03    0.261E-02
RMM:   4    -0.696985201294E+03    0.22086E-05   -0.88537E-08  1522   0.245E-03    0.528E-03
RMM:   5    -0.696985202163E+03   -0.86943E-06   -0.21514E-09   948   0.228E-03    0.568E-03
RMM:   6    -0.696985202589E+03   -0.42580E-06    0.00000E+00   865   0.229E-03    0.849E-03
RMM:   7    -0.696985202843E+03   -0.25418E-06   -0.81110E-09   951   0.234E-03    0.884E-03
RMM:   8    -0.696985202585E+03    0.25751E-06   -0.20661E-08  1071   0.245E-03
  90 F= -.69698520E+03 E0= -.69640813E+03  d E =-.117706E-03  mag=     2.6228
       N       E                     dE             d eps       ncg     rms          rms(c)
DAV:   1    -0.696985251391E+03   -0.48548E-04   -0.27698E-03 15440   0.717E-02    0.179E-02
RMM:   2    -0.696985262092E+03   -0.10702E-04   -0.54302E-05  7817   0.147E-02    0.451E-02
RMM:   3    -0.696985256245E+03    0.58473E-05   -0.98646E-06  7567   0.721E-03    0.303E-02
RMM:   4    -0.696985277436E+03   -0.21191E-04   -0.31129E-06  5270   0.370E-03    0.622E-02
RMM:   5    -0.696985250623E+03    0.26812E-04   -0.12321E-06  4212   0.333E-03    0.238E-02
RMM:   6    -0.696985254686E+03   -0.40629E-05   -0.13764E-06  3936   0.325E-03    0.234E-02
RMM:   7    -0.696985254902E+03   -0.21532E-06   -0.96874E-07  3325   0.309E-03    0.146E-02
RMM:   8    -0.696985255265E+03   -0.36338E-06   -0.83436E-07  2249   0.295E-03
  91 F= -.69698526E+03 E0= -.69640819E+03  d E =-.526796E-04  mag=     2.6227
       N       E                     dE             d eps       ncg     rms          rms(c)
DAV:   1    -0.696985255502E+03   -0.60014E-06   -0.35080E-06  8688   0.380E-03    0.102E-02
RMM:   2    -0.696985257930E+03   -0.24278E-05   -0.36497E-07  2527   0.263E-03    0.223E-02
RMM:   3    -0.696985259029E+03   -0.10989E-05   -0.65287E-09  1191   0.217E-03    0.225E-02
RMM:   4    -0.696985258013E+03    0.10160E-05   -0.40755E-09  1187   0.221E-03    0.237E-02
RMM:   5    -0.696985256762E+03    0.12507E-05   -0.30065E-09  1107   0.230E-03    0.205E-02
RMM:   6    -0.696985253874E+03    0.28876E-05   -0.14901E-09   928   0.229E-03    0.124E-02
RMM:   7    -0.696985253288E+03    0.58609E-06    0.00000E+00   876   0.224E-03    0.770E-03
RMM:   8    -0.696985252724E+03    0.56419E-06   -0.72425E-10   893   0.223E-03
  92 F= -.69698525E+03 E0= -.69640820E+03  d E =-.501385E-04  mag=     2.6226
       N       E                     dE             d eps       ncg     rms          rms(c)
DAV:   1    -0.696985287088E+03   -0.33800E-04   -0.17525E-03 15232   0.567E-02    0.150E-02
RMM:   2    -0.696985301673E+03   -0.14585E-04   -0.35860E-05  7768   0.121E-02    0.566E-02
RMM:   3    -0.696985288098E+03    0.13575E-04   -0.65809E-06  7336   0.600E-03    0.283E-02
RMM:   4    -0.696985295307E+03   -0.72094E-05   -0.10903E-06  3537   0.314E-03    0.416E-02
RMM:   5    -0.696985286594E+03    0.87138E-05   -0.10849E-06  3480   0.316E-03    0.213E-02
RMM:   6    -0.696985285816E+03    0.77766E-06   -0.94178E-07  3509   0.319E-03    0.121E-02
RMM:   7    -0.696985285969E+03   -0.15311E-06   -0.53561E-07  2085   0.291E-03    0.164E-02
RMM:   8    -0.696985284867E+03    0.11025E-05   -0.47467E-07  1807   0.281E-03
  93 F= -.69698528E+03 E0= -.69640822E+03  d E =-.321427E-04  mag=     2.6224
