       N       E                     dE             d eps       ncg     rms          rms(c)
DAV:   1     0.783436824847E+04    0.78344E+04   -0.31216E+05 13664   0.127E+03
DAV:   2     0.607183832627E+03   -0.72272E+04   -0.65373E+04 14528   0.373E+02
DAV:   3    -0.789832964166E+03   -0.13970E+04   -0.13384E+04 17024   0.165E+02
DAV:   4    -0.866845086829E+03   -0.77012E+02   -0.75022E+02 18704   0.431E+01
DAV:   5    -0.868490093519E+03   -0.16450E+01   -0.16205E+01 17376   0.587E+00    0.197E+02
RMM:   6    -0.765013089934E+03    0.10348E+03   -0.71052E+02 13485   0.426E+01    0.205E+02
RMM:   7    -0.106288946643E+04   -0.29788E+03   -0.26132E+02 14135   0.262E+01    0.360E+02
RMM:   8    -0.936159580393E+03    0.12673E+03   -0.76507E+01 16140   0.979E+00    0.327E+02
RMM:   9    -0.127051010229E+04   -0.33435E+03   -0.35558E+02 18797   0.247E+01    0.366E+02
RMM:  10    -0.868334907774E+03    0.40218E+03   -0.12033E+02 15867   0.155E+01    0.166E+02
RMM:  11    -0.727992547437E+03    0.14034E+03   -0.56334E+01 13790   0.127E+01    0.103E+02
RMM:  12    -0.726461656484E+03    0.15309E+01   -0.74141E+01 15502   0.122E+01    0.118E+02
RMM:  13    -0.707612708698E+03    0.18849E+02   -0.11419E+01 14516   0.536E+00    0.109E+02
RMM:  14    -0.656929932105E+03    0.50683E+02   -0.10062E+01 13446   0.467E+00    0.761E+01
RMM:  15    -0.647364846785E+03    0.95651E+01   -0.40855E+00 14138   0.289E+00    0.614E+01
RMM:  16    -0.649895392634E+03   -0.25305E+01   -0.41211E+00 13999   0.297E+00    0.545E+01
RMM:  17    -0.652337782626E+03   -0.24424E+01   -0.34214E+00 14365   0.267E+00    0.465E+01
RMM:  18    -0.657552792811E+03   -0.52150E+01   -0.70511E+00 16778   0.368E+00    0.338E+01
RMM:  19    -0.661169284920E+03   -0.36165E+01   -0.20292E+00 13907   0.218E+00    0.302E+01
RMM:  20    -0.668962205245E+03   -0.77929E+01   -0.58105E+00 16572   0.328E+00    0.245E+01
RMM:  21    -0.676265755307E+03   -0.73036E+01   -0.47887E+00 16255   0.308E+00    0.175E+01
RMM:  22    -0.683196026583E+03   -0.69303E+01   -0.39013E+00 15434   0.270E+00    0.187E+01
RMM:  23    -0.686669951533E+03   -0.34739E+01   -0.14804E+00 13944   0.182E+00    0.203E+01
RMM:  24    -0.689062790440E+03   -0.23928E+01   -0.93827E-01 13898   0.144E+00    0.203E+01
RMM:  25    -0.690143740808E+03   -0.10810E+01   -0.53222E-01 13720   0.108E+00    0.181E+01
RMM:  26    -0.690975388115E+03   -0.83165E+00   -0.21150E-01 13577   0.688E-01    0.176E+01
RMM:  27    -0.692251937637E+03   -0.12765E+01   -0.23108E-01 14218   0.692E-01    0.170E+01
RMM:  28    -0.693357638698E+03   -0.11057E+01   -0.27486E-01 15137   0.709E-01    0.149E+01
RMM:  29    -0.695141298351E+03   -0.17837E+01   -0.48475E-01 16941   0.909E-01    0.127E+01
RMM:  30    -0.698459148570E+03   -0.33179E+01   -0.12706E+00 18803   0.138E+00    0.985E+00
RMM:  31    -0.700417368175E+03   -0.19582E+01   -0.26309E-01 15535   0.681E-01    0.758E+00
RMM:  32    -0.701020666880E+03   -0.60330E+00   -0.40474E-02 14756   0.295E-01    0.712E+00
RMM:  33    -0.701267116485E+03   -0.24645E+00   -0.15473E-02 13879   0.179E-01    0.693E+00
RMM:  34    -0.702625597073E+03   -0.13585E+01   -0.17798E-01 18506   0.522E-01    0.540E+00
RMM:  35    -0.704552095437E+03   -0.19265E+01   -0.50858E-01 20912   0.825E-01    0.532E+00
RMM:  36    -0.705359130129E+03   -0.80703E+00   -0.15870E-01 18580   0.473E-01    0.483E+00
RMM:  37    -0.705826204086E+03   -0.46707E+00   -0.20557E-01 19255   0.538E-01    0.419E+00
RMM:  38    -0.706342286233E+03   -0.51608E+00   -0.38354E-02 15556   0.252E-01    0.378E+00
RMM:  39    -0.706825561230E+03   -0.48327E+00   -0.17689E-02 14156   0.190E-01    0.311E+00
RMM:  40    -0.707351139931E+03   -0.52558E+00   -0.25515E-02 15515   0.203E-01    0.240E+00
RMM:  41    -0.707952834541E+03   -0.60169E+00   -0.29103E-02 15998   0.215E-01    0.203E+00
RMM:  42    -0.708504933671E+03   -0.55210E+00   -0.78689E-02 17932   0.319E-01    0.185E+00
RMM:  43    -0.708513869605E+03   -0.89359E-02   -0.43385E-02 16363   0.237E-01    0.194E+00
RMM:  44    -0.708602523086E+03   -0.88653E-01   -0.22758E-02 15715   0.182E-01    0.176E+00
RMM:  45    -0.708686131342E+03   -0.83608E-01   -0.11738E-02 14860   0.135E-01    0.173E+00
RMM:  46    -0.708767727519E+03   -0.81596E-01   -0.43923E-03 13843   0.949E-02    0.167E+00
RMM:  47    -0.708859240263E+03   -0.91513E-01   -0.43356E-03 14407   0.882E-02    0.160E+00
RMM:  48    -0.708941106134E+03   -0.81866E-01   -0.28897E-03 14055   0.780E-02    0.144E+00
RMM:  49    -0.709019265647E+03   -0.78160E-01   -0.21644E-03 13745   0.685E-02    0.121E+00
RMM:  50    -0.709079190042E+03   -0.59924E-01   -0.16360E-03 13519   0.588E-02    0.998E-01
RMM:  51    -0.709157578371E+03   -0.78388E-01   -0.73002E-03 17718   0.104E-01    0.857E-01
RMM:  52    -0.709182382092E+03   -0.24804E-01   -0.46108E-04 11517   0.343E-02    0.636E-01
RMM:  53    -0.709247384223E+03   -0.65002E-01   -0.95147E-04 12945   0.418E-02    0.426E-01
RMM:  54    -0.709314071479E+03   -0.66687E-01   -0.10829E-03 12742   0.410E-02    0.200E-01
RMM:  55    -0.709336723302E+03   -0.22652E-01   -0.43400E-04 11018   0.282E-02    0.172E-01
RMM:  56    -0.709326044077E+03    0.10679E-01   -0.19472E-04  8482   0.233E-02    0.119E-01
RMM:  57    -0.709340357140E+03   -0.14313E-01   -0.78544E-05  8158   0.166E-02    0.695E-02
RMM:  58    -0.709367643259E+03   -0.27286E-01   -0.10869E-04  8405   0.131E-02    0.749E-02
RMM:  59    -0.709389677571E+03   -0.22034E-01   -0.10341E-04  8409   0.128E-02    0.535E-02
RMM:  60    -0.709409599618E+03   -0.19922E-01   -0.96354E-05  8065   0.120E-02    0.504E-02
RMM:  61    -0.709416512375E+03   -0.69128E-02   -0.52423E-05  7777   0.994E-03    0.318E-02
RMM:  62    -0.709422103199E+03   -0.55908E-02   -0.46403E-05  7323   0.810E-03    0.239E-02
RMM:  63    -0.709424866681E+03   -0.27635E-02   -0.30760E-05  6746   0.709E-03    0.190E-02
RMM:  64    -0.709425636921E+03   -0.77024E-03   -0.15649E-05  6018   0.573E-03    0.148E-02
RMM:  65    -0.709425929774E+03   -0.29285E-03   -0.83570E-06  5231   0.441E-03    0.107E-02
RMM:  66    -0.709426174633E+03   -0.24486E-03   -0.58886E-06  4941   0.393E-03    0.820E-03
RMM:  67    -0.709426346144E+03   -0.17151E-03   -0.37561E-06  4452   0.354E-03    0.587E-03
RMM:  68    -0.709426446009E+03   -0.99866E-04   -0.16050E-06  3541   0.311E-03
   1 F= -.70942645E+03 E0= -.70880791E+03  d E =-.709426E+03  mag=     7.4228
       N       E                     dE             d eps       ncg     rms          rms(c)
DAV:   1    -0.708625473024E+03    0.80087E+00   -0.21753E+02 13888   0.193E+01    0.477E+00
RMM:   2    -0.709713714724E+03   -0.10882E+01   -0.63100E+00 13440   0.371E+00    0.112E+01
RMM:   3    -0.709376835480E+03    0.33688E+00   -0.12794E+00 14424   0.163E+00    0.612E+00
RMM:   4    -0.709414821660E+03   -0.37986E-01   -0.24026E-01 13593   0.809E-01    0.672E+00
RMM:   5    -0.709212370198E+03    0.20245E+00   -0.76989E-02 13458   0.527E-01    0.367E+00
RMM:   6    -0.709185708191E+03    0.26662E-01   -0.46083E-02 13522   0.345E-01    0.274E+00
RMM:   7    -0.709141003019E+03    0.44705E-01   -0.53860E-02 14070   0.324E-01    0.121E+00
RMM:   8    -0.709137285080E+03    0.37179E-02   -0.18851E-02 13656   0.223E-01    0.878E-01
RMM:   9    -0.709133713909E+03    0.35712E-02   -0.62663E-03 13553   0.137E-01    0.353E-01
RMM:  10    -0.709134252786E+03   -0.53888E-03   -0.20896E-03 13837   0.623E-02    0.288E-01
RMM:  11    -0.709135477132E+03   -0.12243E-02   -0.70450E-04 12141   0.411E-02    0.204E-01
RMM:  12    -0.709137315606E+03   -0.18385E-02   -0.10120E-03 12611   0.423E-02    0.164E-01
RMM:  13    -0.709138389228E+03   -0.10736E-02   -0.30241E-04  9976   0.281E-02    0.827E-02
RMM:  14    -0.709139153201E+03   -0.76397E-03   -0.10306E-04  8114   0.183E-02    0.614E-02
RMM:  15    -0.709139875094E+03   -0.72189E-03   -0.36326E-05  7446   0.107E-02    0.442E-02
RMM:  16    -0.709141078071E+03   -0.12030E-02   -0.35387E-05  7422   0.782E-03    0.423E-02
RMM:  17    -0.709143150535E+03   -0.20725E-02   -0.60403E-05  7572   0.871E-03    0.378E-02
RMM:  18    -0.709145760067E+03   -0.26095E-02   -0.89573E-05  7540   0.938E-03    0.285E-02
RMM:  19    -0.709147531619E+03   -0.17716E-02   -0.47998E-05  6982   0.778E-03    0.252E-02
RMM:  20    -0.709149868086E+03   -0.23365E-02   -0.67272E-05  7323   0.837E-03    0.238E-02
RMM:  21    -0.709151775831E+03   -0.19077E-02   -0.62382E-05  7199   0.787E-03    0.201E-02
RMM:  22    -0.709152993947E+03   -0.12181E-02   -0.47262E-05  6926   0.752E-03    0.150E-02
RMM:  23    -0.709153601253E+03   -0.60731E-03   -0.22650E-05  5999   0.614E-03    0.147E-02
RMM:  24    -0.709154025711E+03   -0.42446E-03   -0.11590E-05  5027   0.471E-03    0.108E-02
RMM:  25    -0.709154541233E+03   -0.51552E-03   -0.89749E-06  4722   0.414E-03    0.112E-02
RMM:  26    -0.709155072131E+03   -0.53090E-03   -0.87522E-06  5130   0.414E-03    0.874E-03
RMM:  27    -0.709155489010E+03   -0.41688E-03   -0.67840E-06  4932   0.386E-03    0.726E-03
RMM:  28    -0.709155806545E+03   -0.31754E-03   -0.44459E-06  4324   0.356E-03    0.611E-03
RMM:  29    -0.709156049368E+03   -0.24282E-03   -0.29455E-06  3801   0.330E-03    0.498E-03
RMM:  30    -0.709156217852E+03   -0.16848E-03   -0.18350E-06  3401   0.313E-03    0.402E-03
RMM:  31    -0.709156381378E+03   -0.16353E-03   -0.15643E-06  3251   0.303E-03    0.352E-03
RMM:  32    -0.709156518344E+03   -0.13697E-03   -0.15537E-06  3265   0.302E-03    0.302E-03
RMM:  33    -0.709156668521E+03   -0.15018E-03   -0.23615E-06  3591   0.307E-03    0.265E-03
RMM:  34    -0.709156772151E+03   -0.10363E-03   -0.18232E-06  3315   0.301E-03    0.223E-03
RMM:  35    -0.709156861873E+03   -0.89722E-04   -0.11047E-06  2860   0.291E-03
   2 F= -.70915686E+03 E0= -.70854140E+03  d E =0.269584E+00  mag=     7.6502
       N       E                     dE             d eps       ncg     rms          rms(c)
DAV:   1    -0.709381912655E+03   -0.22514E+00   -0.10020E+02 13856   0.133E+01    0.362E+00
RMM:   2    -0.710278803488E+03   -0.89689E+00   -0.28898E+00 13440   0.267E+00    0.114E+01
RMM:   3    -0.709838281149E+03    0.44052E+00   -0.47500E-01 13766   0.116E+00    0.672E+00
RMM:   4    -0.709649099728E+03    0.18918E+00   -0.13327E-01 13617   0.609E-01    0.445E+00
RMM:   5    -0.709569681207E+03    0.79419E-01   -0.64805E-02 13699   0.406E-01    0.243E+00
RMM:   6    -0.709571411726E+03   -0.17305E-02   -0.34595E-02 13615   0.300E-01    0.234E+00
RMM:   7    -0.709548257161E+03    0.23155E-01   -0.18974E-02 13669   0.237E-01    0.146E+00
RMM:   8    -0.709541892474E+03    0.63647E-02   -0.21258E-02 14129   0.206E-01    0.711E-01
RMM:   9    -0.709541052068E+03    0.84041E-03   -0.35586E-03 13153   0.107E-01    0.472E-01
RMM:  10    -0.709541256701E+03   -0.20463E-03   -0.12466E-03 13158   0.536E-02    0.416E-01
RMM:  11    -0.709541077968E+03    0.17873E-03   -0.49741E-04 10914   0.331E-02    0.279E-01
RMM:  12    -0.709541368135E+03   -0.29017E-03   -0.41496E-04 10479   0.305E-02    0.150E-01
RMM:  13    -0.709541766677E+03   -0.39854E-03   -0.26185E-04  9300   0.245E-02    0.772E-02
RMM:  14    -0.709542064354E+03   -0.29768E-03   -0.57013E-05  7863   0.153E-02    0.691E-02
RMM:  15    -0.709542358560E+03   -0.29421E-03   -0.20210E-05  7168   0.774E-03    0.535E-02
RMM:  16    -0.709542906677E+03   -0.54812E-03   -0.24391E-05  7311   0.670E-03    0.336E-02
RMM:  17    -0.709543592053E+03   -0.68538E-03   -0.23148E-05  7263   0.660E-03    0.268E-02
RMM:  18    -0.709544186583E+03   -0.59453E-03   -0.13528E-05  6499   0.554E-03    0.250E-02
RMM:  19    -0.709544740003E+03   -0.55342E-03   -0.10883E-05  5571   0.452E-03    0.197E-02
RMM:  20    -0.709545288563E+03   -0.54856E-03   -0.10367E-05  5865   0.444E-03    0.183E-02
RMM:  21    -0.709545959037E+03   -0.67047E-03   -0.12733E-05  5797   0.449E-03    0.169E-02
RMM:  22    -0.709546718236E+03   -0.75920E-03   -0.21322E-05  6601   0.506E-03    0.151E-02
RMM:  23    -0.709547224341E+03   -0.50610E-03   -0.16142E-05  5918   0.490E-03    0.117E-02
RMM:  24    -0.709547557858E+03   -0.33352E-03   -0.10468E-05  5530   0.462E-03    0.803E-03
RMM:  25    -0.709547867643E+03   -0.30978E-03   -0.67946E-06  4617   0.392E-03    0.817E-03
RMM:  26    -0.709548071788E+03   -0.20415E-03   -0.40899E-06  4061   0.354E-03    0.850E-03
RMM:  27    -0.709548277822E+03   -0.20603E-03   -0.34439E-06  3849   0.335E-03    0.681E-03
RMM:  28    -0.709548434712E+03   -0.15689E-03   -0.24721E-06  3626   0.324E-03    0.503E-03
RMM:  29    -0.709548585272E+03   -0.15056E-03   -0.23135E-06  3438   0.314E-03    0.367E-03
RMM:  30    -0.709548695180E+03   -0.10991E-03   -0.14975E-06  3034   0.304E-03    0.316E-03
RMM:  31    -0.709548794003E+03   -0.98823E-04   -0.16288E-06  3032   0.300E-03
   3 F= -.70954879E+03 E0= -.70893143E+03  d E =-.122348E+00  mag=     7.5139
       N       E                     dE             d eps       ncg     rms          rms(c)
DAV:   1    -0.709085289410E+03    0.46341E+00   -0.79229E+01 13680   0.125E+01    0.275E+00
RMM:   2    -0.709232313248E+03   -0.14702E+00   -0.16630E+00 13440   0.199E+00    0.243E+00
RMM:   3    -0.709255839196E+03   -0.23526E-01   -0.25753E-01 13855   0.792E-01    0.167E+00
RMM:   4    -0.709259762514E+03   -0.39233E-02   -0.50053E-02 13558   0.396E-01    0.213E+00
RMM:   5    -0.709308367922E+03   -0.48605E-01   -0.24756E-02 13821   0.256E-01    0.347E+00
RMM:   6    -0.709246742518E+03    0.61625E-01   -0.10119E-02 13579   0.171E-01    0.971E-01
RMM:   7    -0.709244184945E+03    0.25576E-02   -0.55775E-03 13443   0.122E-01    0.692E-01
RMM:   8    -0.709242879575E+03    0.13054E-02   -0.27428E-03 13257   0.892E-02    0.447E-01
RMM:   9    -0.709241744004E+03    0.11356E-02   -0.10127E-03 12571   0.506E-02    0.192E-01
RMM:  10    -0.709241698690E+03    0.45314E-04   -0.34296E-04  9938   0.286E-02
   4 F= -.70924170E+03 E0= -.70862534E+03  d E =0.307095E+00  mag=     7.4829
       N       E                     dE             d eps       ncg     rms          rms(c)
DAV:   1    -0.709404814290E+03   -0.16307E+00   -0.13971E+01 13824   0.526E+00    0.103E+00
RMM:   2    -0.709431943266E+03   -0.27129E-01   -0.25559E-01 13440   0.813E-01    0.168E+00
RMM:   3    -0.709429782366E+03    0.21609E-02   -0.33242E-02 13493   0.335E-01    0.697E-01
RMM:   4    -0.709471820938E+03   -0.42039E-01   -0.12447E-02 13953   0.176E-01    0.275E+00
RMM:   5    -0.709431228387E+03    0.40593E-01   -0.49574E-03 13283   0.129E-01    0.877E-01
RMM:   6    -0.709430709304E+03    0.51908E-03   -0.33366E-03 13027   0.873E-02    0.536E-01
RMM:   7    -0.709430210768E+03    0.49854E-03   -0.13667E-03 12639   0.656E-02    0.323E-01
RMM:   8    -0.709430276193E+03   -0.65426E-04   -0.55157E-04 11592   0.400E-02
   5 F= -.70943028E+03 E0= -.70881336E+03  d E =0.118518E+00  mag=     7.4723
       N       E                     dE             d eps       ncg     rms          rms(c)
DAV:   1    -0.709543312079E+03   -0.11310E+00   -0.75794E+00 13840   0.389E+00    0.774E-01
RMM:   2    -0.709559038930E+03   -0.15727E-01   -0.13763E-01 13440   0.602E-01    0.124E+00
RMM:   3    -0.709563117351E+03   -0.40784E-02   -0.19987E-02 13694   0.247E-01    0.114E+00
RMM:   4    -0.709563067708E+03    0.49643E-04   -0.57434E-03 13723   0.126E-01    0.111E+00
RMM:   5    -0.709559840545E+03    0.32272E-02   -0.27707E-03 13070   0.872E-02    0.817E-01
RMM:   6    -0.709557925619E+03    0.19149E-02   -0.16839E-03 12800   0.718E-02    0.422E-01
RMM:   7    -0.709557663858E+03    0.26176E-03   -0.97711E-04 12520   0.514E-02    0.209E-01
RMM:   8    -0.709557542619E+03    0.12124E-03   -0.35212E-04 10211   0.334E-02    0.176E-01
RMM:   9    -0.709557505332E+03    0.37287E-04   -0.10724E-04  8078   0.190E-02
   6 F= -.70955751E+03 E0= -.70894046E+03  d E =-.871133E-02  mag=     7.4727
       N       E                     dE             d eps       ncg     rms          rms(c)
DAV:   1    -0.709566824635E+03   -0.92820E-02   -0.84146E-01 13840   0.129E+00    0.263E-01
RMM:   2    -0.709568474007E+03   -0.16494E-02   -0.15189E-02 13428   0.200E-01    0.384E-01
RMM:   3    -0.709569125533E+03   -0.65153E-03   -0.22858E-03 13227   0.832E-02    0.415E-01
RMM:   4    -0.709568747045E+03    0.37849E-03   -0.65749E-04 11652   0.428E-02    0.285E-01
RMM:   5    -0.709568584634E+03    0.16241E-03   -0.31687E-04  9706   0.314E-02    0.274E-01
RMM:   6    -0.709568367549E+03    0.21709E-03   -0.17645E-04  8378   0.262E-02    0.109E-01
RMM:   7    -0.709568361379E+03    0.61695E-05   -0.86804E-05  7845   0.162E-02    0.733E-02
RMM:   8    -0.709568363188E+03   -0.18083E-05   -0.34082E-05  7454   0.124E-02
   7 F= -.70956836E+03 E0= -.70895125E+03  d E =-.195692E-01  mag=     7.4766
       N       E                     dE             d eps       ncg     rms          rms(c)
DAV:   1    -0.709346419935E+03    0.22194E+00   -0.44201E+01 13552   0.970E+00    0.190E+00
RMM:   2    -0.709428326897E+03   -0.81907E-01   -0.83423E-01 13440   0.148E+00    0.191E+00
RMM:   3    -0.709474007718E+03   -0.45681E-01   -0.12439E-01 13789   0.599E-01    0.318E+00
RMM:   4    -0.709445761637E+03    0.28246E-01   -0.29834E-02 13940   0.303E-01    0.207E+00
RMM:   5    -0.709433469909E+03    0.12292E-01   -0.13898E-02 13548   0.201E-01    0.133E+00
RMM:   6    -0.709431186973E+03    0.22829E-02   -0.91040E-03 13618   0.166E-01    0.101E+00
RMM:   7    -0.709425836395E+03    0.53506E-02   -0.45547E-03 13429   0.123E-01    0.537E-01
RMM:   8    -0.709425120661E+03    0.71573E-03   -0.19362E-03 12886   0.747E-02    0.301E-01
RMM:   9    -0.709424751746E+03    0.36891E-03   -0.63601E-04 11743   0.410E-02    0.118E-01
RMM:  10    -0.709424736366E+03    0.15381E-04   -0.15585E-04  8425   0.200E-02
   8 F= -.70942474E+03 E0= -.70880698E+03  d E =0.143627E+00  mag=     7.4743
       N       E                     dE             d eps       ncg     rms          rms(c)
DAV:   1    -0.709486996625E+03   -0.62245E-01   -0.54801E+00 13808   0.343E+00    0.653E-01
RMM:   2    -0.709496564994E+03   -0.95684E-02   -0.94237E-02 13440   0.513E-01    0.796E-01
RMM:   3    -0.709503357778E+03   -0.67928E-02   -0.13752E-02 13505   0.212E-01    0.127E+00
RMM:   4    -0.709497036991E+03    0.63208E-02   -0.41047E-03 13803   0.109E-01    0.581E-01
RMM:   5    -0.709496473088E+03    0.56390E-03   -0.17347E-03 12832   0.704E-02    0.464E-01
RMM:   6    -0.709496363583E+03    0.10950E-03   -0.11846E-03 12775   0.584E-02    0.356E-01
RMM:   7    -0.709495754283E+03    0.60930E-03   -0.61244E-04 12033   0.452E-02    0.190E-01
RMM:   8    -0.709495643223E+03    0.11106E-03   -0.23485E-04  9096   0.270E-02    0.104E-01
RMM:   9    -0.709495604942E+03    0.38282E-04   -0.71129E-05  7703   0.172E-02
   9 F= -.70949560E+03 E0= -.70887807E+03  d E =0.727582E-01  mag=     7.4745
       N       E                     dE             d eps       ncg     rms          rms(c)
DAV:   1    -0.709563455531E+03   -0.67812E-01   -0.42646E+00 13792   0.302E+00    0.588E-01
RMM:   2    -0.709570653577E+03   -0.71980E-02   -0.74121E-02 13440   0.458E-01    0.684E-01
RMM:   3    -0.709574042792E+03   -0.33892E-02   -0.10845E-02 13477   0.190E-01    0.891E-01
RMM:   4    -0.709572803651E+03    0.12391E-02   -0.34927E-03 14035   0.958E-02    0.683E-01
RMM:   5    -0.709571265093E+03    0.15386E-02   -0.13552E-03 12703   0.622E-02    0.456E-01
RMM:   6    -0.709570936315E+03    0.32878E-03   -0.83456E-04 12396   0.500E-02    0.277E-01
RMM:   7    -0.709570606531E+03    0.32978E-03   -0.44797E-04 11081   0.374E-02    0.169E-01
RMM:   8    -0.709570519663E+03    0.86868E-04   -0.18752E-04  8701   0.250E-02
  10 F= -.70957052E+03 E0= -.70895311E+03  d E =-.215648E-02  mag=     7.4762
       N       E                     dE             d eps       ncg     rms          rms(c)
DAV:   1    -0.709590832733E+03   -0.20226E-01   -0.12688E+00 13840   0.165E+00    0.323E-01
RMM:   2    -0.709593031363E+03   -0.21986E-02   -0.21902E-02 13440   0.250E-01    0.428E-01
RMM:   3    -0.709594183582E+03   -0.11522E-02   -0.32917E-03 13316   0.105E-01    0.498E-01
RMM:   4    -0.709593925058E+03    0.25852E-03   -0.11402E-03 13152   0.553E-02    0.463E-01
RMM:   5    -0.709593143235E+03    0.78182E-03   -0.38507E-04 10443   0.337E-02    0.259E-01
RMM:   6    -0.709593005369E+03    0.13787E-03   -0.23407E-04  8931   0.268E-02    0.139E-01
RMM:   7    -0.709592939795E+03    0.65574E-04   -0.14144E-04  8185   0.215E-02    0.777E-02
RMM:   8    -0.709592939164E+03    0.63165E-06   -0.45670E-05  7593   0.139E-02
  11 F= -.70959294E+03 E0= -.70897565E+03  d E =-.245760E-01  mag=     7.4788
       N       E                     dE             d eps       ncg     rms          rms(c)
DAV:   1    -0.709575532189E+03    0.17408E-01   -0.73734E+00 13712   0.397E+00    0.773E-01
RMM:   2    -0.709594104915E+03   -0.18573E-01   -0.14672E-01 13440   0.599E-01    0.123E+00
RMM:   3    -0.709600273547E+03   -0.61686E-02   -0.19969E-02 13694   0.250E-01    0.146E+00
RMM:   4    -0.709594077177E+03    0.61964E-02   -0.60612E-03 13696   0.134E-01    0.943E-01
RMM:   5    -0.709590236852E+03    0.38403E-02   -0.19029E-03 12861   0.844E-02    0.395E-01
RMM:   6    -0.709590493653E+03   -0.25680E-03   -0.13714E-03 12776   0.634E-02    0.433E-01
RMM:   7    -0.709589591609E+03    0.90204E-03   -0.82167E-04 12410   0.526E-02    0.222E-01
RMM:   8    -0.709589259751E+03    0.33186E-03   -0.42270E-04 10688   0.343E-02    0.126E-01
RMM:   9    -0.709589216473E+03    0.43278E-04   -0.11240E-04  8000   0.204E-02
  12 F= -.70958922E+03 E0= -.70897142E+03  d E =0.372269E-02  mag=     7.4707
       N       E                     dE             d eps       ncg     rms          rms(c)
DAV:   1    -0.709603564785E+03   -0.14305E-01   -0.26779E+00 13728   0.238E+00    0.476E-01
RMM:   2    -0.709610595577E+03   -0.70308E-02   -0.54689E-02 13440   0.363E-01    0.767E-01
RMM:   3    -0.709613437132E+03   -0.28416E-02   -0.79697E-03 13621   0.153E-01    0.966E-01
RMM:   4    -0.709610095301E+03    0.33418E-02   -0.21758E-03 13186   0.813E-02    0.507E-01
RMM:   5    -0.709609240120E+03    0.85518E-03   -0.69875E-04 12189   0.512E-02    0.259E-01
RMM:   6    -0.709609495817E+03   -0.25570E-03   -0.49986E-04 11574   0.384E-02    0.260E-01
RMM:   7    -0.709609329277E+03    0.16654E-03   -0.30420E-04  9680   0.325E-02    0.128E-01
RMM:   8    -0.709609331051E+03   -0.17739E-05   -0.15919E-04  8359   0.224E-02
  13 F= -.70960933E+03 E0= -.70899186E+03  d E =-.163919E-01  mag=     7.4698
       N       E                     dE             d eps       ncg     rms          rms(c)
DAV:   1    -0.709582157433E+03    0.27172E-01   -0.46122E+00 13728   0.315E+00    0.562E-01
RMM:   2    -0.709595509826E+03   -0.13352E-01   -0.95224E-02 13440   0.487E-01    0.116E+00
RMM:   3    -0.709593540658E+03    0.19692E-02   -0.12972E-02 13898   0.202E-01    0.611E-01
RMM:   4    -0.709598326563E+03   -0.47859E-02   -0.40671E-03 13529   0.106E-01    0.114E+00
RMM:   5    -0.709592555451E+03    0.57711E-02   -0.11373E-03 12643   0.690E-02    0.457E-01
RMM:   6    -0.709592080549E+03    0.47490E-03   -0.92866E-04 12476   0.468E-02    0.293E-01
RMM:   7    -0.709591800839E+03    0.27971E-03   -0.47970E-04 11545   0.391E-02    0.220E-01
RMM:   8    -0.709591489452E+03    0.31139E-03   -0.23832E-04  9072   0.282E-02    0.101E-01
RMM:   9    -0.709591460579E+03    0.28873E-04   -0.65699E-05  7825   0.162E-02
  14 F= -.70959146E+03 E0= -.70897365E+03  d E =0.178705E-01  mag=     7.4634
       N       E                     dE             d eps       ncg     rms          rms(c)
DAV:   1    -0.709614488799E+03   -0.22999E-01   -0.21428E+00 13792   0.214E+00    0.385E-01
RMM:   2    -0.709623382063E+03   -0.88933E-02   -0.44818E-02 13440   0.332E-01    0.105E+00
RMM:   3    -0.709619486107E+03    0.38960E-02   -0.62782E-03 13757   0.139E-01    0.369E-01
RMM:   4    -0.709621004126E+03   -0.15180E-02   -0.18709E-03 13160   0.721E-02    0.618E-01
RMM:   5    -0.709619486766E+03    0.15174E-02   -0.54251E-04 11944   0.470E-02    0.270E-01
RMM:   6    -0.709619562381E+03   -0.75614E-04   -0.37023E-04 10229   0.315E-02    0.209E-01
RMM:   7    -0.709619551187E+03    0.11193E-04   -0.27505E-04  9435   0.292E-02    0.146E-01
RMM:   8    -0.709619499609E+03    0.51579E-04   -0.11330E-04  7992   0.205E-02
  15 F= -.70961950E+03 E0= -.70900186E+03  d E =-.101686E-01  mag=     7.4620
       N       E                     dE             d eps       ncg     rms          rms(c)
DAV:   1    -0.709615802387E+03    0.37488E-02   -0.24653E+00 13872   0.231E+00    0.489E-01
RMM:   2    -0.709628367163E+03   -0.12565E-01   -0.51830E-02 13440   0.387E-01    0.172E+00
RMM:   3    -0.709622506449E+03    0.58607E-02   -0.77956E-03 13883   0.156E-01    0.983E-01
RMM:   4    -0.709630962384E+03   -0.84559E-02   -0.23241E-03 13442   0.816E-02    0.154E+00
RMM:   5    -0.709620696114E+03    0.10266E-01   -0.11603E-03 12739   0.609E-02    0.566E-01
RMM:   6    -0.709620737511E+03   -0.41397E-04   -0.58192E-04 11750   0.397E-02    0.560E-01
RMM:   7    -0.709620740715E+03   -0.32046E-05   -0.28332E-04  9640   0.305E-02    0.512E-01
RMM:   8    -0.709620577771E+03    0.16294E-03   -0.23311E-04  8894   0.276E-02    0.404E-01
RMM:   9    -0.709620158365E+03    0.41941E-03   -0.11008E-04  7981   0.188E-02    0.219E-01
RMM:  10    -0.709620133068E+03    0.25297E-04   -0.38093E-05  7359   0.123E-02
  16 F= -.70962013E+03 E0= -.70900258E+03  d E =-.633459E-03  mag=     7.4556
       N       E                     dE             d eps       ncg     rms          rms(c)
DAV:   1    -0.709627421762E+03   -0.72634E-02   -0.67664E-01 13840   0.121E+00    0.270E-01
RMM:   2    -0.709635273539E+03   -0.78518E-02   -0.14627E-02 13440   0.203E-01    0.125E+00
RMM:   3    -0.709629320196E+03    0.59533E-02   -0.22576E-03 13138   0.904E-02    0.429E-01
RMM:   4    -0.709629207545E+03    0.11265E-03   -0.66452E-04 11962   0.455E-02    0.363E-01
RMM:   5    -0.709629276669E+03   -0.69124E-04   -0.21561E-04  8628   0.265E-02    0.346E-01
RMM:   6    -0.709629182663E+03    0.94006E-04   -0.18854E-04  8342   0.236E-02    0.246E-01
RMM:   7    -0.709629110104E+03    0.72559E-04   -0.15061E-04  7985   0.224E-02    0.107E-01
RMM:   8    -0.709629102924E+03    0.71801E-05   -0.66897E-05  7510   0.163E-02
  17 F= -.70962910E+03 E0= -.70901149E+03  d E =-.960331E-02  mag=     7.4537
       N       E                     dE             d eps       ncg     rms          rms(c)
DAV:   1    -0.709637281070E+03   -0.81710E-02   -0.87059E-01 13824   0.132E+00    0.284E-01
RMM:   2    -0.709641545562E+03   -0.42645E-02   -0.17804E-02 13440   0.213E-01    0.913E-01
RMM:   3    -0.709639229524E+03    0.23160E-02   -0.26161E-03 13120   0.871E-02    0.416E-01
RMM:   4    -0.709641181197E+03   -0.19517E-02   -0.83757E-04 12309   0.462E-02    0.708E-01
RMM:   5    -0.709639101724E+03    0.20795E-02   -0.31558E-04  9685   0.324E-02    0.300E-01
RMM:   6    -0.709639169145E+03   -0.67421E-04   -0.21167E-04  8656   0.250E-02    0.276E-01
RMM:   7    -0.709639006898E+03    0.16225E-03   -0.11004E-04  7771   0.211E-02    0.189E-01
RMM:   8    -0.709638995545E+03    0.11353E-04   -0.57336E-05  7440   0.140E-02
  18 F= -.70963900E+03 E0= -.70902177E+03  d E =-.989262E-02  mag=     7.4508
       N       E                     dE             d eps       ncg     rms          rms(c)
DAV:   1    -0.709639385607E+03   -0.37871E-03   -0.17577E-02 13824   0.189E-01    0.111E-01
RMM:   2    -0.709642484305E+03   -0.30987E-02   -0.74325E-04 12089   0.413E-02    0.741E-01
RMM:   3    -0.709639519256E+03    0.29650E-02   -0.23448E-04  8574   0.319E-02    0.177E-01
RMM:   4    -0.709639404612E+03    0.11464E-03   -0.59192E-05  7251   0.161E-02    0.469E-02
RMM:   5    -0.709639414335E+03   -0.97232E-05   -0.12403E-05  6477   0.755E-03    0.276E-02
RMM:   6    -0.709639426793E+03   -0.12458E-04   -0.54451E-06  5805   0.455E-03    0.256E-02
RMM:   7    -0.709639444647E+03   -0.17854E-04   -0.41254E-06  5634   0.420E-03    0.226E-02
RMM:   8    -0.709639460047E+03   -0.15400E-04   -0.12038E-06  3294   0.311E-03
  19 F= -.70963946E+03 E0= -.70902211E+03  d E =-.103571E-01  mag=     7.4488
       N       E                     dE             d eps       ncg     rms          rms(c)
DAV:   1    -0.709647395309E+03   -0.79507E-02   -0.25802E-01 13808   0.744E-01    0.147E-01
RMM:   2    -0.709648079192E+03   -0.68388E-03   -0.50776E-03 13426   0.123E-01    0.319E-01
RMM:   3    -0.709647963320E+03    0.11587E-03   -0.79216E-04 11879   0.489E-02    0.156E-01
RMM:   4    -0.709648566907E+03   -0.60359E-03   -0.24781E-04  8654   0.264E-02    0.357E-01
RMM:   5    -0.709648012965E+03    0.55394E-03   -0.11204E-04  7724   0.216E-02    0.142E-01
RMM:   6    -0.709648015001E+03   -0.20357E-05   -0.59073E-05  7369   0.129E-02    0.851E-02
RMM:   7    -0.709648021872E+03   -0.68707E-05   -0.26242E-05  7023   0.992E-03    0.548E-02
RMM:   8    -0.709648028834E+03   -0.69622E-05   -0.11103E-05  6518   0.650E-03
  20 F= -.70964803E+03 E0= -.70903079E+03  d E =-.856879E-02  mag=     7.4483
       N       E                     dE             d eps       ncg     rms          rms(c)
DAV:   1    -0.709648206606E+03   -0.18473E-03   -0.70813E-03 13520   0.124E-01    0.487E-02
RMM:   2    -0.709648336953E+03   -0.13035E-03   -0.16672E-04  7631   0.220E-02    0.141E-01
RMM:   3    -0.709648284257E+03    0.52696E-04   -0.42428E-05  7303   0.134E-02    0.109E-01
RMM:   4    -0.709648245995E+03    0.38262E-04   -0.13991E-05  6686   0.751E-03    0.582E-02
RMM:   5    -0.709648240848E+03    0.51465E-05   -0.30903E-06  5280   0.422E-03    0.302E-02
RMM:   6    -0.709648248677E+03   -0.78290E-05   -0.15344E-06  3151   0.302E-03    0.267E-02
RMM:   7    -0.709648248556E+03    0.12157E-06   -0.47429E-07  2507   0.274E-03    0.117E-02
RMM:   8    -0.709648250829E+03   -0.22728E-05   -0.74078E-09  1469   0.240E-03
  21 F= -.70964825E+03 E0= -.70903103E+03  d E =-.879078E-02  mag=     7.4483
       N       E                     dE             d eps       ncg     rms          rms(c)
DAV:   1    -0.709650385920E+03   -0.21374E-02   -0.21008E-01 13856   0.711E-01    0.143E-01
RMM:   2    -0.709650981483E+03   -0.59556E-03   -0.42337E-03 13374   0.117E-01    0.318E-01
RMM:   3    -0.709650804305E+03    0.17718E-03   -0.60249E-04 11619   0.456E-02    0.164E-01
RMM:   4    -0.709651420792E+03   -0.61649E-03   -0.19044E-04  8279   0.248E-02    0.368E-01
RMM:   5    -0.709650805778E+03    0.61501E-03   -0.97835E-05  7593   0.209E-02    0.155E-01
RMM:   6    -0.709650789778E+03    0.16000E-04   -0.53290E-05  7248   0.126E-02    0.954E-02
RMM:   7    -0.709650781931E+03    0.78463E-05   -0.31425E-05  7121   0.112E-02    0.664E-02
RMM:   8    -0.709650782163E+03   -0.23176E-06   -0.12848E-05  6612   0.741E-03
  22 F= -.70965078E+03 E0= -.70903351E+03  d E =-.253133E-02  mag=     7.4487
       N       E                     dE             d eps       ncg     rms          rms(c)
DAV:   1    -0.709651841085E+03   -0.10592E-02   -0.24925E-02 13968   0.245E-01    0.617E-02
RMM:   2    -0.709652394171E+03   -0.55309E-03   -0.56782E-04 10863   0.422E-02    0.330E-01
RMM:   3    -0.709651912330E+03    0.48184E-03   -0.99592E-05  7349   0.211E-02    0.987E-02
RMM:   4    -0.709651891119E+03    0.21212E-04   -0.23771E-05  7031   0.110E-02    0.468E-02
RMM:   5    -0.709651909025E+03   -0.17907E-04   -0.85756E-06  6331   0.573E-03    0.592E-02
RMM:   6    -0.709651913107E+03   -0.40814E-05   -0.66939E-06  6164   0.505E-03    0.469E-02
RMM:   7    -0.709651914116E+03   -0.10094E-05   -0.60206E-06  6284   0.488E-03    0.211E-02
RMM:   8    -0.709651916472E+03   -0.23557E-05   -0.18579E-06  4279   0.349E-03
  23 F= -.70965192E+03 E0= -.70903470E+03  d E =-.366564E-02  mag=     7.4490
       N       E                     dE             d eps       ncg     rms          rms(c)
DAV:   1    -0.709654785416E+03   -0.28713E-02   -0.12974E-01 13856   0.537E-01    0.115E-01
RMM:   2    -0.709655270226E+03   -0.48481E-03   -0.26197E-03 13234   0.863E-02    0.323E-01
RMM:   3    -0.709655047356E+03    0.22287E-03   -0.39192E-04  9463   0.345E-02    0.187E-01
RMM:   4    -0.709655380710E+03   -0.33335E-03   -0.10402E-04  7674   0.203E-02    0.298E-01
RMM:   5    -0.709655011677E+03    0.36903E-03   -0.69056E-05  7406   0.154E-02    0.133E-01
RMM:   6    -0.709655009590E+03    0.20866E-05   -0.40546E-05  7101   0.115E-02    0.983E-02
RMM:   7    -0.709655002570E+03    0.70207E-05   -0.17070E-05  6652   0.877E-03    0.675E-02
RMM:   8    -0.709655004253E+03   -0.16837E-05   -0.91649E-06  6378   0.599E-03
  24 F= -.70965500E+03 E0= -.70903769E+03  d E =-.308778E-02  mag=     7.4499
       N       E                     dE             d eps       ncg     rms          rms(c)
DAV:   1    -0.709654997874E+03    0.46953E-05   -0.14560E-04 10768   0.212E-02    0.509E-02
RMM:   2    -0.709655287445E+03   -0.28957E-03   -0.56364E-05  7241   0.120E-02    0.234E-01
RMM:   3    -0.709655030792E+03    0.25665E-03   -0.38181E-05  7141   0.123E-02    0.962E-02
RMM:   4    -0.709655001027E+03    0.29764E-04   -0.11395E-05  6358   0.668E-03    0.458E-02
RMM:   5    -0.709654993881E+03    0.71468E-05   -0.29791E-06  5194   0.397E-03    0.180E-02
RMM:   6    -0.709654994230E+03   -0.34959E-06   -0.43015E-07  2528   0.277E-03    0.128E-02
RMM:   7    -0.709654994136E+03    0.94027E-07   -0.89208E-09  1330   0.242E-03    0.705E-03
RMM:   8    -0.709654995007E+03   -0.87026E-06   -0.77329E-10  1078   0.235E-03
  25 F= -.70965500E+03 E0= -.70903776E+03  d E =-.307853E-02  mag=     7.4508
       N       E                     dE             d eps       ncg     rms          rms(c)
DAV:   1    -0.709656151387E+03   -0.11573E-02   -0.32667E-02 13856   0.275E-01    0.516E-02
RMM:   2    -0.709656282405E+03   -0.13102E-03   -0.62225E-04 10927   0.456E-02    0.152E-01
RMM:   3    -0.709656204722E+03    0.77683E-04   -0.10384E-04  7459   0.195E-02    0.431E-02
RMM:   4    -0.709656252305E+03   -0.47583E-04   -0.31407E-05  7130   0.113E-02    0.107E-01
RMM:   5    -0.709656206164E+03    0.46141E-04   -0.10113E-05  6564   0.694E-03    0.524E-02
RMM:   6    -0.709656194311E+03    0.11853E-04   -0.71561E-06  6004   0.461E-03    0.375E-02
RMM:   7    -0.709656187717E+03    0.65941E-05   -0.35549E-06  5491   0.428E-03    0.256E-02
RMM:   8    -0.709656183617E+03    0.40999E-05   -0.10412E-06  3250   0.308E-03
  26 F= -.70965618E+03 E0= -.70903893E+03  d E =-.118861E-02  mag=     7.4521
       N       E                     dE             d eps       ncg     rms          rms(c)
DAV:   1    -0.709656235941E+03   -0.48224E-04   -0.26160E-03 13472   0.778E-02    0.239E-02
RMM:   2    -0.709656307027E+03   -0.71086E-04   -0.60420E-05  7217   0.138E-02    0.111E-01
RMM:   3    -0.709656248933E+03    0.58094E-04   -0.15873E-05  6970   0.861E-03    0.521E-02
RMM:   4    -0.709656245250E+03    0.36826E-05   -0.36952E-06  5621   0.421E-03    0.330E-02
RMM:   5    -0.709656239216E+03    0.60342E-05   -0.27697E-07  2159   0.260E-03    0.151E-02
RMM:   6    -0.709656239355E+03   -0.13886E-06   -0.55517E-08  1635   0.249E-03    0.114E-02
RMM:   7    -0.709656239212E+03    0.14332E-06   -0.44464E-08  1504   0.249E-03    0.620E-03
RMM:   8    -0.709656240457E+03   -0.12448E-05   -0.39152E-09  1128   0.246E-03
  27 F= -.70965624E+03 E0= -.70903901E+03  d E =-.124545E-02  mag=     7.4535
       N       E                     dE             d eps       ncg     rms          rms(c)
DAV:   1    -0.709657076167E+03   -0.83696E-03   -0.36904E-02 13888   0.296E-01    0.495E-02
RMM:   2    -0.709657176299E+03   -0.10013E-03   -0.78077E-04 11757   0.495E-02    0.112E-01
RMM:   3    -0.709657152010E+03    0.24289E-04   -0.11656E-04  7447   0.207E-02    0.550E-02
RMM:   4    -0.709657193357E+03   -0.41347E-04   -0.32248E-05  7211   0.122E-02    0.105E-01
RMM:   5    -0.709657147987E+03    0.45371E-04   -0.12364E-05  6660   0.707E-03    0.512E-02
RMM:   6    -0.709657144874E+03    0.31130E-05   -0.71854E-06  6250   0.518E-03    0.394E-02
RMM:   7    -0.709657143992E+03    0.88212E-06   -0.50566E-06  6012   0.461E-03    0.259E-02
RMM:   8    -0.709657143544E+03    0.44806E-06   -0.28637E-06  4550   0.366E-03
  28 F= -.70965714E+03 E0= -.70903997E+03  d E =-.903087E-03  mag=     7.4546
       N       E                     dE             d eps       ncg     rms          rms(c)
DAV:   1    -0.709657162874E+03   -0.18882E-04   -0.13250E-03 13408   0.563E-02    0.213E-02
RMM:   2    -0.709657212482E+03   -0.49608E-04   -0.36664E-05  7176   0.105E-02    0.920E-02
RMM:   3    -0.709657175791E+03    0.36691E-04   -0.96485E-06  6811   0.689E-03    0.380E-02
RMM:   4    -0.709657172914E+03    0.28768E-05   -0.18062E-06  4255   0.333E-03    0.186E-02
RMM:   5    -0.709657175867E+03   -0.29532E-05   -0.14990E-07  1811   0.258E-03    0.103E-02
RMM:   6    -0.709657179682E+03   -0.38148E-05   -0.26499E-08  1421   0.252E-03    0.122E-02
RMM:   7    -0.709657183108E+03   -0.34260E-05   -0.12877E-09  1221   0.244E-03    0.699E-03
RMM:   8    -0.709657185669E+03   -0.25616E-05   -0.11537E-08  1154   0.247E-03
  29 F= -.70965719E+03 E0= -.70904004E+03  d E =-.945213E-03  mag=     7.4556
       N       E                     dE             d eps       ncg     rms          rms(c)
DAV:   1    -0.709657878716E+03   -0.69561E-03   -0.12272E-02 13840   0.168E-01    0.288E-02
RMM:   2    -0.709657934496E+03   -0.55780E-04   -0.27363E-04  7897   0.272E-02    0.965E-02
RMM:   3    -0.709657902702E+03    0.31794E-04   -0.34846E-05  7134   0.129E-02    0.307E-02
RMM:   4    -0.709657915571E+03   -0.12869E-04   -0.97621E-06  6526   0.594E-03    0.614E-02
RMM:   5    -0.709657903742E+03    0.11829E-04   -0.44790E-06  5795   0.457E-03    0.361E-02
RMM:   6    -0.709657901221E+03    0.25208E-05   -0.11388E-06  3222   0.312E-03    0.259E-02
RMM:   7    -0.709657900073E+03    0.11477E-05   -0.13618E-06  3536   0.322E-03    0.144E-02
RMM:   8    -0.709657900165E+03   -0.91590E-07   -0.87744E-07  2464   0.305E-03
  30 F= -.70965790E+03 E0= -.70904078E+03  d E =-.714496E-03  mag=     7.4566
       N       E                     dE             d eps       ncg     rms          rms(c)
DAV:   1    -0.709658851320E+03   -0.95125E-03   -0.11018E-01 13712   0.503E-01    0.863E-02
RMM:   2    -0.709659105213E+03   -0.25389E-03   -0.23760E-03 13243   0.812E-02    0.180E-01
RMM:   3    -0.709659071268E+03    0.33946E-04   -0.33382E-04  9221   0.333E-02    0.100E-01
RMM:   4    -0.709659262737E+03   -0.19147E-03   -0.95385E-05  7629   0.194E-02    0.226E-01
RMM:   5    -0.709659047650E+03    0.21509E-03   -0.41782E-05  7328   0.129E-02    0.106E-01
RMM:   6    -0.709659023203E+03    0.24447E-04   -0.19601E-05  6853   0.809E-03    0.681E-02
RMM:   7    -0.709659001825E+03    0.21378E-04   -0.17081E-05  6885   0.750E-03    0.391E-02
RMM:   8    -0.709658995495E+03    0.63300E-05   -0.86000E-06  6226   0.586E-03
  31 F= -.70965900E+03 E0= -.70904196E+03  d E =-.180983E-02  mag=     7.4581
       N       E                     dE             d eps       ncg     rms          rms(c)
DAV:   1    -0.709660578691E+03   -0.15769E-02   -0.36358E-02 13920   0.298E-01    0.564E-02
RMM:   2    -0.709660654982E+03   -0.76291E-04   -0.71642E-04 10876   0.474E-02    0.808E-02
RMM:   3    -0.709660681006E+03   -0.26024E-04   -0.10483E-04  7440   0.201E-02    0.864E-02
RMM:   4    -0.709660663145E+03    0.17861E-04   -0.25985E-05  7131   0.114E-02    0.542E-02
RMM:   5    -0.709660672499E+03   -0.93541E-05   -0.13182E-05  6620   0.679E-03    0.592E-02
RMM:   6    -0.709660669817E+03    0.26825E-05   -0.94047E-06  6213   0.635E-03    0.290E-02
RMM:   7    -0.709660671316E+03   -0.14999E-05   -0.54099E-06  5635   0.445E-03    0.174E-02
RMM:   8    -0.709660675449E+03   -0.41329E-05   -0.13741E-06  3758   0.336E-03
  32 F= -.70966068E+03 E0= -.70904374E+03  d E =-.167995E-02  mag=     7.4594
       N       E                     dE             d eps       ncg     rms          rms(c)
DAV:   1    -0.709663803115E+03   -0.31318E-02   -0.32780E-01 13728   0.895E-01    0.144E-01
RMM:   2    -0.709664640615E+03   -0.83750E-03   -0.64222E-03 13430   0.142E-01    0.319E-01
RMM:   3    -0.709664459667E+03    0.18095E-03   -0.95055E-04 12782   0.568E-02    0.167E-01
RMM:   4    -0.709664887107E+03   -0.42744E-03   -0.25022E-04  8799   0.282E-02    0.330E-01
RMM:   5    -0.709664512949E+03    0.37416E-03   -0.10667E-04  7828   0.221E-02    0.196E-01
RMM:   6    -0.709664445836E+03    0.67113E-04   -0.54058E-05  7544   0.139E-02    0.118E-01
RMM:   7    -0.709664411771E+03    0.34064E-04   -0.61635E-05  7475   0.129E-02    0.508E-02
RMM:   8    -0.709664416263E+03   -0.44920E-05   -0.20156E-05  6972   0.978E-03
  33 F= -.70966442E+03 E0= -.70904760E+03  d E =-.542077E-02  mag=     7.4607
       N       E                     dE             d eps       ncg     rms          rms(c)
DAV:   1    -0.709656872707E+03    0.75391E-02   -0.13102E+00 13504   0.179E+00    0.299E-01
RMM:   2    -0.709659985345E+03   -0.31126E-02   -0.25429E-02 13440   0.285E-01    0.600E-01
RMM:   3    -0.709659446066E+03    0.53928E-03   -0.38560E-03 14343   0.113E-01    0.314E-01
RMM:   4    -0.709661619053E+03   -0.21730E-02   -0.99146E-04 12973   0.551E-02    0.713E-01
RMM:   5    -0.709659615257E+03    0.20038E-02   -0.38754E-04 10977   0.385E-02    0.362E-01
RMM:   6    -0.709659436581E+03    0.17868E-03   -0.21089E-04  8643   0.269E-02    0.232E-01
RMM:   7    -0.709659291197E+03    0.14538E-03   -0.23094E-04  8721   0.249E-02    0.104E-01
RMM:   8    -0.709659312897E+03   -0.21700E-04   -0.59180E-05  7822   0.167E-02
  34 F= -.70965931E+03 E0= -.70904277E+03  d E =-.317401E-03  mag=     7.4622
       N       E                     dE             d eps       ncg     rms          rms(c)
DAV:   1    -0.709663675277E+03   -0.43841E-02   -0.70962E-01 13744   0.132E+00    0.213E-01
RMM:   2    -0.709667056746E+03   -0.33815E-02   -0.14040E-02 13440   0.211E-01    0.725E-01
RMM:   3    -0.709665215527E+03    0.18412E-02   -0.20163E-03 13404   0.865E-02    0.314E-01
RMM:   4    -0.709665157893E+03    0.57634E-04   -0.57180E-04 11784   0.432E-02    0.298E-01
RMM:   5    -0.709664974087E+03    0.18381E-03   -0.18864E-04  8297   0.260E-02    0.241E-01
RMM:   6    -0.709664993702E+03   -0.19615E-04   -0.12082E-04  7907   0.212E-02    0.195E-01
RMM:   7    -0.709664913449E+03    0.80253E-04   -0.16206E-04  7999   0.213E-02    0.111E-01
RMM:   8    -0.709664872635E+03    0.40814E-04   -0.74390E-05  7597   0.176E-02
  35 F= -.70966487E+03 E0= -.70904827E+03  d E =-.587714E-02  mag=     7.4628
       N       E                     dE             d eps       ncg     rms          rms(c)
DAV:   1    -0.709665535007E+03   -0.62156E-03   -0.77579E-03 14016   0.139E-01    0.442E-02
RMM:   2    -0.709666012481E+03   -0.47747E-03   -0.21128E-04  7803   0.252E-02    0.292E-01
RMM:   3    -0.709665554944E+03    0.45754E-03   -0.58357E-05  7248   0.172E-02    0.641E-02
RMM:   4    -0.709665549338E+03    0.56055E-05   -0.12007E-05  6811   0.711E-03    0.164E-02
RMM:   5    -0.709665552808E+03   -0.34698E-05   -0.28915E-06  5511   0.401E-03    0.202E-02
RMM:   6    -0.709665554322E+03   -0.15137E-05   -0.36447E-07  1963   0.271E-03    0.137E-02
RMM:   7    -0.709665561272E+03   -0.69501E-05   -0.31389E-06  4273   0.345E-03    0.176E-02
RMM:   8    -0.709665562505E+03   -0.12333E-05   -0.10191E-06  2888   0.298E-03
  36 F= -.70966556E+03 E0= -.70904890E+03  d E =-.689870E-03  mag=     7.4632
       N       E                     dE             d eps       ncg     rms          rms(c)
DAV:   1    -0.709667101320E+03   -0.15400E-02   -0.68396E-02 13904   0.409E-01    0.655E-02
RMM:   2    -0.709667270313E+03   -0.16899E-03   -0.13187E-03 12619   0.648E-02    0.143E-01
RMM:   3    -0.709667234538E+03    0.35775E-04   -0.19582E-04  7974   0.259E-02    0.654E-02
RMM:   4    -0.709667349562E+03   -0.11502E-03   -0.52132E-05  7271   0.154E-02    0.164E-01
RMM:   5    -0.709667236459E+03    0.11310E-03   -0.20114E-05  6942   0.944E-03    0.708E-02
RMM:   6    -0.709667240306E+03   -0.38470E-05   -0.10099E-05  6451   0.588E-03    0.544E-02
RMM:   7    -0.709667247031E+03   -0.67252E-05   -0.69545E-06  6237   0.509E-03    0.522E-02
RMM:   8    -0.709667242485E+03    0.45461E-05   -0.37815E-06  5641   0.411E-03
  37 F= -.70966724E+03 E0= -.70905065E+03  d E =-.236985E-02  mag=     7.4634
       N       E                     dE             d eps       ncg     rms          rms(c)
DAV:   1    -0.709667957215E+03   -0.71018E-03   -0.27378E-01 13856   0.818E-01    0.143E-01
RMM:   2    -0.709668442550E+03   -0.48534E-03   -0.52279E-03 13383   0.130E-01    0.217E-01
RMM:   3    -0.709668473132E+03   -0.30581E-04   -0.79093E-04 12256   0.510E-02    0.137E-01
RMM:   4    -0.709669812109E+03   -0.13390E-02   -0.26559E-04  9150   0.274E-02    0.523E-01
RMM:   5    -0.709668478697E+03    0.13334E-02   -0.11795E-04  7711   0.233E-02    0.149E-01
RMM:   6    -0.709668478718E+03   -0.21799E-07   -0.47843E-05  7453   0.128E-02    0.110E-01
RMM:   7    -0.709668476359E+03    0.23591E-05   -0.36582E-05  7249   0.106E-02    0.631E-02
RMM:   8    -0.709668486377E+03   -0.10017E-04   -0.12776E-05  6780   0.764E-03
  38 F= -.70966849E+03 E0= -.70905199E+03  d E =-.361374E-02  mag=     7.4634
       N       E                     dE             d eps       ncg     rms          rms(c)
DAV:   1    -0.709670810886E+03   -0.23345E-02   -0.15328E-02 14096   0.192E-01    0.706E-02
RMM:   2    -0.709670873282E+03   -0.62396E-04   -0.36480E-04  8590   0.319E-02    0.955E-02
RMM:   3    -0.709670887999E+03   -0.14717E-04   -0.56269E-05  7258   0.157E-02    0.109E-01
RMM:   4    -0.709670883964E+03    0.40346E-05   -0.26357E-05  7035   0.937E-03    0.903E-02
RMM:   5    -0.709670864022E+03    0.19942E-04   -0.19828E-05  6774   0.889E-03    0.580E-02
RMM:   6    -0.709670853665E+03    0.10357E-04   -0.11011E-05  6429   0.691E-03    0.316E-02
RMM:   7    -0.709670848336E+03    0.53290E-05   -0.41465E-06  5694   0.459E-03    0.214E-02
RMM:   8    -0.709670847073E+03    0.12635E-05   -0.41130E-07  2628   0.275E-03
  39 F= -.70967085E+03 E0= -.70905442E+03  d E =-.236070E-02  mag=     7.4632
       N       E                     dE             d eps       ncg     rms          rms(c)
DAV:   1    -0.709675597114E+03   -0.47488E-02   -0.13839E-01 13856   0.577E-01    0.935E-02
RMM:   2    -0.709675875790E+03   -0.27868E-03   -0.28554E-03 13254   0.918E-02    0.173E-01
RMM:   3    -0.709675881396E+03   -0.56060E-05   -0.38327E-04  9717   0.360E-02    0.976E-02
RMM:   4    -0.709676018609E+03   -0.13721E-03   -0.96427E-05  7605   0.195E-02    0.176E-01
RMM:   5    -0.709675890473E+03    0.12814E-03   -0.31498E-05  7254   0.119E-02    0.982E-02
RMM:   6    -0.709675886708E+03    0.37649E-05   -0.16642E-05  6780   0.708E-03    0.856E-02
RMM:   7    -0.709675893525E+03   -0.68174E-05   -0.11528E-05  6569   0.651E-03    0.743E-02
RMM:   8    -0.709675878961E+03    0.14565E-04   -0.76595E-06  6255   0.556E-03
  40 F= -.70967588E+03 E0= -.70905951E+03  d E =-.739258E-02  mag=     7.4627
       N       E                     dE             d eps       ncg     rms          rms(c)
DAV:   1    -0.709677372257E+03   -0.14787E-02   -0.55377E-01 13808   0.115E+00    0.207E-01
RMM:   2    -0.709678513400E+03   -0.11411E-02   -0.11485E-02 13431   0.184E-01    0.362E-01
RMM:   3    -0.709678574091E+03   -0.60691E-04   -0.15905E-03 13328   0.719E-02    0.255E-01
RMM:   4    -0.709680438070E+03   -0.18640E-02   -0.50840E-04 11769   0.388E-02    0.620E-01
RMM:   5    -0.709678507605E+03    0.19305E-02   -0.18020E-04  8241   0.270E-02    0.199E-01
RMM:   6    -0.709678533386E+03   -0.25781E-04   -0.79183E-05  7792   0.168E-02    0.198E-01
RMM:   7    -0.709678601277E+03   -0.67891E-04   -0.50210E-05  7571   0.135E-02    0.193E-01
RMM:   8    -0.709678547460E+03    0.53816E-04   -0.50915E-05  7424   0.132E-02
  41 F= -.70967855E+03 E0= -.70906227E+03  d E =-.100611E-01  mag=     7.4618
       N       E                     dE             d eps       ncg     rms          rms(c)
DAV:   1    -0.709682382361E+03   -0.37811E-02   -0.67833E-02 13888   0.399E-01    0.156E-01
RMM:   2    -0.709683218861E+03   -0.83650E-03   -0.16472E-03 13010   0.656E-02    0.356E-01
RMM:   3    -0.709682697859E+03    0.52100E-03   -0.26173E-04  8361   0.311E-02    0.234E-01
RMM:   4    -0.709682597081E+03    0.10078E-03   -0.14052E-04  7758   0.218E-02    0.134E-01
RMM:   5    -0.709682557786E+03    0.39296E-04   -0.62731E-05  7385   0.159E-02    0.915E-02
RMM:   6    -0.709682548795E+03    0.89912E-05   -0.48266E-05  7232   0.129E-02    0.575E-02
RMM:   7    -0.709682549501E+03   -0.70618E-06   -0.20860E-05  6861   0.899E-03    0.550E-02
RMM:   8    -0.709682534016E+03    0.15485E-04   -0.58521E-06  6176   0.570E-03
  42 F= -.70968253E+03 E0= -.70906624E+03  d E =-.398656E-02  mag=     7.4611
       N       E                     dE             d eps       ncg     rms          rms(c)
DAV:   1    -0.709683864073E+03   -0.13146E-02   -0.17941E-01 13856   0.649E-01    0.104E-01
RMM:   2    -0.709684295856E+03   -0.43178E-03   -0.37557E-03 13312   0.100E-01    0.203E-01
RMM:   3    -0.709684223944E+03    0.71912E-04   -0.45137E-04 10249   0.398E-02    0.106E-01
RMM:   4    -0.709684593613E+03   -0.36967E-03   -0.13680E-04  7837   0.217E-02    0.274E-01
RMM:   5    -0.709684239520E+03    0.35409E-03   -0.65246E-05  7478   0.165E-02    0.106E-01
RMM:   6    -0.709684235095E+03    0.44257E-05   -0.24912E-05  7067   0.978E-03    0.712E-02
RMM:   7    -0.709684252422E+03   -0.17328E-04   -0.18316E-05  6783   0.798E-03    0.627E-02
RMM:   8    -0.709684243097E+03    0.93247E-05   -0.13638E-05  6532   0.713E-03
  43 F= -.70968424E+03 E0= -.70906798E+03  d E =-.569564E-02  mag=     7.4609
       N       E                     dE             d eps       ncg     rms          rms(c)
DAV:   1    -0.709684479062E+03   -0.22664E-03   -0.14302E-02 14032   0.183E-01    0.401E-02
RMM:   2    -0.709684548734E+03   -0.69672E-04   -0.32220E-04  8056   0.296E-02    0.103E-01
RMM:   3    -0.709684529846E+03    0.18888E-04   -0.48651E-05  7144   0.158E-02    0.722E-02
RMM:   4    -0.709684506780E+03    0.23065E-04   -0.92168E-06  6564   0.605E-03    0.300E-02
RMM:   5    -0.709684508674E+03   -0.18940E-05   -0.33247E-06  5498   0.400E-03    0.212E-02
RMM:   6    -0.709684510406E+03   -0.17319E-05   -0.12718E-06  3538   0.321E-03    0.169E-02
RMM:   7    -0.709684514903E+03   -0.44965E-05   -0.18551E-06  4068   0.335E-03    0.206E-02
RMM:   8    -0.709684514646E+03    0.25723E-06   -0.63947E-07  2180   0.298E-03
  44 F= -.70968451E+03 E0= -.70906824E+03  d E =-.596719E-02  mag=     7.4607
       N       E                     dE             d eps       ncg     rms          rms(c)
DAV:   1    -0.709688212197E+03   -0.36973E-02   -0.17540E-02 13888   0.209E-01    0.438E-02
RMM:   2    -0.709688255930E+03   -0.43733E-04   -0.42018E-04  8662   0.363E-02    0.870E-02
RMM:   3    -0.709688246925E+03    0.90049E-05   -0.54044E-05  7164   0.159E-02    0.431E-02
RMM:   4    -0.709688314215E+03   -0.67290E-04   -0.17745E-05  6888   0.809E-03    0.119E-01
RMM:   5    -0.709688249118E+03    0.65097E-04   -0.10361E-05  6484   0.657E-03    0.491E-02
RMM:   6    -0.709688248835E+03    0.28356E-06   -0.38188E-06  5442   0.413E-03    0.342E-02
RMM:   7    -0.709688247432E+03    0.14024E-05   -0.87918E-07  3263   0.306E-03    0.208E-02
RMM:   8    -0.709688247962E+03   -0.52944E-06   -0.11870E-06  2875   0.310E-03
  45 F= -.70968825E+03 E0= -.70907196E+03  d E =-.373332E-02  mag=     7.4604
       N       E                     dE             d eps       ncg     rms          rms(c)
DAV:   1    -0.709696295432E+03   -0.80480E-02   -0.15714E-01 13728   0.625E-01    0.133E-01
RMM:   2    -0.709696723028E+03   -0.42760E-03   -0.37278E-03 13355   0.108E-01    0.252E-01
RMM:   3    -0.709696632889E+03    0.90139E-04   -0.51648E-04 10941   0.421E-02    0.153E-01
RMM:   4    -0.709697065826E+03   -0.43294E-03   -0.15903E-04  7944   0.236E-02    0.324E-01
RMM:   5    -0.709696652370E+03    0.41346E-03   -0.86101E-05  7557   0.192E-02    0.161E-01
RMM:   6    -0.709696601441E+03    0.50929E-04   -0.35164E-05  7196   0.118E-02    0.888E-02
RMM:   7    -0.709696589181E+03    0.12260E-04   -0.29467E-05  6969   0.928E-03    0.567E-02
RMM:   8    -0.709696591952E+03   -0.27706E-05   -0.97413E-06  6482   0.676E-03
  46 F= -.70969659E+03 E0= -.70908030E+03  d E =-.120773E-01  mag=     7.4599
       N       E                     dE             d eps       ncg     rms          rms(c)
DAV:   1    -0.709691494952E+03    0.50942E-02   -0.62848E-01 13712   0.125E+00    0.267E-01
RMM:   2    -0.709692940705E+03   -0.14458E-02   -0.14841E-02 13440   0.217E-01    0.441E-01
RMM:   3    -0.709692769476E+03    0.17123E-03   -0.20351E-03 13576   0.836E-02    0.253E-01
RMM:   4    -0.709696468791E+03   -0.36993E-02   -0.75295E-04 12609   0.458E-02    0.871E-01
RMM:   5    -0.709692919752E+03    0.35490E-02   -0.34457E-04 10205   0.362E-02    0.297E-01
RMM:   6    -0.709692795763E+03    0.12399E-03   -0.15030E-04  8085   0.240E-02    0.204E-01
RMM:   7    -0.709692715044E+03    0.80720E-04   -0.91363E-05  7837   0.176E-02    0.109E-01
RMM:   8    -0.709692711708E+03    0.33357E-05   -0.58173E-05  7552   0.142E-02
  47 F= -.70969271E+03 E0= -.70907640E+03  d E =-.819706E-02  mag=     7.4588
       N       E                     dE             d eps       ncg     rms          rms(c)
DAV:   1    -0.709698210303E+03   -0.54953E-02   -0.24430E-01 13872   0.780E-01    0.161E-01
RMM:   2    -0.709699463255E+03   -0.12530E-02   -0.58871E-03 13413   0.136E-01    0.454E-01
RMM:   3    -0.709698982766E+03    0.48049E-03   -0.80028E-04 12562   0.558E-02    0.295E-01
RMM:   4    -0.709698775096E+03    0.20767E-03   -0.23296E-04  8531   0.283E-02    0.218E-01
RMM:   5    -0.709698737461E+03    0.37635E-04   -0.99371E-05  7617   0.206E-02    0.184E-01
RMM:   6    -0.709698722413E+03    0.15048E-04   -0.58188E-05  7359   0.144E-02    0.151E-01
RMM:   7    -0.709698653651E+03    0.68762E-04   -0.58485E-05  7324   0.140E-02    0.651E-02
RMM:   8    -0.709698641861E+03    0.11790E-04   -0.37930E-05  6973   0.113E-02
  48 F= -.70969864E+03 E0= -.70908233E+03  d E =-.141272E-01  mag=     7.4585
       N       E                     dE             d eps       ncg     rms          rms(c)
DAV:   1    -0.709701617853E+03   -0.29642E-02   -0.46676E-02 13936   0.340E-01    0.678E-02
RMM:   2    -0.709701772931E+03   -0.15508E-03   -0.10151E-03 12290   0.566E-02    0.154E-01
RMM:   3    -0.709701726211E+03    0.46720E-04   -0.14561E-04  7508   0.232E-02    0.893E-02
RMM:   4    -0.709701742978E+03   -0.16767E-04   -0.37206E-05  7217   0.135E-02    0.101E-01
RMM:   5    -0.709701726604E+03    0.16374E-04   -0.18858E-05  6938   0.825E-03    0.769E-02
RMM:   6    -0.709701718483E+03    0.81210E-05   -0.12699E-05  6663   0.713E-03    0.502E-02
RMM:   7    -0.709701714053E+03    0.44307E-05   -0.77747E-06  6362   0.548E-03    0.287E-02
RMM:   8    -0.709701713260E+03    0.79256E-06   -0.34427E-06  5519   0.418E-03
  49 F= -.70970171E+03 E0= -.70908538E+03  d E =-.307140E-02  mag=     7.4584
       N       E                     dE             d eps       ncg     rms          rms(c)
DAV:   1    -0.709702988791E+03   -0.12747E-02   -0.13591E-01 13888   0.580E-01    0.115E-01
RMM:   2    -0.709703237954E+03   -0.24916E-03   -0.29101E-03 13311   0.951E-02    0.188E-01
RMM:   3    -0.709703232878E+03    0.50758E-05   -0.40277E-04  9991   0.373E-02    0.979E-02
RMM:   4    -0.709703283100E+03   -0.50222E-04   -0.10437E-04  7674   0.206E-02    0.135E-01
RMM:   5    -0.709703284834E+03   -0.17337E-05   -0.38493E-05  7397   0.130E-02    0.130E-01
RMM:   6    -0.709703278669E+03    0.61650E-05   -0.20440E-05  7017   0.770E-03    0.113E-01
RMM:   7    -0.709703240184E+03    0.38485E-04   -0.13965E-05  6676   0.746E-03    0.591E-02
RMM:   8    -0.709703238078E+03    0.21067E-05   -0.75683E-06  6226   0.552E-03
  50 F= -.70970324E+03 E0= -.70908689E+03  d E =-.459622E-02  mag=     7.4586
       N       E                     dE             d eps       ncg     rms          rms(c)
DAV:   1    -0.709704650157E+03   -0.14100E-02   -0.59780E-02 13872   0.382E-01    0.807E-02
RMM:   2    -0.709704839423E+03   -0.18927E-03   -0.11754E-03 12662   0.586E-02    0.152E-01
RMM:   3    -0.709704853703E+03   -0.14279E-04   -0.17068E-04  7711   0.247E-02    0.155E-01
RMM:   4    -0.709704762645E+03    0.91058E-04   -0.52301E-05  7340   0.157E-02    0.810E-02
RMM:   5    -0.709704746140E+03    0.16505E-04   -0.17909E-05  6972   0.866E-03    0.419E-02
RMM:   6    -0.709704741533E+03    0.46065E-05   -0.13227E-05  6614   0.685E-03    0.371E-02
RMM:   7    -0.709704734005E+03    0.75280E-05   -0.67877E-06  6186   0.560E-03    0.226E-02
RMM:   8    -0.709704729836E+03    0.41698E-05   -0.22646E-06  4388   0.353E-03
  51 F= -.70970473E+03 E0= -.70908839E+03  d E =-.149176E-02  mag=     7.4595
       N       E                     dE             d eps       ncg     rms          rms(c)
DAV:   1    -0.709704729470E+03    0.45358E-05   -0.34443E-05  8400   0.103E-02    0.793E-03
RMM:   2    -0.709704731475E+03   -0.20057E-05   -0.46052E-06  5945   0.506E-03    0.186E-02
RMM:   3    -0.709704731357E+03    0.11776E-06   -0.49115E-07  2865   0.280E-03    0.150E-02
RMM:   4    -0.709704730706E+03    0.65123E-06   -0.71843E-09  1229   0.243E-03    0.551E-03
RMM:   5    -0.709704731330E+03   -0.62385E-06   -0.28780E-09  1182   0.240E-03    0.436E-03
RMM:   6    -0.709704731989E+03   -0.65884E-06   -0.15172E-08  1084   0.241E-03    0.350E-03
RMM:   7    -0.709704734132E+03   -0.21429E-05   -0.34138E-08  1226   0.246E-03    0.354E-03
RMM:   8    -0.709704736764E+03   -0.26326E-05   -0.65833E-08  1357   0.248E-03
  52 F= -.70970474E+03 E0= -.70908840E+03  d E =-.149869E-02  mag=     7.4602
       N       E                     dE             d eps       ncg     rms          rms(c)
DAV:   1    -0.709706471888E+03   -0.17378E-02   -0.20155E-02 13824   0.224E-01    0.364E-02
RMM:   2    -0.709706518345E+03   -0.46457E-04   -0.41245E-04  8862   0.365E-02    0.809E-02
RMM:   3    -0.709706519357E+03   -0.10119E-05   -0.54956E-05  7196   0.158E-02    0.427E-02
RMM:   4    -0.709706579305E+03   -0.59948E-04   -0.18449E-05  6893   0.811E-03    0.109E-01
RMM:   5    -0.709706524393E+03    0.54912E-04   -0.79663E-06  6396   0.601E-03    0.321E-02
RMM:   6    -0.709706530020E+03   -0.56271E-05   -0.18804E-06  3993   0.330E-03    0.368E-02
RMM:   7    -0.709706537820E+03   -0.77996E-05   -0.95845E-07  3282   0.305E-03    0.394E-02
RMM:   8    -0.709706540798E+03   -0.29787E-05   -0.79082E-07  2999   0.300E-03
  53 F= -.70970654E+03 E0= -.70909023E+03  d E =-.180403E-02  mag=     7.4606
       N       E                     dE             d eps       ncg     rms          rms(c)
DAV:   1    -0.709707488884E+03   -0.95106E-03   -0.54636E-02 13920   0.368E-01    0.721E-02
RMM:   2    -0.709707592698E+03   -0.10381E-03   -0.11160E-03 12468   0.601E-02    0.121E-01
RMM:   3    -0.709707607388E+03   -0.14691E-04   -0.16863E-04  7676   0.239E-02    0.826E-02
RMM:   4    -0.709707613280E+03   -0.58917E-05   -0.49198E-05  7304   0.146E-02    0.753E-02
RMM:   5    -0.709707623057E+03   -0.97775E-05   -0.13347E-05  6822   0.754E-03    0.876E-02
RMM:   6    -0.709707612113E+03    0.10945E-04   -0.51824E-06  5946   0.451E-03    0.804E-02
RMM:   7    -0.709707613352E+03   -0.12396E-05   -0.52190E-06  5890   0.431E-03    0.624E-02
RMM:   8    -0.709707607893E+03    0.54596E-05   -0.43798E-06  6108   0.443E-03
  54 F= -.70970761E+03 E0= -.70909127E+03  d E =-.287113E-02  mag=     7.4606
       N       E                     dE             d eps       ncg     rms          rms(c)
DAV:   1    -0.709708187955E+03   -0.57460E-03   -0.11868E-02 13952   0.171E-01    0.642E-02
RMM:   2    -0.709708214504E+03   -0.26548E-04   -0.24683E-04  7791   0.277E-02    0.611E-02
RMM:   3    -0.709708225344E+03   -0.10840E-04   -0.43423E-05  7161   0.143E-02    0.643E-02
RMM:   4    -0.709708272916E+03   -0.47572E-04   -0.15576E-05  6852   0.781E-03    0.102E-01
RMM:   5    -0.709708235916E+03    0.37000E-04   -0.11391E-05  6466   0.629E-03    0.679E-02
RMM:   6    -0.709708221251E+03    0.14665E-04   -0.69118E-06  6055   0.528E-03    0.260E-02
RMM:   7    -0.709708219512E+03    0.17385E-05   -0.14848E-06  3848   0.331E-03    0.168E-02
RMM:   8    -0.709708218814E+03    0.69776E-06   -0.64874E-08  1686   0.256E-03
  55 F= -.70970822E+03 E0= -.70909188E+03  d E =-.610922E-03  mag=     7.4605
       N       E                     dE             d eps       ncg     rms          rms(c)
DAV:   1    -0.709708364231E+03   -0.14472E-03   -0.96442E-03 13920   0.154E-01    0.266E-02
RMM:   2    -0.709708393166E+03   -0.28935E-04   -0.19639E-04  7566   0.249E-02    0.731E-02
RMM:   3    -0.709708382187E+03    0.10979E-04   -0.25679E-05  7107   0.118E-02    0.322E-02
RMM:   4    -0.709708402805E+03   -0.20618E-04   -0.78906E-06  6441   0.519E-03    0.710E-02
RMM:   5    -0.709708385597E+03    0.17207E-04   -0.37144E-06  5595   0.434E-03    0.314E-02
RMM:   6    -0.709708382978E+03    0.26192E-05   -0.78824E-07  3032   0.296E-03    0.207E-02
RMM:   7    -0.709708384416E+03   -0.14378E-05   -0.38028E-07  2207   0.289E-03    0.148E-02
RMM:   8    -0.709708384975E+03   -0.55889E-06   -0.41316E-07  1967   0.291E-03
  56 F= -.70970838E+03 E0= -.70909205E+03  d E =-.777082E-03  mag=     7.4605
       N       E                     dE             d eps       ncg     rms          rms(c)
DAV:   1    -0.709708597136E+03   -0.21272E-03   -0.16427E-02 14000   0.200E-01    0.333E-02
RMM:   2    -0.709708626879E+03   -0.29743E-04   -0.32275E-04  8213   0.325E-02    0.511E-02
RMM:   3    -0.709708626581E+03    0.29798E-06   -0.43198E-05  7127   0.148E-02    0.172E-02
RMM:   4    -0.709708629756E+03   -0.31758E-05   -0.10433E-05  6744   0.662E-03    0.260E-02
RMM:   5    -0.709708630197E+03   -0.44052E-06   -0.39791E-06  5916   0.437E-03    0.265E-02
RMM:   6    -0.709708631106E+03   -0.90882E-06   -0.78881E-07  2793   0.286E-03    0.310E-02
RMM:   7    -0.709708624441E+03    0.66643E-05   -0.39065E-07  2567   0.284E-03    0.102E-02
RMM:   8    -0.709708623075E+03    0.13665E-05   -0.78165E-08  1730   0.267E-03
  57 F= -.70970862E+03 E0= -.70909228E+03  d E =-.238100E-03  mag=     7.4609
       N       E                     dE             d eps       ncg     rms          rms(c)
DAV:   1    -0.709708636895E+03   -0.12454E-04   -0.62930E-04 13200   0.392E-02    0.690E-03
RMM:   2    -0.709708638463E+03   -0.15676E-05   -0.12319E-05  6790   0.627E-03    0.203E-02
RMM:   3    -0.709708637586E+03    0.87694E-06   -0.83637E-07  2929   0.313E-03    0.102E-02
RMM:   4    -0.709708637747E+03   -0.16070E-06   -0.54103E-08  1193   0.250E-03    0.973E-03
RMM:   5    -0.709708637540E+03    0.20671E-06   -0.20077E-08  1013   0.243E-03    0.385E-03
RMM:   6    -0.709708638190E+03   -0.65009E-06   -0.40943E-08  1090   0.248E-03    0.443E-03
RMM:   7    -0.709708638578E+03   -0.38755E-06   -0.99370E-08  1271   0.251E-03    0.198E-03
RMM:   8    -0.709708638937E+03   -0.35917E-06   -0.42036E-08  1070   0.243E-03
  58 F= -.70970864E+03 E0= -.70909231E+03  d E =-.253962E-03  mag=     7.4612
       N       E                     dE             d eps       ncg     rms          rms(c)
DAV:   1    -0.709708918211E+03   -0.27963E-03   -0.76095E-03 13328   0.133E-01    0.219E-02
RMM:   2    -0.709708933289E+03   -0.15079E-04   -0.14717E-04  7377   0.221E-02    0.478E-02
RMM:   3    -0.709708931095E+03    0.21945E-05   -0.19512E-05  7032   0.102E-02    0.193E-02
RMM:   4    -0.709708936142E+03   -0.50474E-05   -0.53452E-06  6021   0.442E-03    0.311E-02
RMM:   5    -0.709708935066E+03    0.10757E-05   -0.93385E-07  3293   0.316E-03    0.224E-02
RMM:   6    -0.709708934398E+03    0.66839E-06   -0.37858E-07  2207   0.285E-03    0.164E-02
RMM:   7    -0.709708935206E+03   -0.80791E-06   -0.16792E-07  1751   0.275E-03    0.129E-02
RMM:   8    -0.709708935315E+03   -0.10872E-06   -0.43740E-07  1877   0.279E-03
  59 F= -.70970894E+03 E0= -.70909259E+03  d E =-.296378E-03  mag=     7.4614
       N       E                     dE             d eps       ncg     rms          rms(c)
DAV:   1    -0.709709007029E+03   -0.71823E-04   -0.16767E-02 13952   0.197E-01    0.336E-02
RMM:   2    -0.709709044039E+03   -0.37010E-04   -0.32545E-04  8407   0.326E-02    0.783E-02
RMM:   3    -0.709709036880E+03    0.71591E-05   -0.46043E-05  7152   0.148E-02    0.337E-02
RMM:   4    -0.709709076782E+03   -0.39902E-04   -0.14584E-05  6809   0.719E-03    0.945E-02
RMM:   5    -0.709709037139E+03    0.39643E-04   -0.71922E-06  6250   0.578E-03    0.282E-02
RMM:   6    -0.709709041158E+03   -0.40188E-05   -0.23443E-06  4258   0.353E-03    0.271E-02
RMM:   7    -0.709709042756E+03   -0.15978E-05   -0.82125E-07  3116   0.304E-03    0.282E-02
RMM:   8    -0.709709041407E+03    0.13494E-05   -0.63295E-07  2359   0.301E-03
  60 F= -.70970904E+03 E0= -.70909271E+03  d E =-.402470E-03  mag=     7.4616
       N       E                     dE             d eps       ncg     rms          rms(c)
DAV:   1    -0.709709054329E+03   -0.11573E-04   -0.93650E-04 13504   0.467E-02    0.156E-02
RMM:   2    -0.709709073351E+03   -0.19022E-04   -0.20838E-05  7028   0.832E-03    0.593E-02
RMM:   3    -0.709709062903E+03    0.10448E-04   -0.53565E-06  6291   0.522E-03    0.416E-02
RMM:   4    -0.709709055872E+03    0.70312E-05   -0.24580E-07  1886   0.263E-03    0.142E-02
RMM:   5    -0.709709055625E+03    0.24663E-06   -0.18576E-08  1114   0.248E-03    0.765E-03
RMM:   6    -0.709709056196E+03   -0.57108E-06   -0.89899E-09  1056   0.252E-03    0.723E-03
RMM:   7    -0.709709056129E+03    0.66924E-07   -0.13762E-07  1216   0.265E-03    0.365E-03
RMM:   8    -0.709709056320E+03   -0.19111E-06   -0.89843E-08  1108   0.262E-03
  61 F= -.70970906E+03 E0= -.70909272E+03  d E =-.417383E-03  mag=     7.4618
       N       E                     dE             d eps       ncg     rms          rms(c)
DAV:   1    -0.709709232320E+03   -0.17619E-03   -0.90567E-03 13712   0.142E-01    0.236E-02
RMM:   2    -0.709709258007E+03   -0.25687E-04   -0.16590E-04  7507   0.231E-02    0.589E-02
RMM:   3    -0.709709250737E+03    0.72704E-05   -0.23648E-05  7087   0.109E-02    0.417E-02
RMM:   4    -0.709709245331E+03    0.54059E-05   -0.62669E-06  6319   0.496E-03    0.232E-02
RMM:   5    -0.709709246335E+03   -0.10047E-05   -0.20510E-06  4363   0.360E-03    0.211E-02
RMM:   6    -0.709709246151E+03    0.18420E-06   -0.80829E-07  2931   0.300E-03    0.140E-02
RMM:   7    -0.709709246382E+03   -0.23098E-06   -0.12481E-06  3252   0.311E-03    0.114E-02
RMM:   8    -0.709709246207E+03    0.17520E-06   -0.24569E-07  1636   0.277E-03
  62 F= -.70970925E+03 E0= -.70909292E+03  d E =-.189887E-03  mag=     7.4618
       N       E                     dE             d eps       ncg     rms          rms(c)
DAV:   1    -0.709709252677E+03   -0.62948E-05   -0.12841E-03 13568   0.536E-02    0.964E-03
RMM:   2    -0.709709261394E+03   -0.87174E-05   -0.25853E-05  7099   0.921E-03    0.365E-02
RMM:   3    -0.709709254626E+03    0.67679E-05   -0.38716E-06  5996   0.466E-03    0.144E-02
RMM:   4    -0.709709254710E+03   -0.83885E-07   -0.15938E-07  1625   0.238E-03    0.620E-03
RMM:   5    -0.709709255239E+03   -0.52882E-06   -0.38690E-08  1268   0.234E-03    0.668E-03
RMM:   6    -0.709709255440E+03   -0.20042E-06   -0.30854E-09  1038   0.228E-03    0.532E-03
RMM:   7    -0.709709255509E+03   -0.69493E-07   -0.97581E-09   946   0.235E-03    0.355E-03
RMM:   8    -0.709709255547E+03   -0.37471E-07   -0.22042E-08   916   0.238E-03
  63 F= -.70970926E+03 E0= -.70909293E+03  d E =-.199226E-03  mag=     7.4618
       N       E                     dE             d eps       ncg     rms          rms(c)
DAV:   1    -0.709709334305E+03   -0.78796E-04   -0.31798E-03 13568   0.854E-02    0.142E-02
RMM:   2    -0.709709339522E+03   -0.52172E-05   -0.61961E-05  7146   0.146E-02    0.221E-02
RMM:   3    -0.709709339912E+03   -0.39054E-06   -0.86713E-06  6789   0.684E-03    0.165E-02
RMM:   4    -0.709709341920E+03   -0.20077E-05   -0.12251E-06  3288   0.313E-03    0.235E-02
RMM:   5    -0.709709339754E+03    0.21657E-05   -0.31708E-07  2304   0.286E-03    0.122E-02
RMM:   6    -0.709709340037E+03   -0.28291E-06   -0.26635E-08  1410   0.270E-03    0.745E-03
RMM:   7    -0.709709339862E+03    0.17521E-06   -0.24892E-07  1553   0.285E-03    0.541E-03
RMM:   8    -0.709709339798E+03    0.64101E-07   -0.17943E-07  1319   0.281E-03
  64 F= -.70970934E+03 E0= -.70909302E+03  d E =-.842515E-04  mag=     7.4619
       N       E                     dE             d eps       ncg     rms          rms(c)
DAV:   1    -0.709709343527E+03   -0.36651E-05   -0.24605E-04 12352   0.239E-02    0.580E-03
RMM:   2    -0.709709347380E+03   -0.38528E-05   -0.68860E-06  6320   0.503E-03    0.251E-02
RMM:   3    -0.709709343596E+03    0.37838E-05   -0.44989E-07  2252   0.274E-03    0.924E-03
RMM:   4    -0.709709343880E+03   -0.28338E-06   -0.21557E-08  1049   0.245E-03    0.499E-03
RMM:   5    -0.709709343818E+03    0.61489E-07   -0.26770E-10   895   0.239E-03    0.397E-03
RMM:   6    -0.709709343623E+03    0.19473E-06   -0.45882E-10   870   0.241E-03    0.319E-03
RMM:   7    -0.709709343447E+03    0.17675E-06   -0.63938E-09   889   0.242E-03    0.213E-03
RMM:   8    -0.709709343382E+03    0.64669E-07   -0.35712E-09   864   0.241E-03
  65 F= -.70970934E+03 E0= -.70909303E+03  d E =-.878354E-04  mag=     7.4621
       N       E                     dE             d eps       ncg     rms          rms(c)
DAV:   1    -0.709709369137E+03   -0.25690E-04   -0.25344E-03 13248   0.769E-02    0.132E-02
RMM:   2    -0.709709374675E+03   -0.55385E-05   -0.53034E-05  7105   0.137E-02    0.292E-02
RMM:   3    -0.709709373893E+03    0.78257E-06   -0.73869E-06  6769   0.636E-03    0.136E-02
RMM:   4    -0.709709377490E+03   -0.35968E-05   -0.74383E-07  2639   0.291E-03    0.281E-02
RMM:   5    -0.709709373864E+03    0.36255E-05   -0.21918E-07  2026   0.271E-03    0.103E-02
RMM:   6    -0.709709374601E+03   -0.73719E-06   -0.27882E-08  1246   0.264E-03    0.586E-03
RMM:   7    -0.709709374973E+03   -0.37166E-06   -0.17908E-07  1419   0.276E-03    0.572E-03
RMM:   8    -0.709709375060E+03   -0.86700E-07   -0.14713E-07  1216   0.276E-03
  66 F= -.70970938E+03 E0= -.70909309E+03  d E =-.316777E-04  mag=     7.4621
       N       E                     dE             d eps       ncg     rms          rms(c)
DAV:   1    -0.709709380314E+03   -0.53414E-05   -0.19779E-04 11120   0.218E-02    0.505E-03
RMM:   2    -0.709709381011E+03   -0.69705E-06   -0.58442E-06  4884   0.491E-03    0.100E-02
RMM:   3    -0.709709380773E+03    0.23834E-06   -0.16530E-07  1336   0.260E-03    0.572E-03
RMM:   4    -0.709709380837E+03   -0.64087E-07   -0.50311E-09   762   0.243E-03    0.561E-03
RMM:   5    -0.709709380754E+03    0.83201E-07   -0.42145E-10   760   0.240E-03    0.372E-03
RMM:   6    -0.709709380856E+03   -0.10242E-06   -0.44713E-10   771   0.240E-03    0.363E-03
RMM:   7    -0.709709380775E+03    0.81425E-07   -0.68287E-09   784   0.243E-03    0.158E-03
RMM:   8    -0.709709380813E+03   -0.37646E-07   -0.54705E-09   768   0.245E-03
  67 F= -.70970938E+03 E0= -.70909309E+03  d E =-.374306E-04  mag=     7.4622
       N       E                     dE             d eps       ncg     rms          rms(c)
DAV:   1    -0.709709412871E+03   -0.32096E-04   -0.17551E-03 13360   0.606E-02    0.112E-02
RMM:   2    -0.709709415327E+03   -0.24555E-05   -0.34361E-05  7078   0.107E-02    0.195E-02
RMM:   3    -0.709709415218E+03    0.10842E-06   -0.46840E-06  6255   0.505E-03    0.928E-03
RMM:   4    -0.709709420231E+03   -0.50131E-05   -0.34530E-07  1924   0.257E-03    0.307E-02
RMM:   5    -0.709709414781E+03    0.54503E-05   -0.97408E-08  1578   0.246E-03    0.914E-03
RMM:   6    -0.709709415444E+03   -0.66290E-06   -0.67783E-08  1178   0.239E-03    0.558E-03
RMM:   7    -0.709709415266E+03    0.17822E-06   -0.58856E-08  1107   0.246E-03    0.447E-03
RMM:   8    -0.709709414822E+03    0.44417E-06   -0.87103E-08  1095   0.254E-03
  68 F= -.70970941E+03 E0= -.70909314E+03  d E =-.340090E-04  mag=     7.4624
