       N       E                     dE             d eps       ncg     rms          rms(c)
DAV:   1     0.764883447947E+04    0.76488E+04   -0.29982E+05 15152   0.126E+03
DAV:   2     0.612989845477E+03   -0.70358E+04   -0.63580E+04 16000   0.375E+02
DAV:   3    -0.758030790701E+03   -0.13710E+04   -0.13176E+04 18752   0.166E+02
DAV:   4    -0.833327145266E+03   -0.75296E+02   -0.73373E+02 20496   0.432E+01
DAV:   5    -0.835022369214E+03   -0.16952E+01   -0.16658E+01 19264   0.600E+00    0.187E+02
RMM:   6    -0.699018581149E+03    0.13600E+03   -0.63196E+02 14896   0.403E+01    0.171E+02
RMM:   7    -0.146281451343E+04   -0.76380E+03   -0.41261E+02 16530   0.276E+01    0.385E+02
RMM:   8    -0.135315634604E+04    0.10966E+03   -0.12147E+02 19013   0.114E+01    0.370E+02
RMM:   9    -0.145141366355E+04   -0.98257E+02   -0.57149E+01 15581   0.102E+01    0.379E+02
RMM:  10    -0.102008021591E+04    0.43133E+03   -0.51562E+02 22232   0.265E+01    0.324E+02
RMM:  11    -0.115383419702E+04   -0.13375E+03   -0.80768E+01 16865   0.110E+01    0.288E+02
RMM:  12    -0.112802953788E+04    0.25805E+02   -0.21468E+02 19473   0.142E+01    0.171E+02
RMM:  13    -0.102223110514E+04    0.10580E+03   -0.26624E+02 21720   0.210E+01    0.206E+02
RMM:  14    -0.769268156012E+03    0.25296E+03   -0.37141E+01 15953   0.832E+00    0.147E+02
RMM:  15    -0.652844362669E+03    0.11642E+03   -0.62474E+01 18074   0.108E+01    0.135E+02
RMM:  16    -0.653847217578E+03   -0.10029E+01   -0.21540E+01 15757   0.695E+00    0.118E+02
RMM:  17    -0.637721808322E+03    0.16125E+02   -0.85964E+00 16179   0.434E+00    0.105E+02
RMM:  18    -0.629330015868E+03    0.83918E+01   -0.86390E+00 16006   0.434E+00    0.925E+01
RMM:  19    -0.629743215057E+03   -0.41320E+00   -0.36117E+00 15737   0.286E+00    0.872E+01
RMM:  20    -0.626186308195E+03    0.35569E+01   -0.32392E+00 15960   0.272E+00    0.761E+01
RMM:  21    -0.624323040254E+03    0.18633E+01   -0.45403E+00 17563   0.292E+00    0.603E+01
RMM:  22    -0.631733368701E+03   -0.74103E+01   -0.29367E+00 16184   0.254E+00    0.529E+01
RMM:  23    -0.635042254506E+03   -0.33089E+01   -0.12005E+00 15123   0.184E+00    0.492E+01
RMM:  24    -0.647459867912E+03   -0.12418E+02   -0.61658E+00 19209   0.350E+00    0.318E+01
RMM:  25    -0.660261163232E+03   -0.12801E+02   -0.70408E+00 19910   0.367E+00    0.178E+01
RMM:  26    -0.665300685453E+03   -0.50395E+01   -0.20249E+00 16603   0.205E+00    0.152E+01
RMM:  27    -0.669234425200E+03   -0.39337E+01   -0.15609E+00 16538   0.185E+00    0.154E+01
RMM:  28    -0.668264905421E+03    0.96952E+00   -0.44089E-01 15338   0.107E+00    0.137E+01
RMM:  29    -0.675061181883E+03   -0.67963E+01   -0.19899E+00 17745   0.185E+00    0.136E+01
RMM:  30    -0.677248398196E+03   -0.21872E+01   -0.90429E-01 17214   0.148E+00    0.124E+01
RMM:  31    -0.678028833836E+03   -0.78044E+00   -0.30763E-01 15139   0.887E-01    0.118E+01
RMM:  32    -0.678889906124E+03   -0.86107E+00   -0.17408E-01 15130   0.678E-01    0.114E+01
RMM:  33    -0.680049994518E+03   -0.11601E+01   -0.24586E-01 16182   0.786E-01    0.118E+01
RMM:  34    -0.682802259582E+03   -0.27523E+01   -0.75126E-01 19233   0.118E+00    0.169E+01
RMM:  35    -0.684565745442E+03   -0.17635E+01   -0.42480E-01 18018   0.918E-01    0.141E+01
RMM:  36    -0.685113999082E+03   -0.54825E+00   -0.19495E-01 15921   0.659E-01    0.133E+01
RMM:  37    -0.686984840059E+03   -0.18708E+01   -0.31031E-01 17460   0.758E-01    0.151E+01
RMM:  38    -0.689166334641E+03   -0.21815E+01   -0.69522E-01 19479   0.103E+00    0.135E+01
RMM:  39    -0.689451554453E+03   -0.28522E+00   -0.34900E-01 18225   0.756E-01    0.113E+01
RMM:  40    -0.691317989314E+03   -0.18664E+01   -0.22421E-01 17190   0.647E-01    0.140E+01
RMM:  41    -0.689545083039E+03    0.17729E+01   -0.48550E-02 15012   0.379E-01    0.120E+01
RMM:  42    -0.690550781186E+03   -0.10057E+01   -0.95925E-02 16601   0.392E-01    0.102E+01
RMM:  43    -0.691928675754E+03   -0.13779E+01   -0.10095E-01 17510   0.421E-01    0.957E+00
RMM:  44    -0.692165793167E+03   -0.23712E+00   -0.19877E-01 19403   0.557E-01    0.693E+00
RMM:  45    -0.692963070896E+03   -0.79728E+00   -0.14572E-01 18669   0.468E-01    0.446E+00
RMM:  46    -0.694031349670E+03   -0.10683E+01   -0.55607E-02 16514   0.310E-01    0.392E+00
RMM:  47    -0.694532708389E+03   -0.50136E+00   -0.43636E-02 16369   0.278E-01    0.357E+00
RMM:  48    -0.694416320601E+03    0.11639E+00   -0.45074E-02 17337   0.277E-01    0.433E+00
RMM:  49    -0.694651894381E+03   -0.23557E+00   -0.44209E-02 17177   0.276E-01    0.493E+00
RMM:  50    -0.694816883291E+03   -0.16499E+00   -0.35409E-02 16861   0.242E-01    0.529E+00
RMM:  51    -0.694134957499E+03    0.68193E+00   -0.24154E-01 21600   0.549E-01    0.445E+00
RMM:  52    -0.694215500530E+03   -0.80543E-01   -0.11727E-02 15050   0.199E-01    0.399E+00
RMM:  53    -0.694286500307E+03   -0.71000E-01   -0.21878E-02 16935   0.216E-01    0.328E+00
RMM:  54    -0.694750073830E+03   -0.46357E+00   -0.30567E-02 18702   0.237E-01    0.261E+00
RMM:  55    -0.695126765741E+03   -0.37669E+00   -0.11365E-02 15982   0.153E-01    0.223E+00
RMM:  56    -0.695241436704E+03   -0.11467E+00   -0.25595E-02 18901   0.230E-01    0.123E+00
RMM:  57    -0.695393873160E+03   -0.15244E+00   -0.46822E-03 15004   0.109E-01    0.934E-01
RMM:  58    -0.695650491481E+03   -0.25662E+00   -0.12489E-02 17308   0.142E-01    0.766E-01
RMM:  59    -0.695770917285E+03   -0.12043E+00   -0.81596E-03 16477   0.111E-01    0.814E-01
RMM:  60    -0.695847922696E+03   -0.77005E-01   -0.29164E-03 14729   0.711E-02    0.885E-01
RMM:  61    -0.695880922695E+03   -0.33000E-01   -0.22753E-03 15373   0.696E-02    0.755E-01
RMM:  62    -0.695966378564E+03   -0.85456E-01   -0.10542E-03 13672   0.515E-02    0.707E-01
RMM:  63    -0.696123181394E+03   -0.15680E+00   -0.18185E-03 14996   0.540E-02    0.497E-01
RMM:  64    -0.696258833856E+03   -0.13565E+00   -0.12806E-03 14129   0.455E-02    0.379E-01
RMM:  65    -0.696327444675E+03   -0.68611E-01   -0.79255E-04 13088   0.377E-02    0.238E-01
RMM:  66    -0.696352904078E+03   -0.25459E-01   -0.42374E-04 11615   0.304E-02    0.125E-01
RMM:  67    -0.696375676927E+03   -0.22773E-01   -0.26921E-04 10297   0.220E-02    0.872E-02
RMM:  68    -0.696387405643E+03   -0.11729E-01   -0.15500E-04  9334   0.163E-02    0.584E-02
RMM:  69    -0.696395710165E+03   -0.83045E-02   -0.51245E-05  8738   0.121E-02    0.374E-02
RMM:  70    -0.696402498877E+03   -0.67887E-02   -0.30162E-05  8358   0.932E-03    0.292E-02
RMM:  71    -0.696406253676E+03   -0.37548E-02   -0.14960E-05  7758   0.671E-03    0.218E-02
RMM:  72    -0.696408375096E+03   -0.21214E-02   -0.10565E-05  6368   0.480E-03    0.179E-02
RMM:  73    -0.696410219526E+03   -0.18444E-02   -0.15163E-05  6034   0.447E-03    0.137E-02
RMM:  74    -0.696412286312E+03   -0.20668E-02   -0.18632E-05  6252   0.469E-03    0.110E-02
RMM:  75    -0.696413941072E+03   -0.16548E-02   -0.15855E-05  6098   0.460E-03    0.101E-02
RMM:  76    -0.696414691159E+03   -0.75009E-03   -0.83341E-06  5283   0.415E-03    0.102E-02
RMM:  77    -0.696415197450E+03   -0.50629E-03   -0.64648E-06  4695   0.370E-03    0.705E-03
RMM:  78    -0.696415523627E+03   -0.32618E-03   -0.59459E-06  4582   0.363E-03    0.603E-03
RMM:  79    -0.696415551718E+03   -0.28091E-04   -0.39366E-06  4259   0.348E-03
   1 F= -.69641555E+03 E0= -.69585040E+03  d E =-.696416E+03  mag=     3.7768
       N       E                     dE             d eps       ncg     rms          rms(c)
DAV:   1    -0.695211268903E+03    0.12043E+01   -0.26214E+02 15344   0.203E+01    0.485E+00
RMM:   2    -0.695857380905E+03   -0.64611E+00   -0.64548E+00 14848   0.372E+00    0.506E+00
RMM:   3    -0.696056985682E+03   -0.19960E+00   -0.12058E+00 15495   0.167E+00    0.556E+00
RMM:   4    -0.696518619942E+03   -0.46163E+00   -0.33270E-01 16186   0.828E-01    0.100E+01
RMM:   5    -0.695927470737E+03    0.59115E+00   -0.96607E-02 14863   0.549E-01    0.380E+00
RMM:   6    -0.695872742821E+03    0.54728E-01   -0.53733E-02 14903   0.416E-01    0.236E+00
RMM:   7    -0.695856080111E+03    0.16663E-01   -0.42740E-02 15260   0.343E-01    0.209E+00
RMM:   8    -0.695833787237E+03    0.22293E-01   -0.19690E-02 14985   0.246E-01    0.969E-01
RMM:   9    -0.695834351188E+03   -0.56395E-03   -0.70937E-03 14998   0.151E-01    0.861E-01
RMM:  10    -0.695833487249E+03    0.86394E-03   -0.28689E-03 14511   0.932E-02    0.432E-01
RMM:  11    -0.695835745379E+03   -0.22581E-02   -0.12592E-03 13984   0.572E-02    0.316E-01
RMM:  12    -0.695838020023E+03   -0.22746E-02   -0.54646E-04 12753   0.396E-02    0.220E-01
RMM:  13    -0.695840193572E+03   -0.21735E-02   -0.37095E-04 11406   0.308E-02    0.133E-01
RMM:  14    -0.695842433070E+03   -0.22395E-02   -0.21787E-04  9999   0.237E-02    0.896E-02
RMM:  15    -0.695844055031E+03   -0.16220E-02   -0.83191E-05  8894   0.163E-02    0.636E-02
RMM:  16    -0.695845286890E+03   -0.12319E-02   -0.33428E-05  8162   0.105E-02    0.481E-02
RMM:  17    -0.695846706584E+03   -0.14197E-02   -0.18926E-05  7559   0.700E-03    0.394E-02
RMM:  18    -0.695848233488E+03   -0.15269E-02   -0.15870E-05  7357   0.608E-03    0.316E-02
RMM:  19    -0.695850554570E+03   -0.23211E-02   -0.24575E-05  7666   0.605E-03    0.233E-02
RMM:  20    -0.695851919941E+03   -0.13654E-02   -0.12376E-05  6037   0.492E-03    0.242E-02
RMM:  21    -0.695853789641E+03   -0.18697E-02   -0.19198E-05  6636   0.529E-03    0.196E-02
RMM:  22    -0.695855703362E+03   -0.19137E-02   -0.23005E-05  6579   0.534E-03    0.193E-02
RMM:  23    -0.695857588759E+03   -0.18854E-02   -0.32901E-05  7097   0.604E-03    0.147E-02
RMM:  24    -0.695858824504E+03   -0.12357E-02   -0.26464E-05  6624   0.566E-03    0.144E-02
RMM:  25    -0.695859391402E+03   -0.56690E-03   -0.11633E-05  5367   0.482E-03    0.119E-02
RMM:  26    -0.695859909253E+03   -0.51785E-03   -0.80188E-06  4908   0.408E-03    0.107E-02
RMM:  27    -0.695860487737E+03   -0.57848E-03   -0.51628E-06  4591   0.384E-03    0.106E-02
RMM:  28    -0.695860953787E+03   -0.46605E-03   -0.33543E-06  4041   0.346E-03    0.849E-03
RMM:  29    -0.695861579393E+03   -0.62561E-03   -0.32422E-06  4157   0.340E-03    0.808E-03
RMM:  30    -0.695861990409E+03   -0.41102E-03   -0.16349E-06  3396   0.313E-03    0.819E-03
RMM:  31    -0.695862461111E+03   -0.47070E-03   -0.17713E-06  3252   0.306E-03    0.839E-03
RMM:  32    -0.695863023474E+03   -0.56236E-03   -0.28140E-06  3721   0.315E-03    0.632E-03
RMM:  33    -0.695863317405E+03   -0.29393E-03   -0.12492E-06  2899   0.294E-03    0.472E-03
RMM:  34    -0.695863536051E+03   -0.21865E-03   -0.88967E-07  2550   0.288E-03    0.350E-03
RMM:  35    -0.695863644880E+03   -0.10883E-03   -0.49933E-07  2278   0.285E-03    0.291E-03
RMM:  36    -0.695863717915E+03   -0.73036E-04   -0.46588E-07  2230   0.283E-03
   2 F= -.69586372E+03 E0= -.69530295E+03  d E =0.551834E+00  mag=     3.9128
       N       E                     dE             d eps       ncg     rms          rms(c)
DAV:   1    -0.696203996417E+03   -0.34035E+00   -0.13439E+02 15024   0.144E+01    0.384E+00
RMM:   2    -0.696510315154E+03   -0.30632E+00   -0.36379E+00 14848   0.268E+00    0.293E+00
RMM:   3    -0.696784088977E+03   -0.27377E+00   -0.76736E-01 16029   0.116E+00    0.607E+00
RMM:   4    -0.696886644664E+03   -0.10256E+00   -0.13124E-01 15065   0.595E-01    0.756E+00
RMM:   5    -0.696568315928E+03    0.31833E+00   -0.55512E-02 14918   0.429E-01    0.278E+00
RMM:   6    -0.696543809300E+03    0.24507E-01   -0.27123E-02 14990   0.281E-01    0.194E+00
RMM:   7    -0.696531928434E+03    0.11881E-01   -0.17303E-02 15120   0.215E-01    0.134E+00
RMM:   8    -0.696528795399E+03    0.31330E-02   -0.93000E-03 15026   0.163E-01    0.856E-01
RMM:   9    -0.696531897425E+03   -0.31020E-02   -0.56059E-03 15010   0.124E-01    0.679E-01
RMM:  10    -0.696533477989E+03   -0.15806E-02   -0.20547E-03 14139   0.838E-02    0.425E-01
RMM:  11    -0.696535118480E+03   -0.16405E-02   -0.79439E-04 13296   0.470E-02    0.204E-01
RMM:  12    -0.696536706416E+03   -0.15879E-02   -0.30252E-04 10910   0.290E-02    0.163E-01
RMM:  13    -0.696538511081E+03   -0.18047E-02   -0.19429E-04  9668   0.238E-02    0.108E-01
RMM:  14    -0.696540173864E+03   -0.16628E-02   -0.14094E-04  9218   0.196E-02    0.771E-02
RMM:  15    -0.696540884061E+03   -0.71020E-03   -0.52710E-05  8582   0.131E-02    0.616E-02
RMM:  16    -0.696541204232E+03   -0.32017E-03   -0.19878E-05  7677   0.868E-03    0.358E-02
RMM:  17    -0.696541491486E+03   -0.28725E-03   -0.83156E-06  6718   0.512E-03    0.291E-02
RMM:  18    -0.696541820503E+03   -0.32902E-03   -0.50740E-06  5902   0.418E-03    0.236E-02
RMM:  19    -0.696542537141E+03   -0.71664E-03   -0.13603E-05  7320   0.512E-03    0.194E-02
RMM:  20    -0.696543132816E+03   -0.59568E-03   -0.92972E-06  6541   0.444E-03    0.178E-02
RMM:  21    -0.696543643263E+03   -0.51045E-03   -0.72260E-06  5898   0.427E-03    0.168E-02
RMM:  22    -0.696544183884E+03   -0.54062E-03   -0.96786E-06  6001   0.436E-03    0.156E-02
RMM:  23    -0.696544932145E+03   -0.74826E-03   -0.19022E-05  6890   0.520E-03    0.158E-02
RMM:  24    -0.696545566942E+03   -0.63480E-03   -0.18619E-05  6475   0.503E-03    0.123E-02
RMM:  25    -0.696545881563E+03   -0.31462E-03   -0.78064E-06  5327   0.432E-03    0.110E-02
RMM:  26    -0.696546133998E+03   -0.25244E-03   -0.45965E-06  4349   0.366E-03    0.990E-03
RMM:  27    -0.696546575366E+03   -0.44137E-03   -0.70402E-06  4919   0.375E-03    0.784E-03
RMM:  28    -0.696546987535E+03   -0.41217E-03   -0.48621E-06  4433   0.358E-03    0.697E-03
RMM:  29    -0.696547265687E+03   -0.27815E-03   -0.29189E-06  3780   0.333E-03    0.657E-03
RMM:  30    -0.696547529779E+03   -0.26409E-03   -0.16782E-06  3131   0.308E-03    0.659E-03
RMM:  31    -0.696547960822E+03   -0.43104E-03   -0.19757E-06  3257   0.309E-03    0.617E-03
RMM:  32    -0.696548347591E+03   -0.38677E-03   -0.17568E-06  3341   0.311E-03    0.526E-03
RMM:  33    -0.696548560857E+03   -0.21327E-03   -0.65311E-07  2541   0.294E-03    0.413E-03
RMM:  34    -0.696548787291E+03   -0.22643E-03   -0.52742E-07  2347   0.289E-03    0.298E-03
RMM:  35    -0.696548937098E+03   -0.14981E-03   -0.25495E-07  2167   0.286E-03    0.265E-03
RMM:  36    -0.696549053029E+03   -0.11593E-03   -0.26718E-07  2073   0.284E-03    0.215E-03
RMM:  37    -0.696549120977E+03   -0.67948E-04   -0.42214E-07  2213   0.286E-03
   3 F= -.69654912E+03 E0= -.69598541E+03  d E =-.133569E+00  mag=     3.8081
       N       E                     dE             d eps       ncg     rms          rms(c)
DAV:   1    -0.696560325497E+03   -0.11272E-01   -0.15548E+00 15344   0.156E+00    0.367E-01
RMM:   2    -0.696562869843E+03   -0.25443E-02   -0.29467E-02 14695   0.245E-01    0.387E-01
RMM:   3    -0.696566914477E+03   -0.40446E-02   -0.48563E-03 14782   0.105E-01    0.805E-01
RMM:   4    -0.696565692964E+03    0.12215E-02   -0.14532E-03 13819   0.630E-02    0.716E-01
RMM:   5    -0.696563116178E+03    0.25768E-02   -0.63326E-04 12860   0.477E-02    0.352E-01
RMM:   6    -0.696562717498E+03    0.39868E-03   -0.33048E-04 10810   0.325E-02    0.221E-01
RMM:   7    -0.696562538667E+03    0.17883E-03   -0.21651E-04  9667   0.261E-02    0.157E-01
RMM:   8    -0.696562468639E+03    0.70028E-04   -0.11400E-04  8692   0.200E-02
   4 F= -.69656247E+03 E0= -.69599828E+03  d E =-.146917E+00  mag=     3.8067
       N       E                     dE             d eps       ncg     rms          rms(c)
DAV:   1    -0.696161145071E+03    0.40139E+00   -0.92364E+01 14944   0.128E+01    0.307E+00
RMM:   2    -0.696429473679E+03   -0.26833E+00   -0.17382E+00 14848   0.241E+00    0.527E+00
RMM:   3    -0.696969299597E+03   -0.53983E+00   -0.48487E-01 15958   0.108E+00    0.966E+00
RMM:   4    -0.696402763361E+03    0.56654E+00   -0.11923E-01 15013   0.604E-01    0.386E+00
RMM:   5    -0.696384610214E+03    0.18153E-01   -0.40166E-02 14943   0.374E-01    0.296E+00
RMM:   6    -0.696342557141E+03    0.42053E-01   -0.22818E-02 14926   0.265E-01    0.187E+00
RMM:   7    -0.696334204187E+03    0.83530E-02   -0.17336E-02 15249   0.220E-01    0.130E+00
RMM:   8    -0.696329114955E+03    0.50892E-02   -0.84548E-03 14933   0.154E-01    0.733E-01
RMM:   9    -0.696327565460E+03    0.15495E-02   -0.48079E-03 14924   0.114E-01    0.685E-01
RMM:  10    -0.696325360420E+03    0.22050E-02   -0.14100E-03 13794   0.685E-02    0.397E-01
RMM:  11    -0.696324437150E+03    0.92327E-03   -0.52898E-04 12237   0.393E-02    0.235E-01
RMM:  12    -0.696324239166E+03    0.19798E-03   -0.27950E-04 10541   0.274E-02    0.182E-01
RMM:  13    -0.696324242477E+03   -0.33112E-05   -0.25904E-04 10081   0.259E-02
   5 F= -.69632424E+03 E0= -.69575949E+03  d E =0.238226E+00  mag=     3.8179
       N       E                     dE             d eps       ncg     rms          rms(c)
DAV:   1    -0.696468086459E+03   -0.14385E+00   -0.16021E+01 15344   0.540E+00    0.119E+00
RMM:   2    -0.696506888810E+03   -0.38802E-01   -0.28259E-01 14848   0.910E-01    0.178E+00
RMM:   3    -0.696568557442E+03   -0.61669E-01   -0.66157E-02 16221   0.405E-01    0.325E+00
RMM:   4    -0.696517056429E+03    0.51501E-01   -0.16646E-02 14879   0.227E-01    0.195E+00
RMM:   5    -0.696504364597E+03    0.12692E-01   -0.64288E-03 14857   0.158E-01    0.111E+00
RMM:   6    -0.696498554585E+03    0.58100E-02   -0.36348E-03 14827   0.105E-01    0.691E-01
RMM:   7    -0.696497435433E+03    0.11192E-02   -0.25615E-03 14745   0.855E-02    0.427E-01
RMM:   8    -0.696497871954E+03   -0.43652E-03   -0.16238E-03 14196   0.652E-02    0.387E-01
RMM:   9    -0.696497331630E+03    0.54032E-03   -0.52898E-04 12534   0.440E-02    0.197E-01
RMM:  10    -0.696497340986E+03   -0.93560E-05   -0.17753E-04  9524   0.236E-02
   6 F= -.69649734E+03 E0= -.69593343E+03  d E =0.651277E-01  mag=     3.8211
       N       E                     dE             d eps       ncg     rms          rms(c)
DAV:   1    -0.696564042114E+03   -0.66710E-01   -0.41246E+00 15312   0.270E+00    0.572E-01
RMM:   2    -0.696584392680E+03   -0.20351E-01   -0.71687E-02 14848   0.467E-01    0.160E+00
RMM:   3    -0.696576851975E+03    0.75407E-02   -0.17166E-02 16239   0.207E-01    0.974E-01
RMM:   4    -0.696573417581E+03    0.34344E-02   -0.36199E-03 14715   0.108E-01    0.697E-01
RMM:   5    -0.696572644411E+03    0.77317E-03   -0.16112E-03 14255   0.755E-02    0.542E-01
RMM:   6    -0.696571297413E+03    0.13470E-02   -0.93252E-04 13653   0.551E-02    0.317E-01
RMM:   7    -0.696571148265E+03    0.14915E-03   -0.69621E-04 13288   0.437E-02    0.229E-01
RMM:   8    -0.696571083345E+03    0.64920E-04   -0.31823E-04 10914   0.312E-02
   7 F= -.69657108E+03 E0= -.69600693E+03  d E =-.861471E-02  mag=     3.8208
       N       E                     dE             d eps       ncg     rms          rms(c)
DAV:   1    -0.696611123388E+03   -0.39975E-01   -0.31878E+00 15344   0.237E+00    0.536E-01
RMM:   2    -0.696620455063E+03   -0.93317E-02   -0.55052E-02 14848   0.417E-01    0.991E-01
RMM:   3    -0.696629652591E+03   -0.91975E-02   -0.13565E-02 16118   0.184E-01    0.140E+00
RMM:   4    -0.696620678662E+03    0.89739E-02   -0.35437E-03 14560   0.104E-01    0.915E-01
RMM:   5    -0.696617095961E+03    0.35827E-02   -0.11345E-03 13702   0.683E-02    0.419E-01
RMM:   6    -0.696616067008E+03    0.10290E-02   -0.72722E-04 13117   0.454E-02    0.240E-01
RMM:   7    -0.696616139680E+03   -0.72672E-04   -0.52997E-04 12390   0.381E-02    0.222E-01
RMM:   8    -0.696616066255E+03    0.73425E-04   -0.26873E-04 10451   0.291E-02
   8 F= -.69661607E+03 E0= -.69605192E+03  d E =-.535976E-01  mag=     3.8186
       N       E                     dE             d eps       ncg     rms          rms(c)
DAV:   1    -0.696632424015E+03   -0.16284E-01   -0.26795E+01 15040   0.626E+00    0.182E+00
RMM:   2    -0.696711458743E+03   -0.79035E-01   -0.53543E-01 14848   0.124E+00    0.302E+00
RMM:   3    -0.696867903185E+03   -0.15644E+00   -0.12749E-01 15647   0.556E-01    0.526E+00
RMM:   4    -0.696711417284E+03    0.15649E+00   -0.36100E-02 14947   0.328E-01    0.263E+00
RMM:   5    -0.696692675543E+03    0.18742E-01   -0.13329E-02 14866   0.218E-01    0.168E+00
RMM:   6    -0.696679315604E+03    0.13360E-01   -0.89623E-03 14972   0.164E-01    0.113E+00
RMM:   7    -0.696676693102E+03    0.26225E-02   -0.64452E-03 15252   0.132E-01    0.782E-01
RMM:   8    -0.696674845825E+03    0.18473E-02   -0.40933E-03 14887   0.102E-01    0.466E-01
RMM:   9    -0.696674044008E+03    0.80182E-03   -0.19539E-03 13899   0.737E-02    0.279E-01
RMM:  10    -0.696673704994E+03    0.33901E-03   -0.49891E-04 12391   0.397E-02    0.201E-01
RMM:  11    -0.696673440142E+03    0.26485E-03   -0.16784E-04  9486   0.231E-02    0.101E-01
RMM:  12    -0.696673417755E+03    0.22386E-04   -0.11583E-04  8993   0.180E-02
   9 F= -.69667342E+03 E0= -.69610950E+03  d E =-.573515E-01  mag=     3.8211
       N       E                     dE             d eps       ncg     rms          rms(c)
DAV:   1    -0.696700610369E+03   -0.27170E-01   -0.30746E+00 15232   0.217E+00    0.515E-01
RMM:   2    -0.696711694612E+03   -0.11084E-01   -0.58807E-02 14848   0.383E-01    0.115E+00
RMM:   3    -0.696713373402E+03   -0.16788E-02   -0.11634E-02 16072   0.170E-01    0.107E+00
RMM:   4    -0.696708762185E+03    0.46112E-02   -0.30418E-03 14391   0.916E-02    0.757E-01
RMM:   5    -0.696707289411E+03    0.14728E-02   -0.15320E-03 13906   0.707E-02    0.522E-01
RMM:   6    -0.696706189431E+03    0.11000E-02   -0.11448E-03 13943   0.568E-02    0.299E-01
RMM:   7    -0.696706130674E+03    0.58757E-04   -0.67383E-04 13354   0.434E-02    0.224E-01
RMM:   8    -0.696706095722E+03    0.34952E-04   -0.33931E-04 11182   0.318E-02
  10 F= -.69670610E+03 E0= -.69614204E+03  d E =-.900295E-01  mag=     3.8217
       N       E                     dE             d eps       ncg     rms          rms(c)
DAV:   1    -0.696607065783E+03    0.99065E-01   -0.11012E+01 15152   0.489E+00    0.931E-01
RMM:   2    -0.696634442633E+03   -0.27377E-01   -0.25241E-01 14848   0.783E-01    0.128E+00
RMM:   3    -0.696663179151E+03   -0.28737E-01   -0.36454E-02 15157   0.331E-01    0.225E+00
RMM:   4    -0.696642771635E+03    0.20408E-01   -0.10076E-02 14967   0.184E-01    0.148E+00
RMM:   5    -0.696633546523E+03    0.92251E-02   -0.43628E-03 14754   0.130E-01    0.820E-01
RMM:   6    -0.696632117887E+03    0.14286E-02   -0.21453E-03 14236   0.818E-02    0.569E-01
RMM:   7    -0.696631293296E+03    0.82459E-03   -0.14679E-03 14108   0.659E-02    0.419E-01
RMM:   8    -0.696630522890E+03    0.77041E-03   -0.61684E-04 12731   0.451E-02    0.207E-01
RMM:   9    -0.696630489076E+03    0.33814E-04   -0.27547E-04 10566   0.302E-02
  11 F= -.69663049E+03 E0= -.69606721E+03  d E =0.756066E-01  mag=     3.8205
       N       E                     dE             d eps       ncg     rms          rms(c)
DAV:   1    -0.696736871300E+03   -0.10635E+00   -0.52626E+00 15296   0.340E+00    0.618E-01
RMM:   2    -0.696748829982E+03   -0.11959E-01   -0.11524E-01 14848   0.534E-01    0.860E-01
RMM:   3    -0.696754338918E+03   -0.55089E-02   -0.15024E-02 15019   0.223E-01    0.104E+00
RMM:   4    -0.696765188613E+03   -0.10850E-01   -0.50859E-03 15093   0.121E-01    0.170E+00
RMM:   5    -0.696748548795E+03    0.16640E-01   -0.22403E-03 14322   0.940E-02    0.555E-01
RMM:   6    -0.696747952225E+03    0.59657E-03   -0.10162E-03 13447   0.579E-02    0.335E-01
RMM:   7    -0.696747702702E+03    0.24952E-03   -0.71663E-04 13222   0.464E-02    0.211E-01
RMM:   8    -0.696747632029E+03    0.70673E-04   -0.26617E-04 10485   0.297E-02
  12 F= -.69674763E+03 E0= -.69618390E+03  d E =-.415363E-01  mag=     3.8216
       N       E                     dE             d eps       ncg     rms          rms(c)
DAV:   1    -0.696747657890E+03    0.44812E-04   -0.29411E-02 15552   0.260E-01    0.908E-02
RMM:   2    -0.696748252331E+03   -0.59444E-03   -0.87671E-04 13305   0.494E-02    0.287E-01
RMM:   3    -0.696747742195E+03    0.51014E-03   -0.19934E-04  8641   0.309E-02    0.101E-01
RMM:   4    -0.696747838652E+03   -0.96458E-04   -0.49765E-05  8096   0.147E-02    0.147E-01
RMM:   5    -0.696747713371E+03    0.12528E-03   -0.17733E-05  7680   0.889E-03    0.455E-02
RMM:   6    -0.696747726264E+03   -0.12894E-04   -0.12417E-05  6904   0.648E-03    0.242E-02
RMM:   7    -0.696747738946E+03   -0.12681E-04   -0.80709E-06  6749   0.533E-03    0.307E-02
RMM:   8    -0.696747745148E+03   -0.62022E-05   -0.47811E-06  6450   0.478E-03
  13 F= -.69674775E+03 E0= -.69618413E+03  d E =-.416494E-01  mag=     3.8216
       N       E                     dE             d eps       ncg     rms          rms(c)
DAV:   1    -0.696776793379E+03   -0.29054E-01   -0.40205E+00 15232   0.269E+00    0.657E-01
RMM:   2    -0.696787950437E+03   -0.11157E-01   -0.89464E-02 14848   0.414E-01    0.108E+00
RMM:   3    -0.696796791501E+03   -0.88411E-02   -0.13391E-02 15209   0.183E-01    0.134E+00
RMM:   4    -0.696796197895E+03    0.59361E-03   -0.42712E-03 14634   0.112E-01    0.150E+00
RMM:   5    -0.696791720032E+03    0.44779E-02   -0.18164E-03 14012   0.806E-02    0.107E+00
RMM:   6    -0.696785138359E+03    0.65817E-02   -0.73805E-04 13245   0.543E-02    0.506E-01
RMM:   7    -0.696784111624E+03    0.10267E-02   -0.46386E-04 12009   0.368E-02    0.190E-01
RMM:   8    -0.696784322214E+03   -0.21059E-03   -0.31782E-04 10953   0.309E-02    0.214E-01
RMM:   9    -0.696784048016E+03    0.27420E-03   -0.12034E-04  8770   0.228E-02    0.724E-02
RMM:  10    -0.696784031825E+03    0.16191E-04   -0.38195E-05  8439   0.123E-02
  14 F= -.69678403E+03 E0= -.69622103E+03  d E =-.362867E-01  mag=     3.8224
       N       E                     dE             d eps       ncg     rms          rms(c)
DAV:   1    -0.696785224813E+03   -0.11768E-02   -0.10901E-01 15376   0.445E-01    0.108E-01
RMM:   2    -0.696785758983E+03   -0.53417E-03   -0.23549E-03 13473   0.687E-02    0.239E-01
RMM:   3    -0.696785789742E+03   -0.30760E-04   -0.34535E-04  9914   0.316E-02    0.224E-01
RMM:   4    -0.696785785928E+03    0.38144E-05   -0.13932E-04  8306   0.216E-02    0.253E-01
RMM:   5    -0.696785637222E+03    0.14871E-03   -0.50722E-05  7979   0.157E-02    0.152E-01
RMM:   6    -0.696785540572E+03    0.96650E-04   -0.21911E-05  7382   0.938E-03    0.804E-02
RMM:   7    -0.696785555354E+03   -0.14783E-04   -0.16147E-05  7157   0.750E-03    0.428E-02
RMM:   8    -0.696785577822E+03   -0.22468E-04   -0.89880E-06  6999   0.612E-03
  15 F= -.69678558E+03 E0= -.69622241E+03  d E =-.378327E-01  mag=     3.8232
       N       E                     dE             d eps       ncg     rms          rms(c)
DAV:   1    -0.696811027033E+03   -0.25472E-01   -0.15775E+00 15200   0.162E+00    0.448E-01
RMM:   2    -0.696815238953E+03   -0.42119E-02   -0.41986E-02 14860   0.265E-01    0.695E-01
RMM:   3    -0.696824040919E+03   -0.88020E-02   -0.66606E-03 14891   0.123E-01    0.123E+00
RMM:   4    -0.696815698336E+03    0.83426E-02   -0.17349E-03 13931   0.743E-02    0.680E-01
RMM:   5    -0.696815505525E+03    0.19281E-03   -0.85198E-04 13570   0.508E-02    0.544E-01
RMM:   6    -0.696813724926E+03    0.17806E-02   -0.46393E-04 11701   0.398E-02    0.225E-01
RMM:   7    -0.696813569571E+03    0.15535E-03   -0.21600E-04  9740   0.265E-02    0.117E-01
RMM:   8    -0.696813555116E+03    0.14455E-04   -0.14109E-04  8916   0.211E-02
  16 F= -.69681356E+03 E0= -.69625065E+03  d E =-.279773E-01  mag=     3.8249
       N       E                     dE             d eps       ncg     rms          rms(c)
DAV:   1    -0.696814208501E+03   -0.63893E-03   -0.57255E-02 15376   0.312E-01    0.920E-02
RMM:   2    -0.696814603671E+03   -0.39517E-03   -0.15326E-03 12706   0.532E-02    0.249E-01
RMM:   3    -0.696814351230E+03    0.25244E-03   -0.25746E-04  9098   0.290E-02    0.965E-02
RMM:   4    -0.696814773653E+03   -0.42242E-03   -0.96700E-05  8422   0.169E-02    0.274E-01
RMM:   5    -0.696814360478E+03    0.41317E-03   -0.37470E-05  8209   0.131E-02    0.708E-02
RMM:   6    -0.696814398325E+03   -0.37846E-04   -0.19078E-05  7280   0.768E-03    0.658E-02
RMM:   7    -0.696814412621E+03   -0.14296E-04   -0.11273E-05  7051   0.697E-03    0.319E-02
RMM:   8    -0.696814457983E+03   -0.45362E-04   -0.63768E-06  6465   0.501E-03
  17 F= -.69681446E+03 E0= -.69625168E+03  d E =-.288802E-01  mag=     3.8264
       N       E                     dE             d eps       ncg     rms          rms(c)
DAV:   1    -0.696844082707E+03   -0.29670E-01   -0.80150E-01 15200   0.118E+00    0.251E-01
RMM:   2    -0.696846107008E+03   -0.20243E-02   -0.20635E-02 14789   0.188E-01    0.390E-01
RMM:   3    -0.696848570797E+03   -0.24638E-02   -0.32368E-03 14980   0.813E-02    0.672E-01
RMM:   4    -0.696846182897E+03    0.23879E-02   -0.59407E-04 12464   0.425E-02    0.276E-01
RMM:   5    -0.696846157404E+03    0.25493E-04   -0.29084E-04 10483   0.315E-02    0.253E-01
RMM:   6    -0.696845943865E+03    0.21354E-03   -0.17031E-04  9043   0.246E-02    0.144E-01
RMM:   7    -0.696845930618E+03    0.13247E-04   -0.11095E-04  8639   0.195E-02    0.101E-01
RMM:   8    -0.696845975594E+03   -0.44976E-04   -0.71183E-05  8245   0.154E-02
  18 F= -.69684598E+03 E0= -.69628326E+03  d E =-.315176E-01  mag=     3.8272
       N       E                     dE             d eps       ncg     rms          rms(c)
DAV:   1    -0.696847369495E+03   -0.14389E-02   -0.38391E-02 15360   0.259E-01    0.727E-02
RMM:   2    -0.696849946005E+03   -0.25765E-02   -0.11281E-03 12665   0.455E-02    0.604E-01
RMM:   3    -0.696847400025E+03    0.25460E-02   -0.22993E-04  9063   0.299E-02    0.676E-02
RMM:   4    -0.696847511369E+03   -0.11134E-03   -0.69666E-05  8278   0.162E-02    0.647E-02
RMM:   5    -0.696847524486E+03   -0.13117E-04   -0.20297E-05  7520   0.964E-03    0.433E-02
RMM:   6    -0.696847557686E+03   -0.33200E-04   -0.76164E-06  6531   0.574E-03    0.355E-02
RMM:   7    -0.696847599239E+03   -0.41552E-04   -0.64176E-06  6366   0.505E-03    0.414E-02
RMM:   8    -0.696847620014E+03   -0.20776E-04   -0.45562E-06  5959   0.455E-03
  19 F= -.69684762E+03 E0= -.69628490E+03  d E =-.331620E-01  mag=     3.8278
       N       E                     dE             d eps       ncg     rms          rms(c)
DAV:   1    -0.696864080482E+03   -0.16481E-01   -0.55143E-01 15168   0.964E-01    0.234E-01
RMM:   2    -0.696865093501E+03   -0.10130E-02   -0.11285E-02 14515   0.145E-01    0.259E-01
RMM:   3    -0.696869900160E+03   -0.48067E-02   -0.17358E-03 13925   0.673E-02    0.856E-01
RMM:   4    -0.696864988881E+03    0.49113E-02   -0.54105E-04 12392   0.446E-02    0.206E-01
RMM:   5    -0.696865157444E+03   -0.16856E-03   -0.20903E-04  9615   0.267E-02    0.173E-01
RMM:   6    -0.696865061693E+03    0.95751E-04   -0.97206E-05  8595   0.195E-02    0.121E-01
RMM:   7    -0.696865009688E+03    0.52005E-04   -0.45675E-05  8149   0.131E-02    0.530E-02
RMM:   8    -0.696865032592E+03   -0.22903E-04   -0.28438E-05  7587   0.966E-03
  20 F= -.69686503E+03 E0= -.69630224E+03  d E =-.174126E-01  mag=     3.8267
       N       E                     dE             d eps       ncg     rms          rms(c)
DAV:   1    -0.696865216917E+03   -0.20723E-03   -0.58513E-03 15152   0.103E-01    0.339E-02
RMM:   2    -0.696865323837E+03   -0.10692E-03   -0.15783E-04  8394   0.187E-02    0.115E-01
RMM:   3    -0.696865297640E+03    0.26197E-04   -0.37462E-05  7928   0.129E-02    0.944E-02
RMM:   4    -0.696865247832E+03    0.49808E-04   -0.98279E-06  6820   0.633E-03    0.332E-02
RMM:   5    -0.696865256014E+03   -0.81816E-05   -0.40367E-06  5839   0.443E-03    0.190E-02
RMM:   6    -0.696865261775E+03   -0.57606E-05   -0.10886E-06  3610   0.313E-03    0.151E-02
RMM:   7    -0.696865269611E+03   -0.78360E-05   -0.30649E-07  2444   0.279E-03    0.128E-02
RMM:   8    -0.696865277303E+03   -0.76920E-05   -0.16969E-07  1991   0.275E-03
  21 F= -.69686528E+03 E0= -.69630247E+03  d E =-.176573E-01  mag=     3.8258
       N       E                     dE             d eps       ncg     rms          rms(c)
DAV:   1    -0.696874422539E+03   -0.91529E-02   -0.35835E-01 15344   0.746E-01    0.233E-01
RMM:   2    -0.696874878145E+03   -0.45561E-03   -0.87069E-03 14112   0.123E-01    0.243E-01
RMM:   3    -0.696878665142E+03   -0.37870E-02   -0.13601E-03 13552   0.571E-02    0.780E-01
RMM:   4    -0.696874650294E+03    0.40148E-02   -0.42168E-04 11270   0.382E-02    0.144E-01
RMM:   5    -0.696874901198E+03   -0.25090E-03   -0.21374E-04  9656   0.262E-02    0.202E-01
RMM:   6    -0.696874750366E+03    0.15083E-03   -0.13234E-04  8548   0.231E-02    0.127E-01
RMM:   7    -0.696874659400E+03    0.90965E-04   -0.50548E-05  8201   0.146E-02    0.624E-02
RMM:   8    -0.696874654350E+03    0.50500E-05   -0.25434E-05  7408   0.951E-03
  22 F= -.69687465E+03 E0= -.69631187E+03  d E =-.937705E-02  mag=     3.8241
       N       E                     dE             d eps       ncg     rms          rms(c)
DAV:   1    -0.696875065908E+03   -0.40651E-03   -0.89623E-03 15392   0.120E-01    0.477E-02
RMM:   2    -0.696875687897E+03   -0.62199E-03   -0.27767E-04  8905   0.236E-02    0.292E-01
RMM:   3    -0.696875164883E+03    0.52301E-03   -0.76060E-05  8000   0.177E-02    0.953E-02
RMM:   4    -0.696875156173E+03    0.87098E-05   -0.22187E-05  7439   0.946E-03    0.466E-02
RMM:   5    -0.696875170864E+03   -0.14691E-04   -0.63997E-06  6580   0.568E-03    0.205E-02
RMM:   6    -0.696875195846E+03   -0.24981E-04   -0.31781E-06  4925   0.381E-03    0.260E-02
RMM:   7    -0.696875221771E+03   -0.25926E-04   -0.19153E-06  4245   0.347E-03    0.196E-02
RMM:   8    -0.696875241845E+03   -0.20073E-04   -0.77578E-07  2922   0.309E-03
  23 F= -.69687524E+03 E0= -.69631240E+03  d E =-.996454E-02  mag=     3.8229
       N       E                     dE             d eps       ncg     rms          rms(c)
DAV:   1    -0.696882165854E+03   -0.69441E-02   -0.12388E-01 15360   0.453E-01    0.928E-02
RMM:   2    -0.696882379443E+03   -0.21359E-03   -0.22340E-03 13009   0.679E-02    0.839E-02
RMM:   3    -0.696882591029E+03   -0.21159E-03   -0.32242E-04  9705   0.293E-02    0.176E-01
RMM:   4    -0.696882521227E+03    0.69803E-04   -0.95364E-05  8373   0.179E-02    0.144E-01
RMM:   5    -0.696882430183E+03    0.91043E-04   -0.41877E-05  8019   0.126E-02    0.759E-02
RMM:   6    -0.696882417303E+03    0.12880E-04   -0.21570E-05  7295   0.946E-03    0.589E-02
RMM:   7    -0.696882413462E+03    0.38415E-05   -0.10341E-05  6989   0.661E-03    0.330E-02
RMM:   8    -0.696882419778E+03   -0.63157E-05   -0.46978E-06  5764   0.451E-03
  24 F= -.69688242E+03 E0= -.69631966E+03  d E =-.717793E-02  mag=     3.8219
       N       E                     dE             d eps       ncg     rms          rms(c)
DAV:   1    -0.696882487561E+03   -0.74100E-04   -0.14813E-03 14880   0.502E-02    0.155E-02
RMM:   2    -0.696882528768E+03   -0.41207E-04   -0.34240E-05  7576   0.884E-03    0.620E-02
RMM:   3    -0.696882518312E+03    0.10456E-04   -0.73861E-06  6612   0.594E-03    0.435E-02
RMM:   4    -0.696882509101E+03    0.92107E-05   -0.99975E-07  3094   0.304E-03    0.109E-02
RMM:   5    -0.696882514726E+03   -0.56247E-05   -0.21969E-07  1943   0.266E-03    0.623E-03
RMM:   6    -0.696882526323E+03   -0.11597E-04   -0.51303E-08  1554   0.260E-03    0.100E-02
RMM:   7    -0.696882532021E+03   -0.56978E-05   -0.12227E-08  1321   0.254E-03    0.600E-03
RMM:   8    -0.696882543897E+03   -0.11877E-04   -0.40061E-08  1282   0.258E-03
  25 F= -.69688254E+03 E0= -.69631978E+03  d E =-.730205E-02  mag=     3.8210
       N       E                     dE             d eps       ncg     rms          rms(c)
DAV:   1    -0.696885034147E+03   -0.25021E-02   -0.30043E-02 15360   0.216E-01    0.502E-02
RMM:   2    -0.696885115371E+03   -0.81224E-04   -0.55061E-04 10523   0.363E-02    0.809E-02
RMM:   3    -0.696885245042E+03   -0.12967E-03   -0.94116E-05  8202   0.178E-02    0.155E-01
RMM:   4    -0.696885098909E+03    0.14613E-03   -0.31076E-05  7731   0.117E-02    0.463E-02
RMM:   5    -0.696885109492E+03   -0.10583E-04   -0.12567E-05  6868   0.658E-03    0.490E-02
RMM:   6    -0.696885099032E+03    0.10460E-04   -0.57679E-06  6473   0.522E-03    0.276E-02
RMM:   7    -0.696885098653E+03    0.37914E-06   -0.37212E-06  5331   0.400E-03    0.182E-02
RMM:   8    -0.696885103581E+03   -0.49276E-05   -0.19114E-06  4093   0.341E-03
  26 F= -.69688510E+03 E0= -.69632237E+03  d E =-.255968E-02  mag=     3.8202
       N       E                     dE             d eps       ncg     rms          rms(c)
DAV:   1    -0.696885702612E+03   -0.60396E-03   -0.20035E-02 15360   0.176E-01    0.414E-02
RMM:   2    -0.696885753828E+03   -0.51217E-04   -0.37084E-04  9610   0.296E-02    0.617E-02
RMM:   3    -0.696885810806E+03   -0.56977E-04   -0.60038E-05  8029   0.147E-02    0.104E-01
RMM:   4    -0.696885762723E+03    0.48082E-04   -0.20110E-05  7152   0.887E-03    0.612E-02
RMM:   5    -0.696885751805E+03    0.10918E-04   -0.81887E-06  6589   0.593E-03    0.376E-02
RMM:   6    -0.696885745271E+03    0.65339E-05   -0.39287E-06  5838   0.443E-03    0.221E-02
RMM:   7    -0.696885745354E+03   -0.82517E-07   -0.18539E-06  4082   0.344E-03    0.102E-02
RMM:   8    -0.696885748527E+03   -0.31737E-05   -0.11238E-06  3112   0.313E-03
  27 F= -.69688575E+03 E0= -.69632306E+03  d E =-.320463E-02  mag=     3.8193
       N       E                     dE             d eps       ncg     rms          rms(c)
DAV:   1    -0.696887917571E+03   -0.21722E-02   -0.19160E-02 15360   0.156E-01    0.379E-02
RMM:   2    -0.696887993250E+03   -0.75678E-04   -0.29580E-04  9826   0.308E-02    0.953E-02
RMM:   3    -0.696887968041E+03    0.25209E-04   -0.62978E-05  8119   0.149E-02    0.709E-02
RMM:   4    -0.696887945857E+03    0.22184E-04   -0.19300E-05  7281   0.897E-03    0.453E-02
RMM:   5    -0.696887939569E+03    0.62879E-05   -0.94686E-06  6760   0.601E-03    0.422E-02
RMM:   6    -0.696887924241E+03    0.15328E-04   -0.69426E-06  6636   0.525E-03    0.280E-02
RMM:   7    -0.696887914328E+03    0.99137E-05   -0.46742E-06  5851   0.429E-03    0.158E-02
RMM:   8    -0.696887913326E+03    0.10013E-05   -0.12200E-06  3266   0.320E-03
  28 F= -.69688791E+03 E0= -.69632523E+03  d E =-.216480E-02  mag=     3.8183
       N       E                     dE             d eps       ncg     rms          rms(c)
DAV:   1    -0.696889997924E+03   -0.20836E-02   -0.17206E-01 15328   0.466E-01    0.111E-01
RMM:   2    -0.696890424753E+03   -0.42683E-03   -0.26103E-03 14208   0.919E-02    0.215E-01
RMM:   3    -0.696890627246E+03   -0.20249E-03   -0.63380E-04 12395   0.393E-02    0.256E-01
RMM:   4    -0.696890261904E+03    0.36534E-03   -0.15049E-04  8833   0.228E-02    0.149E-01
RMM:   5    -0.696890220602E+03    0.41302E-04   -0.78409E-05  8453   0.176E-02    0.121E-01
RMM:   6    -0.696890118138E+03    0.10246E-03   -0.62080E-05  8291   0.140E-02    0.840E-02
RMM:   7    -0.696890062539E+03    0.55599E-04   -0.46680E-05  7949   0.120E-02    0.479E-02
RMM:   8    -0.696890057034E+03    0.55049E-05   -0.19440E-05  7259   0.847E-03
  29 F= -.69689006E+03 E0= -.69632741E+03  d E =-.430851E-02  mag=     3.8166
       N       E                     dE             d eps       ncg     rms          rms(c)
DAV:   1    -0.696891611000E+03   -0.15485E-02   -0.31524E-02 15360   0.213E-01    0.546E-02
RMM:   2    -0.696891905669E+03   -0.29467E-03   -0.61016E-04 11407   0.417E-02    0.204E-01
RMM:   3    -0.696891687092E+03    0.21858E-03   -0.12162E-04  8555   0.198E-02    0.758E-02
RMM:   4    -0.696891698794E+03   -0.11703E-04   -0.40912E-05  8032   0.131E-02    0.885E-02
RMM:   5    -0.696891661624E+03    0.37170E-04   -0.14727E-05  7342   0.826E-03    0.386E-02
RMM:   6    -0.696891659319E+03    0.23058E-05   -0.96427E-06  6907   0.586E-03    0.502E-02
RMM:   7    -0.696891652693E+03    0.66259E-05   -0.54084E-06  6277   0.494E-03    0.264E-02
RMM:   8    -0.696891655734E+03   -0.30417E-05   -0.30238E-06  4839   0.375E-03
  30 F= -.69689166E+03 E0= -.69632904E+03  d E =-.159870E-02  mag=     3.8150
       N       E                     dE             d eps       ncg     rms          rms(c)
DAV:   1    -0.696891883142E+03   -0.23045E-03   -0.93252E-03 15344   0.115E-01    0.301E-02
RMM:   2    -0.696891914775E+03   -0.31634E-04   -0.17113E-04  8598   0.221E-02    0.488E-02
RMM:   3    -0.696891932329E+03   -0.17553E-04   -0.31010E-05  7816   0.112E-02    0.632E-02
RMM:   4    -0.696891915503E+03    0.16825E-04   -0.86624E-06  6611   0.586E-03    0.311E-02
RMM:   5    -0.696891918517E+03   -0.30140E-05   -0.39929E-06  6010   0.426E-03    0.299E-02
RMM:   6    -0.696891921529E+03   -0.30111E-05   -0.20581E-06  4634   0.360E-03    0.246E-02
RMM:   7    -0.696891928443E+03   -0.69144E-05   -0.11989E-06  3508   0.320E-03    0.143E-02
RMM:   8    -0.696891936607E+03   -0.81636E-05   -0.72244E-07  2809   0.305E-03
  31 F= -.69689194E+03 E0= -.69632935E+03  d E =-.187957E-02  mag=     3.8136
       N       E                     dE             d eps       ncg     rms          rms(c)
DAV:   1    -0.696892862169E+03   -0.93373E-03   -0.50860E-03 15184   0.921E-02    0.201E-02
RMM:   2    -0.696892901063E+03   -0.38894E-04   -0.98049E-05  7989   0.162E-02    0.537E-02
RMM:   3    -0.696892894262E+03    0.68006E-05   -0.15404E-05  7260   0.822E-03    0.265E-02
RMM:   4    -0.696892919255E+03   -0.24993E-04   -0.53754E-06  5863   0.445E-03    0.623E-02
RMM:   5    -0.696892913456E+03    0.57996E-05   -0.29448E-06  5464   0.401E-03    0.225E-02
RMM:   6    -0.696892928192E+03   -0.14736E-04   -0.67568E-07  2763   0.295E-03    0.165E-02
RMM:   7    -0.696892942091E+03   -0.13900E-04   -0.44295E-07  2400   0.281E-03    0.100E-02
RMM:   8    -0.696892956971E+03   -0.14880E-04   -0.65837E-07  2368   0.294E-03
  32 F= -.69689296E+03 E0= -.69633040E+03  d E =-.102036E-02  mag=     3.8126
       N       E                     dE             d eps       ncg     rms          rms(c)
DAV:   1    -0.696893844256E+03   -0.90216E-03   -0.29869E-02 15328   0.223E-01    0.474E-02
RMM:   2    -0.696893965083E+03   -0.12083E-03   -0.54998E-04 10880   0.387E-02    0.112E-01
RMM:   3    -0.696893924654E+03    0.40428E-04   -0.96201E-05  8224   0.174E-02    0.539E-02
RMM:   4    -0.696893986552E+03   -0.61898E-04   -0.33116E-05  7700   0.113E-02    0.108E-01
RMM:   5    -0.696893951477E+03    0.35075E-04   -0.16615E-05  7152   0.819E-03    0.603E-02
RMM:   6    -0.696893955941E+03   -0.44640E-05   -0.82823E-06  6731   0.590E-03    0.377E-02
RMM:   7    -0.696893967588E+03   -0.11646E-04   -0.51194E-06  6080   0.440E-03    0.283E-02
RMM:   8    -0.696893977965E+03   -0.10378E-04   -0.28968E-06  4986   0.380E-03
  33 F= -.69689398E+03 E0= -.69633153E+03  d E =-.204136E-02  mag=     3.8120
       N       E                     dE             d eps       ncg     rms          rms(c)
DAV:   1    -0.696894599453E+03   -0.63187E-03   -0.22355E-03 15216   0.558E-02    0.218E-02
RMM:   2    -0.696894677119E+03   -0.77665E-04   -0.48200E-05  7970   0.125E-02    0.981E-02
RMM:   3    -0.696894645175E+03    0.31943E-04   -0.15894E-05  7586   0.834E-03    0.704E-02
RMM:   4    -0.696894625941E+03    0.19234E-04   -0.40746E-06  6222   0.474E-03    0.304E-02
RMM:   5    -0.696894625392E+03    0.54933E-06   -0.76327E-07  3090   0.297E-03    0.164E-02
RMM:   6    -0.696894631716E+03   -0.63243E-05   -0.14618E-07  1933   0.269E-03    0.872E-03
RMM:   7    -0.696894641666E+03   -0.99494E-05   -0.23699E-07  1914   0.280E-03    0.123E-02
RMM:   8    -0.696894648491E+03   -0.68253E-05   -0.20366E-07  1779   0.280E-03
  34 F= -.69689465E+03 E0= -.69633222E+03  d E =-.670526E-03  mag=     3.8116
       N       E                     dE             d eps       ncg     rms          rms(c)
DAV:   1    -0.696896053567E+03   -0.14119E-02   -0.20121E-02 15376   0.166E-01    0.429E-02
RMM:   2    -0.696896140823E+03   -0.87256E-04   -0.35605E-04 10218   0.344E-02    0.992E-02
RMM:   3    -0.696896111019E+03    0.29804E-04   -0.70584E-05  8152   0.157E-02    0.692E-02
RMM:   4    -0.696896136191E+03   -0.25172E-04   -0.27207E-05  7748   0.103E-02    0.960E-02
RMM:   5    -0.696896092167E+03    0.44025E-04   -0.12604E-05  7015   0.726E-03    0.477E-02
RMM:   6    -0.696896084067E+03    0.80999E-05   -0.88256E-06  6952   0.571E-03    0.349E-02
RMM:   7    -0.696896080435E+03    0.36314E-05   -0.50600E-06  6332   0.460E-03    0.204E-02
RMM:   8    -0.696896081794E+03   -0.13587E-05   -0.16725E-06  4081   0.339E-03
  35 F= -.69689608E+03 E0= -.69633373E+03  d E =-.210383E-02  mag=     3.8115
       N       E                     dE             d eps       ncg     rms          rms(c)
DAV:   1    -0.696897288492E+03   -0.12081E-02   -0.80161E-02 15312   0.332E-01    0.887E-02
RMM:   2    -0.696897597587E+03   -0.30910E-03   -0.13967E-03 13973   0.685E-02    0.190E-01
RMM:   3    -0.696897511478E+03    0.86109E-04   -0.31677E-04 10165   0.286E-02    0.142E-01
RMM:   4    -0.696897659997E+03   -0.14852E-03   -0.10561E-04  8483   0.199E-02    0.217E-01
RMM:   5    -0.696897406780E+03    0.25322E-03   -0.51806E-05  8226   0.148E-02    0.105E-01
RMM:   6    -0.696897365747E+03    0.41033E-04   -0.37960E-05  8017   0.112E-02    0.779E-02
RMM:   7    -0.696897331835E+03    0.33912E-04   -0.24138E-05  7575   0.942E-03    0.457E-02
RMM:   8    -0.696897326899E+03    0.49365E-05   -0.10295E-05  6786   0.638E-03
  36 F= -.69689733E+03 E0= -.69633512E+03  d E =-.334893E-02  mag=     3.8119
       N       E                     dE             d eps       ncg     rms          rms(c)
DAV:   1    -0.696898891432E+03   -0.15596E-02   -0.15317E-02 15600   0.163E-01    0.450E-02
RMM:   2    -0.696898994640E+03   -0.10321E-03   -0.32649E-04  9458   0.305E-02    0.973E-02
RMM:   3    -0.696898986074E+03    0.85657E-05   -0.62023E-05  8015   0.166E-02    0.882E-02
RMM:   4    -0.696898982782E+03    0.32927E-05   -0.20804E-05  7717   0.880E-03    0.758E-02
RMM:   5    -0.696898961700E+03    0.21082E-04   -0.94073E-06  6849   0.643E-03    0.301E-02
RMM:   6    -0.696898977898E+03   -0.16198E-04   -0.47043E-06  6193   0.467E-03    0.275E-02
RMM:   7    -0.696898984284E+03   -0.63861E-05   -0.23898E-06  5036   0.380E-03    0.179E-02
RMM:   8    -0.696898990455E+03   -0.61713E-05   -0.11226E-06  3698   0.323E-03
  37 F= -.69689899E+03 E0= -.69633678E+03  d E =-.166356E-02  mag=     3.8122
       N       E                     dE             d eps       ncg     rms          rms(c)
DAV:   1    -0.696899778327E+03   -0.79404E-03   -0.13791E-01 15312   0.488E-01    0.122E-01
RMM:   2    -0.696900225655E+03   -0.44733E-03   -0.27112E-03 14638   0.892E-02    0.220E-01
RMM:   3    -0.696900598420E+03   -0.37277E-03   -0.53740E-04 12425   0.397E-02    0.322E-01
RMM:   4    -0.696900018216E+03    0.58020E-03   -0.16378E-04  8994   0.237E-02    0.115E-01
RMM:   5    -0.696900084751E+03   -0.66534E-04   -0.78019E-05  8387   0.179E-02    0.119E-01
RMM:   6    -0.696900068732E+03    0.16019E-04   -0.48735E-05  8181   0.138E-02    0.867E-02
RMM:   7    -0.696900040286E+03    0.28446E-04   -0.30026E-05  7899   0.107E-02    0.493E-02
RMM:   8    -0.696900046538E+03   -0.62515E-05   -0.17833E-05  7123   0.770E-03
  38 F= -.69690005E+03 E0= -.69633791E+03  d E =-.271964E-02  mag=     3.8124
       N       E                     dE             d eps       ncg     rms          rms(c)
DAV:   1    -0.696900479487E+03   -0.43920E-03   -0.19948E-02 15424   0.186E-01    0.550E-02
RMM:   2    -0.696900958962E+03   -0.47948E-03   -0.44927E-04 10771   0.356E-02    0.273E-01
RMM:   3    -0.696900530386E+03    0.42858E-03   -0.10215E-04  8083   0.200E-02    0.115E-01
RMM:   4    -0.696900496446E+03    0.33939E-04   -0.32342E-05  7907   0.121E-02    0.467E-02
RMM:   5    -0.696900497817E+03   -0.13714E-05   -0.11305E-05  6869   0.699E-03    0.333E-02
RMM:   6    -0.696900505151E+03   -0.73335E-05   -0.10123E-05  7078   0.595E-03    0.487E-02
RMM:   7    -0.696900494551E+03    0.10600E-04   -0.37155E-06  6046   0.459E-03    0.203E-02
RMM:   8    -0.696900497700E+03   -0.31481E-05   -0.38548E-06  5551   0.387E-03
  39 F= -.69690050E+03 E0= -.69633825E+03  d E =-.317080E-02  mag=     3.8126
       N       E                     dE             d eps       ncg     rms          rms(c)
DAV:   1    -0.696901251340E+03   -0.75679E-03   -0.32025E-03 15264   0.706E-02    0.246E-02
RMM:   2    -0.696901269554E+03   -0.18214E-04   -0.58173E-05  7899   0.145E-02    0.496E-02
RMM:   3    -0.696901280421E+03   -0.10867E-04   -0.13742E-05  7579   0.817E-03    0.606E-02
RMM:   4    -0.696901259724E+03    0.20697E-04   -0.45852E-06  6312   0.453E-03    0.305E-02
RMM:   5    -0.696901261121E+03   -0.13979E-05   -0.20107E-06  4671   0.357E-03    0.170E-02
RMM:   6    -0.696901262803E+03   -0.16818E-05   -0.59296E-07  2812   0.305E-03    0.161E-02
RMM:   7    -0.696901262572E+03    0.23150E-06   -0.70478E-07  2847   0.304E-03    0.990E-03
RMM:   8    -0.696901263248E+03   -0.67597E-06   -0.50329E-07  1936   0.287E-03
  40 F= -.69690126E+03 E0= -.69633905E+03  d E =-.765548E-03  mag=     3.8128
       N       E                     dE             d eps       ncg     rms          rms(c)
DAV:   1    -0.696903229783E+03   -0.19672E-02   -0.28981E-02 15360   0.212E-01    0.623E-02
RMM:   2    -0.696903346923E+03   -0.11714E-03   -0.48171E-04 11701   0.417E-02    0.127E-01
RMM:   3    -0.696903355890E+03   -0.89672E-05   -0.10597E-04  8270   0.198E-02    0.133E-01
RMM:   4    -0.696903284654E+03    0.71236E-04   -0.39371E-05  7958   0.130E-02    0.799E-02
RMM:   5    -0.696903284126E+03    0.52845E-06   -0.18560E-05  7198   0.853E-03    0.560E-02
RMM:   6    -0.696903296473E+03   -0.12347E-04   -0.18189E-05  7697   0.818E-03    0.647E-02
RMM:   7    -0.696903274802E+03    0.21671E-04   -0.86438E-06  6897   0.629E-03    0.334E-02
RMM:   8    -0.696903272512E+03    0.22909E-05   -0.40368E-06  5255   0.407E-03
  41 F= -.69690327E+03 E0= -.69634111E+03  d E =-.277481E-02  mag=     3.8129
       N       E                     dE             d eps       ncg     rms          rms(c)
DAV:   1    -0.696907199142E+03   -0.39243E-02   -0.11584E-01 15456   0.424E-01    0.123E-01
RMM:   2    -0.696907728041E+03   -0.52890E-03   -0.19076E-03 14589   0.834E-02    0.274E-01
RMM:   3    -0.696907653610E+03    0.74430E-04   -0.46110E-04 12076   0.368E-02    0.256E-01
RMM:   4    -0.696907396325E+03    0.25729E-03   -0.14343E-04  9038   0.224E-02    0.140E-01
RMM:   5    -0.696907419483E+03   -0.23159E-04   -0.79352E-05  8354   0.176E-02    0.128E-01
RMM:   6    -0.696907428250E+03   -0.87662E-05   -0.69733E-05  8248   0.159E-02    0.119E-01
RMM:   7    -0.696907356619E+03    0.71631E-04   -0.38589E-05  7997   0.125E-02    0.603E-02
RMM:   8    -0.696907352960E+03    0.36589E-05   -0.18437E-05  6999   0.784E-03
  42 F= -.69690735E+03 E0= -.69634525E+03  d E =-.685526E-02  mag=     3.8131
       N       E                     dE             d eps       ncg     rms          rms(c)
DAV:   1    -0.696911993227E+03   -0.46366E-02   -0.46472E-01 15360   0.850E-01    0.249E-01
RMM:   2    -0.696914297701E+03   -0.23045E-02   -0.76035E-03 14848   0.166E-01    0.565E-01
RMM:   3    -0.696913617490E+03    0.68021E-03   -0.19250E-03 15701   0.727E-02    0.480E-01
RMM:   4    -0.696912834618E+03    0.78287E-03   -0.54870E-04 13088   0.396E-02    0.269E-01
RMM:   5    -0.696912959818E+03   -0.12520E-03   -0.32052E-04 10937   0.316E-02    0.275E-01
RMM:   6    -0.696912838277E+03    0.12154E-03   -0.28865E-04 10654   0.321E-02    0.210E-01
RMM:   7    -0.696912644347E+03    0.19393E-03   -0.16115E-04  9139   0.235E-02    0.124E-01
RMM:   8    -0.696912613733E+03    0.30614E-04   -0.71659E-05  8501   0.161E-02
  43 F= -.69691261E+03 E0= -.69635064E+03  d E =-.121160E-01  mag=     3.8133
       N       E                     dE             d eps       ncg     rms          rms(c)
DAV:   1    -0.696914061464E+03   -0.14171E-02   -0.35474E-03 15536   0.785E-02    0.413E-02
RMM:   2    -0.696914292510E+03   -0.23105E-03   -0.12044E-04  8528   0.192E-02    0.187E-01
RMM:   3    -0.696914126487E+03    0.16602E-03   -0.46392E-05  7977   0.151E-02    0.104E-01
RMM:   4    -0.696914084203E+03    0.42284E-04   -0.16014E-05  7620   0.782E-03    0.539E-02
RMM:   5    -0.696914084306E+03   -0.10332E-06   -0.66460E-06  6670   0.554E-03    0.299E-02
RMM:   6    -0.696914084093E+03    0.21353E-06   -0.21219E-06  4768   0.368E-03    0.179E-02
RMM:   7    -0.696914086534E+03   -0.24409E-05   -0.64011E-07  3230   0.305E-03    0.129E-02
RMM:   8    -0.696914088139E+03   -0.16054E-05   -0.16588E-07  2344   0.276E-03
  44 F= -.69691409E+03 E0= -.69635201E+03  d E =-.147441E-02  mag=     3.8132
       N       E                     dE             d eps       ncg     rms          rms(c)
DAV:   1    -0.696918689929E+03   -0.46034E-02   -0.31219E-02 15440   0.214E-01    0.679E-02
RMM:   2    -0.696918873938E+03   -0.18401E-03   -0.47483E-04 11666   0.414E-02    0.169E-01
RMM:   3    -0.696918746286E+03    0.12765E-03   -0.10036E-04  8320   0.193E-02    0.938E-02
RMM:   4    -0.696918797511E+03   -0.51225E-04   -0.43360E-05  8024   0.129E-02    0.122E-01
RMM:   5    -0.696918740565E+03    0.56946E-04   -0.26157E-05  7660   0.101E-02    0.677E-02
RMM:   6    -0.696918751374E+03   -0.10808E-04   -0.22776E-05  7715   0.913E-03    0.694E-02
RMM:   7    -0.696918731512E+03    0.19862E-04   -0.99594E-06  6871   0.677E-03    0.314E-02
RMM:   8    -0.696918732746E+03   -0.12340E-05   -0.38326E-06  5314   0.404E-03
  45 F= -.69691873E+03 E0= -.69635673E+03  d E =-.611901E-02  mag=     3.8132
       N       E                     dE             d eps       ncg     rms          rms(c)
DAV:   1    -0.696924349376E+03   -0.56179E-02   -0.12375E-01 15360   0.427E-01    0.133E-01
RMM:   2    -0.696924787506E+03   -0.43813E-03   -0.18263E-03 14536   0.820E-02    0.255E-01
RMM:   3    -0.696924654663E+03    0.13284E-03   -0.43520E-04 11615   0.351E-02    0.198E-01
RMM:   4    -0.696924852205E+03   -0.19754E-03   -0.15267E-04  9038   0.226E-02    0.258E-01
RMM:   5    -0.696924619482E+03    0.23272E-03   -0.10586E-04  8476   0.200E-02    0.165E-01
RMM:   6    -0.696924592118E+03    0.27364E-04   -0.82153E-05  8320   0.178E-02    0.126E-01
RMM:   7    -0.696924513124E+03    0.78994E-04   -0.44108E-05  8087   0.130E-02    0.631E-02
RMM:   8    -0.696924511135E+03    0.19886E-05   -0.17547E-05  6966   0.811E-03
  46 F= -.69692451E+03 E0= -.69636262E+03  d E =-.118974E-01  mag=     3.8132
       N       E                     dE             d eps       ncg     rms          rms(c)
DAV:   1    -0.696926763819E+03   -0.22507E-02   -0.41555E-03 15024   0.925E-02    0.275E-02
RMM:   2    -0.696927009391E+03   -0.24557E-03   -0.12066E-04  8037   0.189E-02    0.201E-01
RMM:   3    -0.696926756860E+03    0.25253E-03   -0.28462E-05  7902   0.121E-02    0.472E-02
RMM:   4    -0.696926777470E+03   -0.20611E-04   -0.66895E-06  6720   0.536E-03    0.480E-02
RMM:   5    -0.696926776480E+03    0.99069E-06   -0.31477E-06  5586   0.400E-03    0.346E-02
RMM:   6    -0.696926771876E+03    0.46035E-05   -0.14885E-06  4072   0.339E-03    0.165E-02
RMM:   7    -0.696926777389E+03   -0.55126E-05   -0.10907E-06  3516   0.322E-03    0.151E-02
RMM:   8    -0.696926776809E+03    0.57926E-06   -0.76869E-07  2789   0.306E-03
  47 F= -.69692678E+03 E0= -.69636487E+03  d E =-.226567E-02  mag=     3.8132
       N       E                     dE             d eps       ncg     rms          rms(c)
DAV:   1    -0.696931892049E+03   -0.51147E-02   -0.37085E-02 15312   0.274E-01    0.606E-02
RMM:   2    -0.696932084899E+03   -0.19285E-03   -0.75989E-04 12687   0.487E-02    0.170E-01
RMM:   3    -0.696931956493E+03    0.12841E-03   -0.14699E-04  8501   0.210E-02    0.662E-02
RMM:   4    -0.696932057974E+03   -0.10148E-03   -0.46055E-05  8020   0.134E-02    0.144E-01
RMM:   5    -0.696931988108E+03    0.69866E-04   -0.18815E-05  7504   0.888E-03    0.861E-02
RMM:   6    -0.696931955530E+03    0.32577E-04   -0.14221E-05  7254   0.725E-03    0.510E-02
RMM:   7    -0.696931955154E+03    0.37644E-06   -0.67850E-06  6812   0.581E-03    0.246E-02
RMM:   8    -0.696931958890E+03   -0.37358E-05   -0.30720E-06  4939   0.382E-03
  48 F= -.69693196E+03 E0= -.69637009E+03  d E =-.744775E-02  mag=     3.8132
       N       E                     dE             d eps       ncg     rms          rms(c)
DAV:   1    -0.696934722077E+03   -0.27669E-02   -0.14835E-01 15264   0.549E-01    0.121E-01
RMM:   2    -0.696934991733E+03   -0.26966E-03   -0.30002E-03 14759   0.973E-02    0.165E-01
RMM:   3    -0.696934991905E+03   -0.17222E-06   -0.56786E-04 12364   0.400E-02    0.105E-01
RMM:   4    -0.696935344983E+03   -0.35308E-03   -0.15651E-04  8913   0.227E-02    0.240E-01
RMM:   5    -0.696935621237E+03   -0.27625E-03   -0.12885E-04  8519   0.199E-02    0.336E-01
RMM:   6    -0.696934968998E+03    0.65224E-03   -0.65732E-05  8263   0.181E-02    0.849E-02
RMM:   7    -0.696934976578E+03   -0.75798E-05   -0.37824E-05  8139   0.114E-02    0.514E-02
RMM:   8    -0.696934979843E+03   -0.32643E-05   -0.15355E-05  7112   0.795E-03
  49 F= -.69693498E+03 E0= -.69637318E+03  d E =-.104687E-01  mag=     3.8133
       N       E                     dE             d eps       ncg     rms          rms(c)
DAV:   1    -0.696935136508E+03   -0.15993E-03   -0.55106E-03 15280   0.107E-01    0.279E-02
RMM:   2    -0.696935226396E+03   -0.89888E-04   -0.14000E-04  8045   0.209E-02    0.118E-01
RMM:   3    -0.696935163819E+03    0.62577E-04   -0.26976E-05  7886   0.115E-02    0.541E-02
RMM:   4    -0.696935171328E+03   -0.75092E-05   -0.79724E-06  6831   0.538E-03    0.600E-02
RMM:   5    -0.696935164110E+03    0.72182E-05   -0.33804E-06  5830   0.443E-03    0.368E-02
RMM:   6    -0.696935162349E+03    0.17606E-05   -0.22165E-06  4630   0.354E-03    0.237E-02
RMM:   7    -0.696935167358E+03   -0.50088E-05   -0.63679E-07  3019   0.310E-03    0.195E-02
RMM:   8    -0.696935171263E+03   -0.39053E-05   -0.12502E-06  3286   0.317E-03
  50 F= -.69693517E+03 E0= -.69637339E+03  d E =-.106601E-01  mag=     3.8135
       N       E                     dE             d eps       ncg     rms          rms(c)
DAV:   1    -0.696936870807E+03   -0.17034E-02   -0.85965E-03 15488   0.125E-01    0.340E-02
RMM:   2    -0.696936923075E+03   -0.52268E-04   -0.18952E-04  8350   0.266E-02    0.900E-02
RMM:   3    -0.696936894861E+03    0.28214E-04   -0.35132E-05  7854   0.130E-02    0.471E-02
RMM:   4    -0.696936914977E+03   -0.20115E-04   -0.11351E-05  6948   0.640E-03    0.707E-02
RMM:   5    -0.696936892871E+03    0.22106E-04   -0.80160E-06  7079   0.586E-03    0.316E-02
RMM:   6    -0.696936898267E+03   -0.53964E-05   -0.46516E-06  6167   0.451E-03    0.311E-02
RMM:   7    -0.696936898502E+03   -0.23439E-06   -0.17369E-06  4440   0.348E-03    0.199E-02
RMM:   8    -0.696936899907E+03   -0.14050E-05   -0.40858E-07  2507   0.295E-03
  51 F= -.69693690E+03 E0= -.69637509E+03  d E =-.172864E-02  mag=     3.8136
       N       E                     dE             d eps       ncg     rms          rms(c)
DAV:   1    -0.696939692926E+03   -0.27944E-02   -0.77602E-02 15328   0.375E-01    0.995E-02
RMM:   2    -0.696940339796E+03   -0.64687E-03   -0.16064E-03 14703   0.783E-02    0.318E-01
RMM:   3    -0.696939839689E+03    0.50011E-03   -0.38055E-04 11405   0.326E-02    0.120E-01
RMM:   4    -0.696939914733E+03   -0.75044E-04   -0.85853E-05  8410   0.192E-02    0.135E-01
RMM:   5    -0.696939870903E+03    0.43830E-04   -0.60628E-05  8297   0.146E-02    0.115E-01
RMM:   6    -0.696939825451E+03    0.45451E-04   -0.43796E-05  8132   0.131E-02    0.728E-02
RMM:   7    -0.696939812605E+03    0.12846E-04   -0.23983E-05  7719   0.948E-03    0.448E-02
RMM:   8    -0.696939812116E+03    0.48969E-06   -0.87540E-06  6915   0.612E-03
  52 F= -.69693981E+03 E0= -.69637792E+03  d E =-.464085E-02  mag=     3.8133
       N       E                     dE             d eps       ncg     rms          rms(c)
DAV:   1    -0.696940032789E+03   -0.22018E-03   -0.11969E-02 15584   0.148E-01    0.468E-02
RMM:   2    -0.696940455114E+03   -0.42233E-03   -0.28270E-04  9293   0.318E-02    0.257E-01
RMM:   3    -0.696940037972E+03    0.41714E-03   -0.68385E-05  8111   0.175E-02    0.538E-02
RMM:   4    -0.696940073417E+03   -0.35445E-04   -0.22055E-05  7509   0.957E-03    0.521E-02
RMM:   5    -0.696940068605E+03    0.48124E-05   -0.98513E-06  6862   0.655E-03    0.336E-02
RMM:   6    -0.696940067279E+03    0.13261E-05   -0.63099E-06  6326   0.501E-03    0.295E-02
RMM:   7    -0.696940067345E+03   -0.66058E-07   -0.21926E-06  5028   0.385E-03    0.206E-02
RMM:   8    -0.696940069284E+03   -0.19390E-05   -0.95606E-07  3462   0.318E-03
  53 F= -.69694007E+03 E0= -.69637815E+03  d E =-.489802E-02  mag=     3.8132
       N       E                     dE             d eps       ncg     rms          rms(c)
DAV:   1    -0.696942033866E+03   -0.19665E-02   -0.18918E-02 15280   0.173E-01    0.407E-02
RMM:   2    -0.696942088833E+03   -0.54967E-04   -0.33371E-04 10286   0.348E-02    0.807E-02
RMM:   3    -0.696942071960E+03    0.16873E-04   -0.66582E-05  8021   0.166E-02    0.512E-02
RMM:   4    -0.696942114888E+03   -0.42928E-04   -0.22902E-05  7545   0.948E-03    0.974E-02
RMM:   5    -0.696942068291E+03    0.46596E-04   -0.12516E-05  7207   0.709E-03    0.484E-02
RMM:   6    -0.696942064628E+03    0.36631E-05   -0.98120E-06  7165   0.614E-03    0.349E-02
RMM:   7    -0.696942061972E+03    0.26560E-05   -0.51998E-06  6353   0.466E-03    0.200E-02
RMM:   8    -0.696942061916E+03    0.56330E-07   -0.18632E-06  4034   0.342E-03
  54 F= -.69694206E+03 E0= -.69638009E+03  d E =-.199263E-02  mag=     3.8131
       N       E                     dE             d eps       ncg     rms          rms(c)
DAV:   1    -0.696944144260E+03   -0.20823E-02   -0.13221E-01 15344   0.457E-01    0.106E-01
RMM:   2    -0.696944558012E+03   -0.41375E-03   -0.23081E-03 14690   0.919E-02    0.234E-01
RMM:   3    -0.696944510333E+03    0.47679E-04   -0.57660E-04 12702   0.390E-02    0.188E-01
RMM:   4    -0.696944386126E+03    0.12421E-03   -0.10678E-04  8673   0.202E-02    0.129E-01
RMM:   5    -0.696944383769E+03    0.23570E-05   -0.80586E-05  8412   0.167E-02    0.139E-01
RMM:   6    -0.696944332346E+03    0.51423E-04   -0.69382E-05  8272   0.155E-02    0.949E-02
RMM:   7    -0.696944298854E+03    0.33493E-04   -0.49630E-05  8058   0.126E-02    0.686E-02
RMM:   8    -0.696944282825E+03    0.16028E-04   -0.23406E-05  7233   0.926E-03
  55 F= -.69694428E+03 E0= -.69638214E+03  d E =-.421354E-02  mag=     3.8129
       N       E                     dE             d eps       ncg     rms          rms(c)
DAV:   1    -0.696946649089E+03   -0.23502E-02   -0.26315E-02 15488   0.201E-01    0.526E-02
RMM:   2    -0.696946786729E+03   -0.13764E-03   -0.48374E-04 11666   0.412E-02    0.125E-01
RMM:   3    -0.696946800244E+03   -0.13516E-04   -0.11009E-04  8387   0.203E-02    0.137E-01
RMM:   4    -0.696946695809E+03    0.10444E-03   -0.30852E-05  7993   0.123E-02    0.433E-02
RMM:   5    -0.696946704686E+03   -0.88774E-05   -0.13652E-05  7082   0.675E-03    0.542E-02
RMM:   6    -0.696946702849E+03    0.18375E-05   -0.59091E-06  6592   0.526E-03    0.393E-02
RMM:   7    -0.696946702673E+03    0.17622E-06   -0.75506E-06  6789   0.467E-03    0.372E-02
RMM:   8    -0.696946699941E+03    0.27315E-05   -0.40690E-06  5821   0.444E-03
  56 F= -.69694670E+03 E0= -.69638455E+03  d E =-.241712E-02  mag=     3.8128
       N       E                     dE             d eps       ncg     rms          rms(c)
DAV:   1    -0.696951522774E+03   -0.48201E-02   -0.23682E-01 15328   0.600E-01    0.134E-01
RMM:   2    -0.696953150690E+03   -0.16279E-02   -0.40556E-03 14803   0.120E-01    0.476E-01
RMM:   3    -0.696951981818E+03    0.11689E-02   -0.97149E-04 14035   0.508E-02    0.185E-01
RMM:   4    -0.696952260175E+03   -0.27836E-03   -0.23695E-04  9654   0.280E-02    0.267E-01
RMM:   5    -0.696951918719E+03    0.34146E-03   -0.13216E-04  8808   0.233E-02    0.161E-01
RMM:   6    -0.696951875974E+03    0.42746E-04   -0.90219E-05  8514   0.170E-02    0.122E-01
RMM:   7    -0.696951818733E+03    0.57241E-04   -0.63441E-05  8335   0.144E-02    0.754E-02
RMM:   8    -0.696951806581E+03    0.12151E-04   -0.32143E-05  7701   0.106E-02
  57 F= -.69695181E+03 E0= -.69638949E+03  d E =-.752376E-02  mag=     3.8129
       N       E                     dE             d eps       ncg     rms          rms(c)
DAV:   1    -0.696944997272E+03    0.68215E-02   -0.94803E-01 15296   0.120E+00    0.271E-01
RMM:   2    -0.696951626554E+03   -0.66293E-02   -0.16421E-02 14848   0.242E-01    0.958E-01
RMM:   3    -0.696946804033E+03    0.48225E-02   -0.40530E-03 16539   0.102E-01    0.344E-01
RMM:   4    -0.696948279370E+03   -0.14753E-02   -0.93158E-04 13804   0.528E-02    0.581E-01
RMM:   5    -0.696946744358E+03    0.15350E-02   -0.54146E-04 12770   0.421E-02    0.351E-01
RMM:   6    -0.696946485292E+03    0.25907E-03   -0.41368E-04 11899   0.343E-02    0.244E-01
RMM:   7    -0.696946269797E+03    0.21549E-03   -0.30326E-04 10606   0.285E-02    0.149E-01
RMM:   8    -0.696946213187E+03    0.56610E-04   -0.11496E-04  8741   0.200E-02
  58 F= -.69694621E+03 E0= -.69638352E+03  d E =-.193036E-02  mag=     3.8130
       N       E                     dE             d eps       ncg     rms          rms(c)
DAV:   1    -0.696952452213E+03   -0.61824E-02   -0.45776E-01 15360   0.836E-01    0.198E-01
RMM:   2    -0.696956108164E+03   -0.36560E-02   -0.77830E-03 14848   0.168E-01    0.708E-01
RMM:   3    -0.696953282742E+03    0.28254E-02   -0.18765E-03 15501   0.698E-02    0.256E-01
RMM:   4    -0.696954121850E+03   -0.83911E-03   -0.46300E-04 12556   0.384E-02    0.425E-01
RMM:   5    -0.696953193759E+03    0.92809E-03   -0.31352E-04 10672   0.324E-02    0.215E-01
RMM:   6    -0.696953179402E+03    0.14357E-04   -0.22143E-04  9534   0.266E-02    0.173E-01
RMM:   7    -0.696953068754E+03    0.11065E-03   -0.12808E-04  8703   0.205E-02    0.821E-02
RMM:   8    -0.696953085439E+03   -0.16685E-04   -0.69713E-05  8309   0.148E-02
  59 F= -.69695309E+03 E0= -.69639074E+03  d E =-.880261E-02  mag=     3.8124
       N       E                     dE             d eps       ncg     rms          rms(c)
DAV:   1    -0.696953783325E+03   -0.71457E-03   -0.18950E-03 15264   0.539E-02    0.347E-02
RMM:   2    -0.696953880210E+03   -0.96885E-04   -0.73613E-05  7970   0.167E-02    0.119E-01
RMM:   3    -0.696953826381E+03    0.53829E-04   -0.28883E-05  7881   0.124E-02    0.781E-02
RMM:   4    -0.696953805541E+03    0.20841E-04   -0.71279E-06  6668   0.526E-03    0.406E-02
RMM:   5    -0.696953799984E+03    0.55569E-05   -0.26217E-06  5361   0.385E-03    0.136E-02
RMM:   6    -0.696953801821E+03   -0.18369E-05   -0.10632E-06  3280   0.311E-03    0.113E-02
RMM:   7    -0.696953803558E+03   -0.17373E-05   -0.14348E-06  3120   0.315E-03    0.833E-03
RMM:   8    -0.696953804448E+03   -0.89008E-06   -0.87139E-07  2447   0.296E-03
  60 F= -.69695380E+03 E0= -.69639139E+03  d E =-.719009E-03  mag=     3.8122
       N       E                     dE             d eps       ncg     rms          rms(c)
DAV:   1    -0.696955604984E+03   -0.18014E-02   -0.16128E-02 15424   0.148E-01    0.377E-02
RMM:   2    -0.696955793057E+03   -0.18807E-03   -0.26852E-04  9447   0.304E-02    0.163E-01
RMM:   3    -0.696955620134E+03    0.17292E-03   -0.53695E-05  7991   0.149E-02    0.426E-02
RMM:   4    -0.696955639139E+03   -0.19005E-04   -0.18788E-05  7302   0.864E-03    0.533E-02
RMM:   5    -0.696955628477E+03    0.10662E-04   -0.10595E-05  6981   0.653E-03    0.375E-02
RMM:   6    -0.696955626167E+03    0.23098E-05   -0.70033E-06  6878   0.532E-03    0.277E-02
RMM:   7    -0.696955622815E+03    0.33519E-05   -0.37570E-06  5538   0.396E-03    0.213E-02
RMM:   8    -0.696955621323E+03    0.14924E-05   -0.10613E-06  3247   0.318E-03
  61 F= -.69695562E+03 E0= -.69639315E+03  d E =-.253588E-02  mag=     3.8119
       N       E                     dE             d eps       ncg     rms          rms(c)
DAV:   1    -0.696957733525E+03   -0.21107E-02   -0.64405E-02 15360   0.297E-01    0.735E-02
RMM:   2    -0.696958144272E+03   -0.41075E-03   -0.10447E-03 13804   0.607E-02    0.232E-01
RMM:   3    -0.696957835162E+03    0.30911E-03   -0.24198E-04  9432   0.255E-02    0.898E-02
RMM:   4    -0.696957942494E+03   -0.10733E-03   -0.71432E-05  8299   0.178E-02    0.150E-01
RMM:   5    -0.696957825530E+03    0.11696E-03   -0.41464E-05  8056   0.123E-02    0.829E-02
RMM:   6    -0.696957809408E+03    0.16122E-04   -0.32995E-05  7748   0.106E-02    0.509E-02
RMM:   7    -0.696957800730E+03    0.86781E-05   -0.19978E-05  7140   0.818E-03    0.340E-02
RMM:   8    -0.696957798173E+03    0.25569E-05   -0.74216E-06  6468   0.566E-03
  62 F= -.69695780E+03 E0= -.69639522E+03  d E =-.471273E-02  mag=     3.8117
       N       E                     dE             d eps       ncg     rms          rms(c)
DAV:   1    -0.696960752978E+03   -0.29522E-02   -0.25723E-01 15200   0.595E-01    0.154E-01
RMM:   2    -0.696962580629E+03   -0.18277E-02   -0.42262E-03 14805   0.122E-01    0.502E-01
RMM:   3    -0.696961201962E+03    0.13787E-02   -0.10664E-03 14237   0.516E-02    0.191E-01
RMM:   4    -0.696961794997E+03   -0.59304E-03   -0.26475E-04 10054   0.287E-02    0.346E-01
RMM:   5    -0.696961175463E+03    0.61953E-03   -0.19435E-04  9278   0.264E-02    0.192E-01
RMM:   6    -0.696961083287E+03    0.92175E-04   -0.13699E-04  8708   0.210E-02    0.116E-01
RMM:   7    -0.696961044314E+03    0.38973E-04   -0.90050E-05  8430   0.171E-02    0.798E-02
RMM:   8    -0.696961029657E+03    0.14657E-04   -0.32640E-05  7897   0.117E-02
  63 F= -.69696103E+03 E0= -.69639823E+03  d E =-.794422E-02  mag=     3.8115
       N       E                     dE             d eps       ncg     rms          rms(c)
DAV:   1    -0.696965102915E+03   -0.40586E-02   -0.96833E-03 15504   0.146E-01    0.336E-02
RMM:   2    -0.696965286052E+03   -0.18314E-03   -0.22195E-04  8676   0.258E-02    0.153E-01
RMM:   3    -0.696965150481E+03    0.13557E-03   -0.44438E-05  7945   0.150E-02    0.773E-02
RMM:   4    -0.696965130251E+03    0.20230E-04   -0.11798E-05  7443   0.703E-03    0.265E-02
RMM:   5    -0.696965136910E+03   -0.66589E-05   -0.44411E-06  6198   0.465E-03    0.198E-02
RMM:   6    -0.696965142531E+03   -0.56214E-05   -0.24069E-06  4801   0.373E-03    0.264E-02
RMM:   7    -0.696965145352E+03   -0.28208E-05   -0.82456E-07  3400   0.318E-03    0.155E-02
RMM:   8    -0.696965151017E+03   -0.56653E-05   -0.61573E-07  2769   0.304E-03
  64 F= -.69696515E+03 E0= -.69640237E+03  d E =-.412136E-02  mag=     3.8111
       N       E                     dE             d eps       ncg     rms          rms(c)
DAV:   1    -0.696971218584E+03   -0.60732E-02   -0.87030E-02 15312   0.433E-01    0.723E-02
RMM:   2    -0.696971376154E+03   -0.15757E-03   -0.16271E-03 13796   0.710E-02    0.804E-02
RMM:   3    -0.696971426225E+03   -0.50071E-04   -0.26642E-04  9481   0.295E-02    0.742E-02
RMM:   4    -0.696971705796E+03   -0.27957E-03   -0.76391E-05  8307   0.179E-02    0.218E-01
RMM:   5    -0.696971406208E+03    0.29959E-03   -0.30318E-05  8061   0.115E-02    0.667E-02
RMM:   6    -0.696971422908E+03   -0.16700E-04   -0.15086E-05  7257   0.760E-03    0.490E-02
RMM:   7    -0.696971417924E+03    0.49849E-05   -0.87301E-06  6940   0.612E-03    0.246E-02
RMM:   8    -0.696971421457E+03   -0.35330E-05   -0.43650E-06  5933   0.430E-03
  65 F= -.69697142E+03 E0= -.69640860E+03  d E =-.103918E-01  mag=     3.8105
       N       E                     dE             d eps       ncg     rms          rms(c)
DAV:   1    -0.696971540834E+03   -0.12291E-03   -0.23659E-03 15024   0.717E-02    0.183E-02
RMM:   2    -0.696971569315E+03   -0.28481E-04   -0.51813E-05  7904   0.126E-02    0.568E-02
RMM:   3    -0.696971566664E+03    0.26502E-05   -0.10562E-05  7529   0.736E-03    0.533E-02
RMM:   4    -0.696971552164E+03    0.14501E-04   -0.23996E-06  5220   0.373E-03    0.180E-02
RMM:   5    -0.696971553990E+03   -0.18259E-05   -0.35039E-07  2496   0.281E-03    0.107E-02
RMM:   6    -0.696971556923E+03   -0.29333E-05   -0.83862E-08  1838   0.259E-03    0.102E-02
RMM:   7    -0.696971560618E+03   -0.36954E-05   -0.73065E-08  1769   0.270E-03    0.107E-02
RMM:   8    -0.696971562436E+03   -0.18178E-05   -0.10052E-08  1356   0.260E-03
  66 F= -.69697156E+03 E0= -.69640876E+03  d E =-.105328E-01  mag=     3.8102
       N       E                     dE             d eps       ncg     rms          rms(c)
DAV:   1    -0.696973537764E+03   -0.19771E-02   -0.69906E-03 15488   0.124E-01    0.216E-02
RMM:   2    -0.696973576048E+03   -0.38284E-04   -0.14255E-04  8127   0.237E-02    0.683E-02
RMM:   3    -0.696973552510E+03    0.23538E-04   -0.23002E-05  7844   0.110E-02    0.250E-02
RMM:   4    -0.696973569585E+03   -0.17075E-04   -0.75548E-06  7067   0.559E-03    0.518E-02
RMM:   5    -0.696973557806E+03    0.11779E-04   -0.33400E-06  5971   0.424E-03    0.259E-02
RMM:   6    -0.696973560306E+03   -0.25001E-05   -0.76093E-07  3076   0.307E-03    0.134E-02
RMM:   7    -0.696973563039E+03   -0.27325E-05   -0.65551E-07  2844   0.307E-03    0.128E-02
RMM:   8    -0.696973565178E+03   -0.21389E-05   -0.62979E-07  2437   0.300E-03
  67 F= -.69697357E+03 E0= -.69641078E+03  d E =-.200274E-02  mag=     3.8099
       N       E                     dE             d eps       ncg     rms          rms(c)
DAV:   1    -0.696976627671E+03   -0.30646E-02   -0.62726E-02 15328   0.371E-01    0.666E-02
RMM:   2    -0.696976961372E+03   -0.33370E-03   -0.12481E-03 14655   0.710E-02    0.209E-01
RMM:   3    -0.696976742177E+03    0.21920E-03   -0.26728E-04  9569   0.284E-02    0.808E-02
RMM:   4    -0.696976893731E+03   -0.15155E-03   -0.68634E-05  8317   0.180E-02    0.161E-01
RMM:   5    -0.696976755840E+03    0.13789E-03   -0.33087E-05  8122   0.114E-02    0.915E-02
RMM:   6    -0.696976739721E+03    0.16119E-04   -0.18168E-05  7615   0.861E-03    0.560E-02
RMM:   7    -0.696976738971E+03    0.75082E-06   -0.11080E-05  7250   0.651E-03    0.344E-02
RMM:   8    -0.696976738413E+03    0.55749E-06   -0.75516E-06  6636   0.518E-03
  68 F= -.69697674E+03 E0= -.69641404E+03  d E =-.517598E-02  mag=     3.8098
       N       E                     dE             d eps       ncg     rms          rms(c)
DAV:   1    -0.696976895394E+03   -0.15642E-03   -0.53368E-03 15392   0.109E-01    0.282E-02
RMM:   2    -0.696976927109E+03   -0.31714E-04   -0.11886E-04  8122   0.215E-02    0.590E-02
RMM:   3    -0.696976923508E+03    0.36011E-05   -0.23223E-05  7870   0.107E-02    0.566E-02
RMM:   4    -0.696976934324E+03   -0.10816E-04   -0.96708E-06  7337   0.599E-03    0.691E-02
RMM:   5    -0.696976906332E+03    0.27992E-04   -0.40064E-06  6227   0.478E-03    0.210E-02
RMM:   6    -0.696976906463E+03   -0.13117E-06   -0.82191E-07  3364   0.303E-03    0.155E-02
RMM:   7    -0.696976906736E+03   -0.27322E-06   -0.32761E-07  2713   0.273E-03    0.793E-03
RMM:   8    -0.696976908156E+03   -0.14205E-05   -0.11003E-07  1824   0.274E-03
  69 F= -.69697691E+03 E0= -.69641424E+03  d E =-.534572E-02  mag=     3.8098
       N       E                     dE             d eps       ncg     rms          rms(c)
DAV:   1    -0.696978926551E+03   -0.20198E-02   -0.12208E-02 15504   0.146E-01    0.307E-02
RMM:   2    -0.696978988148E+03   -0.61597E-04   -0.24325E-04  9036   0.301E-02    0.913E-02
RMM:   3    -0.696978939126E+03    0.49022E-04   -0.44610E-05  7954   0.139E-02    0.329E-02
RMM:   4    -0.696978952916E+03   -0.13789E-04   -0.14974E-05  7646   0.789E-03    0.609E-02
RMM:   5    -0.696978926966E+03    0.25950E-04   -0.66031E-06  6626   0.539E-03    0.327E-02
RMM:   6    -0.696978912286E+03    0.14680E-04   -0.39128E-06  5597   0.409E-03    0.215E-02
RMM:   7    -0.696978904774E+03    0.75117E-05   -0.20379E-06  4771   0.352E-03    0.138E-02
RMM:   8    -0.696978901595E+03    0.31797E-05   -0.66226E-07  2811   0.302E-03
  70 F= -.69697890E+03 E0= -.69641628E+03  d E =-.199344E-02  mag=     3.8102
       N       E                     dE             d eps       ncg     rms          rms(c)
DAV:   1    -0.696982632832E+03   -0.37281E-02   -0.10913E-01 15360   0.435E-01    0.913E-02
RMM:   2    -0.696983016851E+03   -0.38402E-03   -0.21327E-03 14786   0.897E-02    0.221E-01
RMM:   3    -0.696982840368E+03    0.17648E-03   -0.48373E-04 11856   0.361E-02    0.115E-01
RMM:   4    -0.696983079693E+03   -0.23933E-03   -0.12362E-04  8659   0.217E-02    0.232E-01
RMM:   5    -0.696982761611E+03    0.31808E-03   -0.62596E-05  8374   0.166E-02    0.129E-01
RMM:   6    -0.696982669499E+03    0.92112E-04   -0.38232E-05  8125   0.116E-02    0.793E-02
RMM:   7    -0.696982612016E+03    0.57482E-04   -0.30166E-05  7936   0.101E-02    0.461E-02
RMM:   8    -0.696982588482E+03    0.23535E-04   -0.15866E-05  7190   0.760E-03
  71 F= -.69698259E+03 E0= -.69642016E+03  d E =-.568033E-02  mag=     3.8114
       N       E                     dE             d eps       ncg     rms          rms(c)
DAV:   1    -0.696977880045E+03    0.47320E-02   -0.43521E-01 15360   0.868E-01    0.182E-01
RMM:   2    -0.696980636965E+03   -0.27569E-02   -0.85723E-03 14848   0.180E-01    0.615E-01
RMM:   3    -0.696978621431E+03    0.20155E-02   -0.20097E-03 15841   0.731E-02    0.199E-01
RMM:   4    -0.696979418506E+03   -0.79708E-03   -0.46535E-04 12291   0.383E-02    0.410E-01
RMM:   5    -0.696978516251E+03    0.90226E-03   -0.22913E-04  9738   0.293E-02    0.242E-01
RMM:   6    -0.696978224623E+03    0.29163E-03   -0.15387E-04  9070   0.231E-02    0.149E-01
RMM:   7    -0.696978084765E+03    0.13986E-03   -0.11966E-04  8811   0.196E-02    0.103E-01
RMM:   8    -0.696978019853E+03    0.64912E-04   -0.56894E-05  8420   0.146E-02
  72 F= -.69697802E+03 E0= -.69641595E+03  d E =-.111170E-02  mag=     3.8140
       N       E                     dE             d eps       ncg     rms          rms(c)
DAV:   1    -0.696982247661E+03   -0.41629E-02   -0.24396E-01 15360   0.650E-01    0.131E-01
RMM:   2    -0.696983210942E+03   -0.96328E-03   -0.46479E-03 14842   0.136E-01    0.300E-01
RMM:   3    -0.696983048275E+03    0.16267E-03   -0.10760E-03 14280   0.539E-02    0.173E-01
RMM:   4    -0.696983790047E+03   -0.74177E-03   -0.26628E-04  9962   0.292E-02    0.377E-01
RMM:   5    -0.696983127256E+03    0.66279E-03   -0.13145E-04  8781   0.243E-02    0.185E-01
RMM:   6    -0.696983151475E+03   -0.24219E-04   -0.85460E-05  8509   0.168E-02    0.138E-01
RMM:   7    -0.696983155656E+03   -0.41807E-05   -0.77077E-05  8389   0.159E-02    0.564E-02
RMM:   8    -0.696983211145E+03   -0.55490E-04   -0.42402E-05  8260   0.119E-02
  73 F= -.69698321E+03 E0= -.69642087E+03  d E =-.630299E-02  mag=     3.8153
       N       E                     dE             d eps       ncg     rms          rms(c)
DAV:   1    -0.696985929660E+03   -0.27740E-02   -0.30681E-02 15408   0.215E-01    0.552E-02
RMM:   2    -0.696986100608E+03   -0.17095E-03   -0.56399E-04 12478   0.471E-02    0.134E-01
RMM:   3    -0.696986069969E+03    0.30640E-04   -0.12794E-04  8411   0.209E-02    0.991E-02
RMM:   4    -0.696986067906E+03    0.20622E-05   -0.38293E-05  7999   0.131E-02    0.993E-02
RMM:   5    -0.696986007564E+03    0.60342E-04   -0.15945E-05  7516   0.799E-03    0.276E-02
RMM:   6    -0.696986008194E+03   -0.62973E-06   -0.14559E-05  7391   0.674E-03    0.495E-02
RMM:   7    -0.696985991842E+03    0.16351E-04   -0.93376E-06  7111   0.610E-03    0.275E-02
RMM:   8    -0.696985992303E+03   -0.46023E-06   -0.40932E-06  5523   0.406E-03
  74 F= -.69698599E+03 E0= -.69642370E+03  d E =-.278116E-02  mag=     3.8166
       N       E                     dE             d eps       ncg     rms          rms(c)
[...]
RMM:   8    -0.697078300648E+03   -0.16067E-05   -0.40429E-08  1646   0.270E-03
 115 F= -.69707830E+03 E0= -.69651666E+03  d E =-.505372E-03  mag=     3.8166
       N       E                     dE             d eps       ncg     rms          rms(c)
DAV:   1    -0.697078976308E+03   -0.67727E-03   -0.31481E-02 15312   0.233E-01    0.493E-02
RMM:   2    -0.697079119569E+03   -0.14326E-03   -0.52571E-04 12717   0.459E-02    0.136E-01
RMM:   3    -0.697079028973E+03    0.90596E-04   -0.11710E-04  8391   0.197E-02    0.532E-02
RMM:   4    -0.697079072126E+03   -0.43153E-04   -0.33659E-05  7968   0.127E-02    0.972E-02
RMM:   5    -0.697079027933E+03    0.44192E-04   -0.17818E-05  7764   0.847E-03    0.531E-02
RMM:   6    -0.697079019886E+03    0.80476E-05   -0.10888E-05  7079   0.666E-03    0.435E-02
RMM:   7    -0.697079012050E+03    0.78355E-05   -0.68906E-06  6816   0.519E-03    0.263E-02
RMM:   8    -0.697079011000E+03    0.10504E-05   -0.20269E-06  4244   0.356E-03
 116 F= -.69707901E+03 E0= -.69651745E+03  d E =-.121572E-02  mag=     3.8159
       N       E                     dE             d eps       ncg     rms          rms(c)
DAV:   1    -0.697079994157E+03   -0.98211E-03   -0.64240E-03 15392   0.111E-01    0.293E-02
RMM:   2    -0.697080052928E+03   -0.58771E-04   -0.11886E-04  8017   0.215E-02    0.914E-02
RMM:   3    -0.697080076686E+03   -0.23757E-04   -0.30566E-05  7877   0.121E-02    0.107E-01
RMM:   4    -0.697080015435E+03    0.61250E-04   -0.82824E-06  7184   0.663E-03    0.363E-02
RMM:   5    -0.697080014968E+03    0.46793E-06   -0.23681E-06  5278   0.375E-03    0.240E-02
RMM:   6    -0.697080020445E+03   -0.54779E-05   -0.92231E-07  3640   0.315E-03    0.185E-02
RMM:   7    -0.697080025386E+03   -0.49408E-05   -0.76891E-07  3408   0.311E-03    0.168E-02
RMM:   8    -0.697080028413E+03   -0.30264E-05   -0.57324E-07  2587   0.300E-03
 117 F= -.69708003E+03 E0= -.69651848E+03  d E =-.101741E-02  mag=     3.8155
       N       E                     dE             d eps       ncg     rms          rms(c)
DAV:   1    -0.697081458067E+03   -0.14327E-02   -0.57851E-02 15328   0.331E-01    0.677E-02
RMM:   2    -0.697081698868E+03   -0.24080E-03   -0.97451E-04 14264   0.622E-02    0.173E-01
RMM:   3    -0.697081574670E+03    0.12420E-03   -0.21679E-04  9109   0.252E-02    0.815E-02
RMM:   4    -0.697081681732E+03   -0.10706E-03   -0.66748E-05  8154   0.177E-02    0.145E-01
RMM:   5    -0.697081587277E+03    0.94455E-04   -0.26545E-05  7956   0.109E-02    0.804E-02
RMM:   6    -0.697081581845E+03    0.54313E-05   -0.15269E-05  7383   0.767E-03    0.523E-02
RMM:   7    -0.697081586588E+03   -0.47429E-05   -0.11054E-05  7190   0.643E-03    0.427E-02
RMM:   8    -0.697081587546E+03   -0.95772E-06   -0.53414E-06  6286   0.475E-03
 118 F= -.69708159E+03 E0= -.69652012E+03  d E =-.257655E-02  mag=     3.8153
       N       E                     dE             d eps       ncg     rms          rms(c)
DAV:   1    -0.697082251735E+03   -0.66515E-03   -0.54036E-03 15600   0.974E-02    0.255E-02
RMM:   2    -0.697082284273E+03   -0.32539E-04   -0.93343E-05  8033   0.189E-02    0.643E-02
RMM:   3    -0.697082285080E+03   -0.80657E-06   -0.20893E-05  7854   0.104E-02    0.596E-02
RMM:   4    -0.697082266472E+03    0.18608E-04   -0.62622E-06  6772   0.526E-03    0.256E-02
RMM:   5    -0.697082268211E+03   -0.17391E-05   -0.21259E-06  5256   0.374E-03    0.124E-02
RMM:   6    -0.697082272865E+03   -0.46537E-05   -0.70427E-07  3212   0.308E-03    0.171E-02
RMM:   7    -0.697082275968E+03   -0.31037E-05   -0.36010E-07  2556   0.284E-03    0.168E-02
RMM:   8    -0.697082277247E+03   -0.12789E-05   -0.29837E-07  2132   0.287E-03
 119 F= -.69708228E+03 E0= -.69652083E+03  d E =-.689701E-03  mag=     3.8151
       N       E                     dE             d eps       ncg     rms          rms(c)
DAV:   1    -0.697082632166E+03   -0.35620E-03   -0.89778E-03 15536   0.125E-01    0.272E-02
RMM:   2    -0.697082702037E+03   -0.69872E-04   -0.14751E-04  8203   0.238E-02    0.919E-02
RMM:   3    -0.697082643405E+03    0.58632E-04   -0.27181E-05  7868   0.115E-02    0.293E-02
RMM:   4    -0.697082654844E+03   -0.11439E-04   -0.10184E-05  7204   0.647E-03    0.329E-02
RMM:   5    -0.697082652452E+03    0.23923E-05   -0.43286E-06  6305   0.475E-03    0.209E-02
RMM:   6    -0.697082654167E+03   -0.17155E-05   -0.12448E-06  3963   0.335E-03    0.181E-02
RMM:   7    -0.697082654914E+03   -0.74712E-06   -0.90871E-07  3455   0.320E-03    0.132E-02
RMM:   8    -0.697082655616E+03   -0.70165E-06   -0.47233E-07  2501   0.301E-03
 120 F= -.69708266E+03 E0= -.69652126E+03  d E =-.106807E-02  mag=     3.8152
       N       E                     dE             d eps       ncg     rms          rms(c)
DAV:   1    -0.697083213014E+03   -0.55810E-03   -0.32289E-03 15168   0.877E-02    0.158E-02
RMM:   2    -0.697083220906E+03   -0.78916E-05   -0.70128E-05  7871   0.165E-02    0.304E-02
RMM:   3    -0.697083220252E+03    0.65423E-06   -0.10483E-05  7590   0.764E-03    0.147E-02
RMM:   4    -0.697083238909E+03   -0.18657E-04   -0.30655E-06  5397   0.376E-03    0.551E-02
RMM:   5    -0.697083219701E+03    0.19208E-04   -0.11644E-06  4137   0.337E-03    0.156E-02
RMM:   6    -0.697083223429E+03   -0.37282E-05   -0.16734E-07  2063   0.274E-03    0.120E-02
RMM:   7    -0.697083225616E+03   -0.21862E-05   -0.21779E-07  1877   0.273E-03    0.127E-02
RMM:   8    -0.697083225374E+03    0.24170E-06   -0.10721E-07  1428   0.273E-03
 121 F= -.69708323E+03 E0= -.69652183E+03  d E =-.569758E-03  mag=     3.8152
       N       E                     dE             d eps       ncg     rms          rms(c)
DAV:   1    -0.697083614946E+03   -0.38933E-03   -0.12244E-02 15376   0.171E-01    0.300E-02
RMM:   2    -0.697083641303E+03   -0.26357E-04   -0.26349E-04  9115   0.321E-02    0.648E-02
RMM:   3    -0.697083637023E+03    0.42797E-05   -0.42409E-05  7830   0.144E-02    0.311E-02
RMM:   4    -0.697083715872E+03   -0.78849E-04   -0.15109E-05  7709   0.765E-03    0.115E-01
RMM:   5    -0.697083631253E+03    0.84619E-04   -0.79125E-06  7065   0.618E-03    0.300E-02
RMM:   6    -0.697083641941E+03   -0.10689E-04   -0.31051E-06  5510   0.393E-03    0.288E-02
RMM:   7    -0.697083643772E+03   -0.18306E-05   -0.94617E-07  3538   0.320E-03    0.252E-02
RMM:   8    -0.697083644915E+03   -0.11425E-05   -0.53808E-07  2619   0.301E-03
 122 F= -.69708364E+03 E0= -.69652225E+03  d E =-.989299E-03  mag=     3.8152
       N       E                     dE             d eps       ncg     rms          rms(c)
DAV:   1    -0.697084101235E+03   -0.45746E-03   -0.27591E-03 15328   0.697E-02    0.220E-02
RMM:   2    -0.697084121227E+03   -0.19993E-04   -0.57136E-05  7920   0.146E-02    0.497E-02
RMM:   3    -0.697084112788E+03    0.84393E-05   -0.12020E-05  7679   0.773E-03    0.400E-02
RMM:   4    -0.697084120756E+03   -0.79681E-05   -0.53958E-06  6397   0.445E-03    0.574E-02
RMM:   5    -0.697084103767E+03    0.16989E-04   -0.21725E-06  5111   0.381E-03    0.188E-02
RMM:   6    -0.697084103869E+03   -0.10192E-06   -0.43683E-07  2445   0.277E-03    0.152E-02
RMM:   7    -0.697084104559E+03   -0.68993E-06   -0.25251E-07  2132   0.270E-03    0.161E-02
RMM:   8    -0.697084102001E+03    0.25579E-05   -0.35790E-08  1398   0.259E-03
 123 F= -.69708410E+03 E0= -.69652270E+03  d E =-.457086E-03  mag=     3.8153
       N       E                     dE             d eps       ncg     rms          rms(c)
DAV:   1    -0.697084750584E+03   -0.64602E-03   -0.24692E-02 15392   0.208E-01    0.428E-02
RMM:   2    -0.697084811819E+03   -0.61236E-04   -0.47013E-04 11921   0.427E-02    0.867E-02
RMM:   3    -0.697084812375E+03   -0.55561E-06   -0.95806E-05  8236   0.184E-02    0.693E-02
RMM:   4    -0.697084844391E+03   -0.32016E-04   -0.30741E-05  7907   0.119E-02    0.105E-01
RMM:   5    -0.697084789079E+03    0.55313E-04   -0.14468E-05  7535   0.766E-03    0.559E-02
RMM:   6    -0.697084774258E+03    0.14820E-04   -0.85892E-06  7053   0.589E-03    0.258E-02
RMM:   7    -0.697084772852E+03    0.14061E-05   -0.58413E-06  6852   0.483E-03    0.235E-02
RMM:   8    -0.697084770679E+03    0.21733E-05   -0.21961E-06  4613   0.359E-03
 124 F= -.69708477E+03 E0= -.69652334E+03  d E =-.112576E-02  mag=     3.8156
       N       E                     dE             d eps       ncg     rms          rms(c)
DAV:   1    -0.697085370645E+03   -0.59779E-03   -0.41756E-03 15456   0.927E-02    0.267E-02
RMM:   2    -0.697085460943E+03   -0.90298E-04   -0.91647E-05  7974   0.183E-02    0.120E-01
RMM:   3    -0.697085384731E+03    0.76212E-04   -0.23022E-05  7863   0.108E-02    0.607E-02
RMM:   4    -0.697085377096E+03    0.76348E-05   -0.54728E-06  6867   0.535E-03    0.306E-02
RMM:   5    -0.697085375196E+03    0.19001E-05   -0.13749E-06  4165   0.338E-03    0.277E-02
RMM:   6    -0.697085373987E+03    0.12096E-05   -0.19723E-06  4822   0.351E-03    0.276E-02
RMM:   7    -0.697085370411E+03    0.35759E-05   -0.12373E-06  4147   0.335E-03    0.178E-02
RMM:   8    -0.697085368088E+03    0.23225E-05   -0.45485E-07  2330   0.295E-03
 125 F= -.69708537E+03 E0= -.69652392E+03  d E =-.597409E-03  mag=     3.8160
       N       E                     dE             d eps       ncg     rms          rms(c)
DAV:   1    -0.697085954990E+03   -0.58458E-03   -0.28655E-02 15360   0.242E-01    0.577E-02
RMM:   2    -0.697086023536E+03   -0.68546E-04   -0.56715E-04 12830   0.468E-02    0.106E-01
RMM:   3    -0.697086004388E+03    0.19148E-04   -0.11196E-04  8224   0.203E-02    0.670E-02
RMM:   4    -0.697086037971E+03   -0.33583E-04   -0.29952E-05  7897   0.123E-02    0.959E-02
RMM:   5    -0.697086023564E+03    0.14407E-04   -0.23305E-05  7822   0.858E-03    0.998E-02
RMM:   6    -0.697085987946E+03    0.35618E-04   -0.16771E-05  7487   0.858E-03    0.671E-02
RMM:   7    -0.697085957098E+03    0.30849E-04   -0.83205E-06  6914   0.564E-03    0.315E-02
RMM:   8    -0.697085958288E+03   -0.11906E-05   -0.35780E-06  5533   0.411E-03
 126 F= -.69708596E+03 E0= -.69652447E+03  d E =-.118761E-02  mag=     3.8166
       N       E                     dE             d eps       ncg     rms          rms(c)
DAV:   1    -0.697086403359E+03   -0.44626E-03   -0.20030E-03 15072   0.600E-02    0.241E-02
RMM:   2    -0.697086421397E+03   -0.18038E-04   -0.38997E-05  7852   0.122E-02    0.467E-02
RMM:   3    -0.697086411986E+03    0.94108E-05   -0.94698E-06  7570   0.719E-03    0.188E-02
RMM:   4    -0.697086423060E+03   -0.11074E-04   -0.35663E-06  5407   0.378E-03    0.390E-02
RMM:   5    -0.697086429092E+03   -0.60324E-05   -0.24108E-06  4915   0.363E-03    0.483E-02
RMM:   6    -0.697086418326E+03    0.10766E-04   -0.10801E-06  3944   0.329E-03    0.145E-02
RMM:   7    -0.697086419543E+03   -0.12165E-05   -0.50035E-08  1663   0.264E-03    0.774E-03
RMM:   8    -0.697086422593E+03   -0.30500E-05   -0.16939E-08  1335   0.259E-03
 127 F= -.69708642E+03 E0= -.69652491E+03  d E =-.464305E-03  mag=     3.8172
       N       E                     dE             d eps       ncg     rms          rms(c)
DAV:   1    -0.697087080205E+03   -0.66066E-03   -0.17980E-02 15360   0.179E-01    0.472E-02
RMM:   2    -0.697087140906E+03   -0.60701E-04   -0.30444E-04 10108   0.351E-02    0.973E-02
RMM:   3    -0.697087116614E+03    0.24292E-04   -0.59351E-05  7953   0.168E-02    0.554E-02
RMM:   4    -0.697087219280E+03   -0.10267E-03   -0.24706E-05  7820   0.921E-03    0.139E-01
RMM:   5    -0.697087107883E+03    0.11140E-03   -0.19380E-05  7750   0.889E-03    0.495E-02
RMM:   6    -0.697087111491E+03   -0.36086E-05   -0.10406E-05  6992   0.659E-03    0.391E-02
RMM:   7    -0.697087109058E+03    0.24334E-05   -0.50036E-06  6509   0.484E-03    0.238E-02
RMM:   8    -0.697087108442E+03    0.61588E-06   -0.76912E-07  3250   0.296E-03
 128 F= -.69708711E+03 E0= -.69652553E+03  d E =-.115015E-02  mag=     3.8177
       N       E                     dE             d eps       ncg     rms          rms(c)
DAV:   1    -0.697087724593E+03   -0.61553E-03   -0.42657E-03 15232   0.101E-01    0.264E-02
RMM:   2    -0.697088080345E+03   -0.35575E-03   -0.12009E-04  8081   0.197E-02    0.227E-01
RMM:   3    -0.697087714394E+03    0.36595E-03   -0.30488E-05  7910   0.131E-02    0.321E-02
RMM:   4    -0.697087740523E+03   -0.26128E-04   -0.87800E-06  7317   0.588E-03    0.326E-02
RMM:   5    -0.697087742168E+03   -0.16448E-05   -0.21968E-06  5331   0.384E-03    0.156E-02
RMM:   6    -0.697087745196E+03   -0.30286E-05   -0.34116E-07  2666   0.275E-03    0.925E-03
RMM:   7    -0.697087751700E+03   -0.65035E-05   -0.50433E-07  2658   0.288E-03    0.132E-02
RMM:   8    -0.697087754585E+03   -0.28849E-05   -0.85385E-08  1720   0.267E-03
 129 F= -.69708775E+03 E0= -.69652617E+03  d E =-.646143E-03  mag=     3.8180
       N       E                     dE             d eps       ncg     rms          rms(c)
DAV:   1    -0.697088035118E+03   -0.28342E-03   -0.69767E-03 15360   0.130E-01    0.227E-02
RMM:   2    -0.697088054775E+03   -0.19657E-04   -0.15191E-04  8150   0.238E-02    0.420E-02
RMM:   3    -0.697088056410E+03   -0.16345E-05   -0.22654E-05  7794   0.111E-02    0.271E-02
RMM:   4    -0.697088068409E+03   -0.11999E-04   -0.66426E-06  7040   0.514E-03    0.462E-02
RMM:   5    -0.697088062681E+03    0.57284E-05   -0.35579E-06  6075   0.424E-03    0.310E-02
RMM:   6    -0.697088064090E+03   -0.14091E-05   -0.84113E-07  3621   0.308E-03    0.209E-02
RMM:   7    -0.697088065960E+03   -0.18704E-05   -0.37660E-07  2356   0.286E-03    0.107E-02
RMM:   8    -0.697088069207E+03   -0.32471E-05   -0.18605E-07  1961   0.274E-03
 130 F= -.69708807E+03 E0= -.69652650E+03  d E =-.960765E-03  mag=     3.8182
       N       E                     dE             d eps       ncg     rms          rms(c)
DAV:   1    -0.697088321647E+03   -0.25569E-03   -0.25320E-03 15264   0.686E-02    0.173E-02
RMM:   2    -0.697088342601E+03   -0.20954E-04   -0.59769E-05  7890   0.135E-02    0.537E-02
RMM:   3    -0.697088336239E+03    0.63623E-05   -0.10685E-05  7431   0.727E-03    0.379E-02
RMM:   4    -0.697088331061E+03    0.51780E-05   -0.28164E-06  5275   0.381E-03    0.256E-02
RMM:   5    -0.697088331824E+03   -0.76374E-06   -0.56099E-07  2668   0.298E-03    0.215E-02
RMM:   6    -0.697088331254E+03    0.57045E-06   -0.31664E-07  2132   0.292E-03    0.125E-02
RMM:   7    -0.697088332525E+03   -0.12708E-05   -0.35678E-07  1970   0.291E-03    0.108E-02
RMM:   8    -0.697088332928E+03   -0.40298E-06   -0.20242E-07  1575   0.282E-03
 131 F= -.69708833E+03 E0= -.69652678E+03  d E =-.263720E-03  mag=     3.8183
       N       E                     dE             d eps       ncg     rms          rms(c)
DAV:   1    -0.697088415792E+03   -0.83268E-04   -0.28224E-03 15248   0.725E-02    0.165E-02
RMM:   2    -0.697088422970E+03   -0.71773E-05   -0.65424E-05  7847   0.141E-02    0.239E-02
RMM:   3    -0.697088425515E+03   -0.25455E-05   -0.98861E-06  7392   0.712E-03    0.279E-02
RMM:   4    -0.697088422536E+03    0.29791E-05   -0.15863E-06  3891   0.330E-03    0.168E-02
RMM:   5    -0.697088424363E+03   -0.18273E-05   -0.68224E-07  2758   0.304E-03    0.209E-02
RMM:   6    -0.697088423223E+03    0.11402E-05   -0.22820E-07  2093   0.289E-03    0.106E-02
RMM:   7    -0.697088424306E+03   -0.10825E-05   -0.24726E-07  1871   0.288E-03    0.107E-02
RMM:   8    -0.697088424241E+03    0.64589E-07   -0.22608E-07  1550   0.284E-03
 132 F= -.69708842E+03 E0= -.69652690E+03  d E =-.355034E-03  mag=     3.8184
       N       E                     dE             d eps       ncg     rms          rms(c)
DAV:   1    -0.697088618558E+03   -0.19425E-03   -0.23355E-03 15264   0.600E-02    0.135E-02
RMM:   2    -0.697088632130E+03   -0.13572E-04   -0.45390E-05  7765   0.129E-02    0.436E-02
RMM:   3    -0.697088622683E+03    0.94471E-05   -0.84762E-06  7299   0.650E-03    0.171E-02
RMM:   4    -0.697088626144E+03   -0.34614E-05   -0.20437E-06  4593   0.356E-03    0.255E-02
RMM:   5    -0.697088624935E+03    0.12097E-05   -0.47362E-07  2642   0.297E-03    0.198E-02
RMM:   6    -0.697088623829E+03    0.11052E-05   -0.39274E-07  2255   0.297E-03    0.120E-02
RMM:   7    -0.697088624589E+03   -0.75966E-06   -0.72297E-07  2600   0.304E-03    0.949E-03
RMM:   8    -0.697088624595E+03   -0.62864E-08   -0.26165E-07  1717   0.281E-03
 133 F= -.69708862E+03 E0= -.69652710E+03  d E =-.200354E-03  mag=     3.8184
       N       E                     dE             d eps       ncg     rms          rms(c)
DAV:   1    -0.697088743237E+03   -0.11865E-03   -0.52016E-03 15472   0.895E-02    0.205E-02
RMM:   2    -0.697088753206E+03   -0.99695E-05   -0.10036E-04  7998   0.189E-02    0.303E-02
RMM:   3    -0.697088752267E+03    0.93879E-06   -0.16862E-05  7614   0.921E-03    0.191E-02
RMM:   4    -0.697088768322E+03   -0.16055E-04   -0.58622E-06  6438   0.468E-03    0.569E-02
RMM:   5    -0.697088747962E+03    0.20361E-04   -0.18418E-06  4895   0.364E-03    0.206E-02
RMM:   6    -0.697088748728E+03   -0.76634E-06   -0.87312E-07  3335   0.305E-03    0.132E-02
RMM:   7    -0.697088748307E+03    0.42129E-06   -0.95422E-07  3155   0.304E-03    0.115E-02
RMM:   8    -0.697088746967E+03    0.13401E-05   -0.47270E-07  2163   0.285E-03
 134 F= -.69708875E+03 E0= -.69652723E+03  d E =-.322726E-03  mag=     3.8182
       N       E                     dE             d eps       ncg     rms          rms(c)
DAV:   1    -0.697088811932E+03   -0.63625E-04   -0.11929E-03 15072   0.518E-02    0.103E-02
RMM:   2    -0.697088817428E+03   -0.54965E-05   -0.27533E-05  7778   0.978E-03    0.262E-02
RMM:   3    -0.697088814072E+03    0.33565E-05   -0.43542E-06  6926   0.500E-03    0.123E-02
RMM:   4    -0.697088816142E+03   -0.20708E-05   -0.14468E-07  1721   0.240E-03    0.168E-02
RMM:   5    -0.697088814940E+03    0.12020E-05   -0.42698E-08  1568   0.237E-03    0.137E-02
RMM:   6    -0.697088814327E+03    0.61322E-06   -0.90748E-09  1353   0.235E-03    0.103E-02
RMM:   7    -0.697088813431E+03    0.89563E-06   -0.12427E-08  1133   0.234E-03    0.554E-03
RMM:   8    -0.697088813324E+03    0.10775E-06   -0.19855E-08  1076   0.240E-03
 135 F= -.69708881E+03 E0= -.69652729E+03  d E =-.663571E-04  mag=     3.8181
       N       E                     dE             d eps       ncg     rms          rms(c)
DAV:   1    -0.697088814903E+03   -0.14718E-05   -0.34655E-05  8880   0.927E-03    0.540E-03
RMM:   2    -0.697088816070E+03   -0.11664E-05   -0.23581E-06  5378   0.380E-03    0.947E-03
RMM:   3    -0.697088815974E+03    0.95861E-07   -0.55665E-08  1486   0.252E-03    0.501E-03
RMM:   4    -0.697088816293E+03   -0.31949E-06    0.00000E+00   918   0.239E-03    0.751E-03
RMM:   5    -0.697088816075E+03    0.21833E-06   -0.53493E-10   890   0.235E-03    0.517E-03
RMM:   6    -0.697088816204E+03   -0.12857E-06    0.00000E+00   826   0.236E-03    0.390E-03
RMM:   7    -0.697088816596E+03   -0.39221E-06    0.00000E+00   756   0.239E-03    0.315E-03
RMM:   8    -0.697088816930E+03   -0.33436E-06   -0.13301E-09   811   0.245E-03
 136 F= -.69708882E+03 E0= -.69652729E+03  d E =-.699635E-04  mag=     3.8180
       N       E                     dE             d eps       ncg     rms          rms(c)
DAV:   1    -0.697088845283E+03   -0.28687E-04   -0.36928E-04 14704   0.284E-02    0.632E-03
RMM:   2    -0.697088847369E+03   -0.20857E-05   -0.86459E-06  7645   0.604E-03    0.171E-02
RMM:   3    -0.697088846650E+03    0.71818E-06   -0.49614E-07  2757   0.293E-03    0.116E-02
RMM:   4    -0.697088847981E+03   -0.13302E-05   -0.40091E-08  1085   0.257E-03    0.164E-02
RMM:   5    -0.697088847185E+03    0.79514E-06   -0.59167E-08  1188   0.257E-03    0.113E-02
RMM:   6    -0.697088847652E+03   -0.46659E-06   -0.37372E-08  1082   0.253E-03    0.705E-03
RMM:   7    -0.697088848195E+03   -0.54290E-06   -0.11632E-07  1285   0.259E-03    0.587E-03
RMM:   8    -0.697088848472E+03   -0.27720E-06   -0.50607E-08   995   0.249E-03
 137 F= -.69708885E+03 E0= -.69652734E+03  d E =-.315420E-04  mag=     3.8179
