       N       E                     dE             d eps       ncg     rms          rms(c)
DAV:   1     0.901575651703E+04    0.90158E+04   -0.34260E+05 24880   0.112E+03
DAV:   2     0.779985628006E+03   -0.82358E+04   -0.74181E+04 31056   0.304E+02
DAV:   3    -0.911441762444E+03   -0.16914E+04   -0.16691E+04 29632   0.149E+02
DAV:   4    -0.996123541674E+03   -0.84682E+02   -0.84104E+02 33216   0.410E+01
DAV:   5    -0.999500582942E+03   -0.33770E+01   -0.33677E+01 39920   0.651E+00    0.176E+02
RMM:   6    -0.944860793844E+03    0.54640E+02   -0.27770E+03 27035   0.917E+01    0.355E+02
RMM:   7    -0.731016502882E+03    0.21384E+03   -0.33209E+02 24337   0.305E+01    0.211E+02
RMM:   8    -0.906867697716E+03   -0.17585E+03   -0.31126E+02 24393   0.278E+01    0.215E+02
RMM:   9    -0.662093186948E+03    0.24477E+03   -0.16311E+02 24336   0.205E+01    0.146E+02
RMM:  10    -0.556386385712E+03    0.10571E+03   -0.78576E+01 24354   0.151E+01    0.840E+01
RMM:  11    -0.533189839072E+03    0.23197E+02   -0.30233E+01 24385   0.852E+00    0.820E+01
RMM:  12    -0.528521832208E+03    0.46680E+01   -0.15427E+01 24594   0.644E+00    0.746E+01
RMM:  13    -0.522417079025E+03    0.61048E+01   -0.16093E+01 24515   0.642E+00    0.642E+01
RMM:  14    -0.515530514810E+03    0.68866E+01   -0.13050E+01 24775   0.593E+00    0.519E+01
RMM:  15    -0.499458990693E+03    0.16072E+02   -0.97310E+00 24391   0.491E+00    0.440E+01
RMM:  16    -0.490330709224E+03    0.91283E+01   -0.46973E+00 24529   0.348E+00    0.394E+01
RMM:  17    -0.481053383436E+03    0.92773E+01   -0.29236E+00 25045   0.262E+00    0.367E+01
RMM:  18    -0.471898225745E+03    0.91552E+01   -0.25068E+00 25095   0.241E+00    0.348E+01
RMM:  19    -0.464338021485E+03    0.75602E+01   -0.19306E+00 25189   0.216E+00    0.320E+01
RMM:  20    -0.457729662904E+03    0.66084E+01   -0.18706E+00 25527   0.200E+00    0.305E+01
RMM:  21    -0.455131650997E+03    0.25980E+01   -0.11213E+00 25321   0.169E+00    0.295E+01
RMM:  22    -0.452491084202E+03    0.26406E+01   -0.12468E+00 26102   0.169E+00    0.283E+01
RMM:  23    -0.455671247182E+03   -0.31802E+01   -0.12322E+00 26467   0.169E+00    0.279E+01
RMM:  24    -0.462508181538E+03   -0.68369E+01   -0.17385E+00 27992   0.200E+00    0.267E+01
RMM:  25    -0.472449198931E+03   -0.99410E+01   -0.16652E+00 27666   0.194E+00    0.260E+01
RMM:  26    -0.485876141104E+03   -0.13427E+02   -0.27035E+00 29570   0.238E+00    0.261E+01
RMM:  27    -0.505725114338E+03   -0.19849E+02   -0.43265E+00 30173   0.270E+00    0.248E+01
RMM:  28    -0.528292042881E+03   -0.22567E+02   -0.71243E+00 32957   0.332E+00    0.245E+01
RMM:  29    -0.548889242405E+03   -0.20597E+02   -0.79196E+00 33110   0.340E+00    0.234E+01
RMM:  30    -0.567030814751E+03   -0.18142E+02   -0.68872E+00 32673   0.314E+00    0.230E+01
RMM:  31    -0.586291871698E+03   -0.19261E+02   -0.72130E+00 33261   0.333E+00    0.227E+01
RMM:  32    -0.600700603073E+03   -0.14409E+02   -0.64563E+00 33878   0.328E+00    0.219E+01
RMM:  33    -0.612789724436E+03   -0.12089E+02   -0.67195E+00 33481   0.312E+00    0.206E+01
RMM:  34    -0.620184807711E+03   -0.73951E+01   -0.48334E+00 33636   0.269E+00    0.191E+01
RMM:  35    -0.622490196652E+03   -0.23054E+01   -0.11264E+00 29680   0.149E+00    0.175E+01
RMM:  36    -0.625143990055E+03   -0.26538E+01   -0.64216E-01 27619   0.117E+00    0.165E+01
RMM:  37    -0.627978094723E+03   -0.28341E+01   -0.55398E-01 27622   0.105E+00    0.153E+01
RMM:  38    -0.631020488396E+03   -0.30424E+01   -0.51059E-01 28527   0.945E-01    0.142E+01
RMM:  39    -0.637653394549E+03   -0.66329E+01   -0.12304E+00 32001   0.141E+00    0.141E+01
RMM:  40    -0.641248017354E+03   -0.35946E+01   -0.10918E+00 31282   0.130E+00    0.134E+01
RMM:  41    -0.644285025232E+03   -0.30370E+01   -0.14985E+00 32146   0.137E+00    0.139E+01
RMM:  42    -0.646438022183E+03   -0.21530E+01   -0.88372E-01 30548   0.106E+00    0.141E+01
RMM:  43    -0.648565499287E+03   -0.21275E+01   -0.44744E-01 28778   0.781E-01    0.141E+01
RMM:  44    -0.651384962199E+03   -0.28195E+01   -0.72926E-01 30909   0.104E+00    0.146E+01
RMM:  45    -0.655091907300E+03   -0.37069E+01   -0.11455E+00 32753   0.130E+00    0.153E+01
RMM:  46    -0.657737787205E+03   -0.26459E+01   -0.10320E+00 32249   0.115E+00    0.154E+01
RMM:  47    -0.659219417817E+03   -0.14816E+01   -0.48280E-01 29894   0.861E-01    0.142E+01
RMM:  48    -0.659826558587E+03   -0.60714E+00   -0.28742E-01 28708   0.686E-01    0.131E+01
RMM:  49    -0.660928857620E+03   -0.11023E+01   -0.38338E-01 29924   0.713E-01    0.118E+01
RMM:  50    -0.662651631100E+03   -0.17228E+01   -0.32748E-01 29849   0.673E-01    0.100E+01
RMM:  51    -0.663568897162E+03   -0.91727E+00   -0.90481E-01 35474   0.128E+00    0.725E+00
RMM:  52    -0.665564001867E+03   -0.19951E+01   -0.34053E-01 31028   0.745E-01    0.648E+00
RMM:  53    -0.666257393311E+03   -0.69339E+00   -0.37062E-01 30665   0.699E-01    0.559E+00
RMM:  54    -0.668666765935E+03   -0.24094E+01   -0.29956E-01 29555   0.533E-01    0.429E+00
RMM:  55    -0.669255369707E+03   -0.58860E+00   -0.67480E-02 25866   0.346E-01    0.373E+00
RMM:  56    -0.669640750316E+03   -0.38538E+00   -0.12089E-01 28615   0.411E-01    0.356E+00
RMM:  57    -0.669572662998E+03    0.68087E-01   -0.98257E-02 27055   0.354E-01    0.301E+00
RMM:  58    -0.669595186451E+03   -0.22523E-01   -0.62082E-02 27351   0.309E-01    0.280E+00
RMM:  59    -0.669363224027E+03    0.23196E+00   -0.48360E-02 27376   0.299E-01    0.251E+00
RMM:  60    -0.669301995244E+03    0.61229E-01   -0.39002E-02 27168   0.259E-01    0.227E+00
RMM:  61    -0.669390704292E+03   -0.88709E-01   -0.28269E-02 26051   0.257E-01    0.217E+00
RMM:  62    -0.669492307233E+03   -0.10160E+00   -0.18279E-02 25587   0.195E-01    0.166E+00
RMM:  63    -0.669635619689E+03   -0.14331E+00   -0.14372E-02 26070   0.152E-01    0.149E+00
RMM:  64    -0.669810539962E+03   -0.17492E+00   -0.97706E-03 25337   0.133E-01    0.134E+00
RMM:  65    -0.669937380897E+03   -0.12684E+00   -0.90720E-03 25861   0.126E-01    0.125E+00
RMM:  66    -0.669961138180E+03   -0.23757E-01   -0.43960E-03 24216   0.960E-02    0.119E+00
RMM:  67    -0.669981218412E+03   -0.20080E-01   -0.30510E-03 23431   0.790E-02    0.113E+00
RMM:  68    -0.670068533157E+03   -0.87315E-01   -0.37602E-03 25522   0.725E-02    0.108E+00
RMM:  69    -0.670193243934E+03   -0.12471E+00   -0.38766E-03 25916   0.682E-02    0.104E+00
RMM:  70    -0.670214542349E+03   -0.21298E-01   -0.42584E-03 26075   0.673E-02    0.101E+00
RMM:  71    -0.670151329919E+03    0.63212E-01   -0.31329E-03 25258   0.610E-02    0.983E-01
RMM:  72    -0.670037382885E+03    0.11395E+00   -0.39158E-03 27135   0.671E-02    0.962E-01
RMM:  73    -0.670083152146E+03   -0.45769E-01   -0.44738E-03 27612   0.709E-02    0.891E-01
RMM:  74    -0.670143461152E+03   -0.60309E-01   -0.59264E-03 29346   0.803E-02    0.841E-01
RMM:  75    -0.670113691741E+03    0.29769E-01   -0.32064E-03 27875   0.700E-02    0.747E-01
RMM:  76    -0.670103081085E+03    0.10611E-01   -0.21988E-03 26175   0.617E-02    0.700E-01
RMM:  77    -0.670049465805E+03    0.53615E-01   -0.28194E-03 26992   0.678E-02    0.611E-01
RMM:  78    -0.670147631464E+03   -0.98166E-01   -0.45557E-03 29140   0.791E-02    0.544E-01
RMM:  79    -0.670248377950E+03   -0.10075E+00   -0.38276E-03 27457   0.700E-02    0.397E-01
RMM:  80    -0.670317729596E+03   -0.69352E-01   -0.35301E-03 27920   0.653E-02
   1 F= -.67031773E+03 E0= -.66990335E+03  d E =-.670318E+03  mag=    80.4293
       N       E                     dE             d eps       ncg     rms          rms(c)
DAV:   1    -0.669417493838E+03    0.83088E+00   -0.18172E+02 27936   0.125E+01    0.442E+00
RMM:   2    -0.669956897104E+03   -0.53940E+00   -0.46508E+00 24325   0.219E+00    0.397E+00
RMM:   3    -0.670130124034E+03   -0.17323E+00   -0.83738E-01 24658   0.112E+00    0.489E+00
RMM:   4    -0.670097942820E+03    0.32181E-01   -0.15578E-01 24356   0.595E-01    0.153E+00
RMM:   5    -0.670177293254E+03   -0.79350E-01   -0.64303E-02 24071   0.305E-01    0.163E+00
RMM:   6    -0.670223104553E+03   -0.45811E-01   -0.30967E-02 23911   0.233E-01    0.131E+00
RMM:   7    -0.670250234687E+03   -0.27130E-01   -0.17205E-02 23860   0.183E-01    0.114E+00
RMM:   8    -0.670260107699E+03   -0.98730E-02   -0.55215E-03 23656   0.108E-01    0.431E-01
RMM:   9    -0.670271088519E+03   -0.10981E-01   -0.23561E-03 24977   0.596E-02    0.240E-01
RMM:  10    -0.670284720629E+03   -0.13632E-01   -0.94851E-04 23760   0.351E-02    0.170E-01
RMM:  11    -0.670304424720E+03   -0.19704E-01   -0.53550E-04 21843   0.260E-02    0.168E-01
RMM:  12    -0.670323890733E+03   -0.19466E-01   -0.27554E-04 18889   0.221E-02    0.130E-01
RMM:  13    -0.670339906904E+03   -0.16016E-01   -0.17964E-04 16747   0.169E-02    0.124E-01
RMM:  14    -0.670356540909E+03   -0.16634E-01   -0.13000E-04 15527   0.140E-02    0.112E-01
RMM:  15    -0.670373034765E+03   -0.16494E-01   -0.10815E-04 15618   0.114E-02    0.105E-01
RMM:  16    -0.670384594505E+03   -0.11560E-01   -0.93618E-05 14971   0.109E-02    0.101E-01
RMM:  17    -0.670398191359E+03   -0.13597E-01   -0.24259E-04 16992   0.145E-02    0.990E-02
RMM:  18    -0.670413856931E+03   -0.15666E-01   -0.14786E-04 15741   0.117E-02    0.907E-02
RMM:  19    -0.670430760887E+03   -0.16904E-01   -0.11343E-04 14856   0.977E-03    0.870E-02
RMM:  20    -0.670452900596E+03   -0.22140E-01   -0.12407E-04 15303   0.101E-02    0.841E-02
RMM:  21    -0.670472452191E+03   -0.19552E-01   -0.80125E-05 14431   0.955E-03    0.798E-02
RMM:  22    -0.670488431734E+03   -0.15980E-01   -0.52975E-05 14287   0.845E-03    0.775E-02
RMM:  23    -0.670503595118E+03   -0.15163E-01   -0.34486E-05 13640   0.778E-03    0.730E-02
RMM:  24    -0.670526583212E+03   -0.22988E-01   -0.39601E-05 14369   0.788E-03    0.699E-02
RMM:  25    -0.670555369009E+03   -0.28786E-01   -0.54319E-05 14086   0.850E-03    0.665E-02
RMM:  26    -0.670580461105E+03   -0.25092E-01   -0.49406E-05 13737   0.770E-03    0.615E-02
RMM:  27    -0.670604966451E+03   -0.24505E-01   -0.55504E-05 13800   0.738E-03    0.554E-02
RMM:  28    -0.670620284326E+03   -0.15318E-01   -0.31337E-05 12826   0.655E-03    0.494E-02
RMM:  29    -0.670640227081E+03   -0.19943E-01   -0.37149E-05 13369   0.621E-03    0.469E-02
RMM:  30    -0.670660820069E+03   -0.20593E-01   -0.35594E-05 13297   0.596E-03    0.417E-02
RMM:  31    -0.670680006832E+03   -0.19187E-01   -0.25613E-05 13243   0.543E-03    0.388E-02
RMM:  32    -0.670701650359E+03   -0.21644E-01   -0.23862E-05 13211   0.575E-03    0.366E-02
RMM:  33    -0.670716263981E+03   -0.14614E-01   -0.15475E-05 12657   0.523E-03    0.309E-02
RMM:  34    -0.670731687755E+03   -0.15424E-01   -0.17488E-05 13032   0.497E-03    0.290E-02
RMM:  35    -0.670739753397E+03   -0.80656E-02   -0.10069E-05 12110   0.428E-03    0.242E-02
RMM:  36    -0.670744267314E+03   -0.45139E-02   -0.75834E-06 11783   0.382E-03    0.227E-02
RMM:  37    -0.670747723960E+03   -0.34566E-02   -0.11714E-05 11780   0.374E-03    0.201E-02
RMM:  38    -0.670750488822E+03   -0.27649E-02   -0.12039E-05 11871   0.395E-03    0.183E-02
RMM:  39    -0.670752106603E+03   -0.16178E-02   -0.83170E-06 11079   0.358E-03    0.167E-02
RMM:  40    -0.670753389290E+03   -0.12827E-02   -0.62657E-06 10560   0.327E-03    0.152E-02
RMM:  41    -0.670754274039E+03   -0.88475E-03   -0.60826E-06 10437   0.317E-03    0.140E-02
RMM:  42    -0.670754919569E+03   -0.64553E-03   -0.65426E-06 10369   0.321E-03    0.129E-02
RMM:  43    -0.670756023978E+03   -0.11044E-02   -0.60408E-06 10235   0.317E-03    0.115E-02
RMM:  44    -0.670757340846E+03   -0.13169E-02   -0.50280E-06 10163   0.303E-03    0.102E-02
RMM:  45    -0.670758852621E+03   -0.15118E-02   -0.27002E-06  9026   0.269E-03    0.909E-03
RMM:  46    -0.670760180969E+03   -0.13283E-02   -0.21541E-06  8769   0.254E-03    0.810E-03
RMM:  47    -0.670761399896E+03   -0.12189E-02   -0.25555E-06  8767   0.252E-03    0.704E-03
RMM:  48    -0.670762095238E+03   -0.69534E-03   -0.22333E-06  8209   0.243E-03    0.539E-03
RMM:  49    -0.670762598507E+03   -0.50327E-03   -0.30283E-06  8727   0.249E-03    0.478E-03
RMM:  50    -0.670762689314E+03   -0.90808E-04   -0.22047E-06  8103   0.240E-03
   2 F= -.67076269E+03 E0= -.67034673E+03  d E =-.444960E+00  mag=    80.0482
       N       E                     dE             d eps       ncg     rms          rms(c)
DAV:   1    -0.670899680785E+03   -0.13708E+00   -0.84725E+00 27440   0.255E+00    0.103E+00
RMM:   2    -0.670916408559E+03   -0.16728E-01   -0.19337E-01 24126   0.443E-01    0.753E-01
RMM:   3    -0.670919982684E+03   -0.35741E-02   -0.31559E-02 23595   0.215E-01    0.963E-01
RMM:   4    -0.670917240167E+03    0.27425E-02   -0.81839E-03 22411   0.131E-01    0.375E-01
RMM:   5    -0.670917558471E+03   -0.31830E-03   -0.26252E-03 21661   0.646E-02    0.273E-01
RMM:   6    -0.670918308696E+03   -0.75022E-03   -0.15787E-03 21209   0.485E-02    0.271E-01
RMM:   7    -0.670918699792E+03   -0.39110E-03   -0.77707E-04 20604   0.406E-02    0.219E-01
RMM:   8    -0.670918749645E+03   -0.49853E-04   -0.26336E-04 17500   0.227E-02
   3 F= -.67091875E+03 E0= -.67050311E+03  d E =-.601020E+00  mag=    80.0469
       N       E                     dE             d eps       ncg     rms          rms(c)
DAV:   1    -0.670936134879E+03   -0.17435E-01   -0.89471E+00 26480   0.263E+00    0.104E+00
RMM:   2    -0.670954411959E+03   -0.18277E-01   -0.20451E-01 24131   0.459E-01    0.782E-01
RMM:   3    -0.670957923211E+03   -0.35113E-02   -0.32200E-02 23599   0.221E-01    0.974E-01
RMM:   4    -0.670955335476E+03    0.25877E-02   -0.87622E-03 22544   0.135E-01    0.399E-01
RMM:   5    -0.670955894976E+03   -0.55950E-03   -0.26330E-03 21979   0.666E-02    0.318E-01
RMM:   6    -0.670956721324E+03   -0.82635E-03   -0.15969E-03 21779   0.539E-02    0.327E-01
RMM:   7    -0.670957170084E+03   -0.44876E-03   -0.85167E-04 20826   0.413E-02    0.205E-01
RMM:   8    -0.670957368045E+03   -0.19796E-03   -0.26997E-04 17712   0.242E-02    0.103E-01
RMM:   9    -0.670957496903E+03   -0.12886E-03   -0.13147E-04 14733   0.165E-02    0.580E-02
RMM:  10    -0.670957645123E+03   -0.14822E-03   -0.57021E-05 13178   0.101E-02    0.309E-02
RMM:  11    -0.670957860644E+03   -0.21552E-03   -0.21826E-05 12551   0.698E-03    0.258E-02
RMM:  12    -0.670957989051E+03   -0.12841E-03   -0.13184E-05 12097   0.555E-03    0.181E-02
RMM:  13    -0.670958138090E+03   -0.14904E-03   -0.92788E-06 11659   0.461E-03    0.150E-02
RMM:  14    -0.670958230613E+03   -0.92524E-04   -0.51171E-06 10654   0.348E-03
   4 F= -.67095823E+03 E0= -.67054298E+03  d E =-.640501E+00  mag=    80.0438
       N       E                     dE             d eps       ncg     rms          rms(c)
DAV:   1    -0.671120087771E+03   -0.16195E+00   -0.14240E+01 26048   0.338E+00    0.132E+00
RMM:   2    -0.671150568575E+03   -0.30481E-01   -0.34182E-01 24233   0.590E-01    0.998E-01
RMM:   3    -0.671155129165E+03   -0.45606E-02   -0.54496E-02 23786   0.282E-01    0.122E+00
RMM:   4    -0.671151145204E+03    0.39840E-02   -0.13359E-02 22608   0.171E-01    0.517E-01
RMM:   5    -0.671151769258E+03   -0.62405E-03   -0.42611E-03 22114   0.864E-02    0.359E-01
RMM:   6    -0.671153306295E+03   -0.15370E-02   -0.27278E-03 21688   0.640E-02    0.327E-01
RMM:   7    -0.671154057451E+03   -0.75116E-03   -0.11439E-03 21145   0.526E-02    0.237E-01
RMM:   8    -0.671154300556E+03   -0.24310E-03   -0.40718E-04 19009   0.295E-02    0.118E-01
RMM:   9    -0.671154439206E+03   -0.13865E-03   -0.16732E-04 15618   0.162E-02    0.833E-02
RMM:  10    -0.671154617285E+03   -0.17808E-03   -0.80765E-05 13856   0.129E-02    0.444E-02
RMM:  11    -0.671154860409E+03   -0.24312E-03   -0.29529E-05 12858   0.836E-03    0.278E-02
RMM:  12    -0.671155029803E+03   -0.16939E-03   -0.16857E-05 12374   0.616E-03    0.217E-02
RMM:  13    -0.671155190493E+03   -0.16069E-03   -0.11214E-05 12031   0.513E-03    0.184E-02
RMM:  14    -0.671155279643E+03   -0.89150E-04   -0.60255E-06 11103   0.385E-03
   5 F= -.67115528E+03 E0= -.67074048E+03  d E =-.837550E+00  mag=    80.0399
       N       E                     dE             d eps       ncg     rms          rms(c)
DAV:   1    -0.671176660438E+03   -0.21470E-01   -0.35767E+00 26064   0.173E+00    0.646E-01
RMM:   2    -0.671183806551E+03   -0.71461E-02   -0.82947E-02 23965   0.298E-01    0.490E-01
RMM:   3    -0.671185064376E+03   -0.12578E-02   -0.13023E-02 22654   0.143E-01    0.616E-01
RMM:   4    -0.671183962030E+03    0.11023E-02   -0.36188E-03 21502   0.872E-02    0.245E-01
RMM:   5    -0.671183949073E+03    0.12957E-04   -0.10573E-03 19954   0.428E-02    0.182E-01
RMM:   6    -0.671184289705E+03   -0.34063E-03   -0.64197E-04 18738   0.318E-02    0.151E-01
RMM:   7    -0.671184622056E+03   -0.33235E-03   -0.29138E-04 17515   0.267E-02    0.124E-01
RMM:   8    -0.671184759189E+03   -0.13713E-03   -0.10117E-04 14386   0.158E-02    0.566E-02
RMM:   9    -0.671184852349E+03   -0.93160E-04   -0.34830E-05 13074   0.858E-03
   6 F= -.67118485E+03 E0= -.67077021E+03  d E =-.867123E+00  mag=    80.0374
       N       E                     dE             d eps       ncg     rms          rms(c)
DAV:   1    -0.671188401441E+03   -0.36423E-02   -0.22871E-01 26336   0.442E-01    0.166E-01
RMM:   2    -0.671188945936E+03   -0.54449E-03   -0.52110E-03 21513   0.768E-02    0.128E-01
RMM:   3    -0.671188975202E+03   -0.29267E-04   -0.82895E-04 18539   0.371E-02    0.156E-01
RMM:   4    -0.671188913124E+03    0.62079E-04   -0.23647E-04 15463   0.236E-02    0.667E-02
RMM:   5    -0.671188927245E+03   -0.14121E-04   -0.74230E-05 13280   0.120E-02    0.509E-02
RMM:   6    -0.671189020105E+03   -0.92860E-04   -0.43740E-05 12903   0.864E-03    0.344E-02
RMM:   7    -0.671189165846E+03   -0.14574E-03   -0.19612E-05 12513   0.670E-03    0.376E-02
RMM:   8    -0.671189230551E+03   -0.64705E-04   -0.74864E-06 11920   0.482E-03
   7 F= -.67118923E+03 E0= -.67077467E+03  d E =-.871501E+00  mag=    80.0352
       N       E                     dE             d eps       ncg     rms          rms(c)
DAV:   1    -0.671010755314E+03    0.17841E+00   -0.50121E+01 25504   0.622E+00    0.240E+00
RMM:   2    -0.671121892478E+03   -0.11114E+00   -0.11473E+00 24322   0.100E+00    0.162E+00
RMM:   3    -0.671158710068E+03   -0.36818E-01   -0.18496E-01 24531   0.478E-01    0.220E+00
RMM:   4    -0.671142991391E+03    0.15719E-01   -0.36123E-02 23735   0.289E-01    0.866E-01
RMM:   5    -0.671146351941E+03   -0.33606E-02   -0.14061E-02 23461   0.154E-01    0.827E-01
RMM:   6    -0.671145924067E+03    0.42787E-03   -0.50142E-03 23014   0.998E-02    0.558E-01
RMM:   7    -0.671146444278E+03   -0.52021E-03   -0.36726E-03 22751   0.834E-02    0.460E-01
RMM:   8    -0.671146296457E+03    0.14782E-03   -0.11426E-03 21213   0.500E-02    0.234E-01
RMM:   9    -0.671146634859E+03   -0.33840E-03   -0.45264E-04 19021   0.316E-02    0.101E-01
RMM:  10    -0.671146952893E+03   -0.31803E-03   -0.21782E-04 16149   0.189E-02    0.627E-02
RMM:  11    -0.671147213417E+03   -0.26052E-03   -0.87464E-05 14582   0.124E-02    0.409E-02
RMM:  12    -0.671147365148E+03   -0.15173E-03   -0.40069E-05 13496   0.912E-03    0.334E-02
RMM:  13    -0.671147546432E+03   -0.18128E-03   -0.25866E-05 13028   0.798E-03    0.292E-02
RMM:  14    -0.671147655166E+03   -0.10873E-03   -0.13232E-05 12186   0.566E-03    0.144E-02
RMM:  15    -0.671147741687E+03   -0.86522E-04   -0.73389E-06 11464   0.403E-03
   8 F= -.67114774E+03 E0= -.67073057E+03  d E =0.414889E-01  mag=    80.0329
       N       E                     dE             d eps       ncg     rms          rms(c)
DAV:   1    -0.671187334192E+03   -0.39679E-01   -0.22758E+01 25792   0.413E+00    0.153E+00
RMM:   2    -0.671232147076E+03   -0.44813E-01   -0.45461E-01 24323   0.643E-01    0.963E-01
RMM:   3    -0.671244912313E+03   -0.12765E-01   -0.59859E-02 24323   0.268E-01    0.988E-01
RMM:   4    -0.671243861332E+03    0.10510E-02   -0.12276E-02 23219   0.165E-01    0.754E-01
RMM:   5    -0.671243805110E+03    0.56222E-04   -0.52986E-03 22833   0.104E-01    0.523E-01
RMM:   6    -0.671243399753E+03    0.40536E-03   -0.22461E-03 22306   0.689E-02    0.351E-01
RMM:   7    -0.671243363780E+03    0.35974E-04   -0.12555E-03 21297   0.540E-02    0.238E-01
RMM:   8    -0.671243181877E+03    0.18190E-03   -0.41775E-04 18478   0.308E-02    0.993E-02
RMM:   9    -0.671243136564E+03    0.45313E-04   -0.16390E-04 15736   0.184E-02
   9 F= -.67124314E+03 E0= -.67082790E+03  d E =-.539060E-01  mag=    80.0309
       N       E                     dE             d eps       ncg     rms          rms(c)
DAV:   1    -0.671154514359E+03    0.88668E-01   -0.14030E+01 25552   0.364E+00    0.150E+00
RMM:   2    -0.671180318946E+03   -0.25805E-01   -0.32176E-01 24320   0.662E-01    0.127E+00
RMM:   3    -0.671193349972E+03   -0.13031E-01   -0.65512E-02 24464   0.340E-01    0.146E+00
RMM:   4    -0.671186691423E+03    0.66585E-02   -0.16703E-02 23683   0.206E-01    0.588E-01
RMM:   5    -0.671187927006E+03   -0.12356E-02   -0.53176E-03 23221   0.910E-02    0.466E-01
RMM:   6    -0.671187938565E+03   -0.11559E-04   -0.19802E-03 22332   0.684E-02    0.372E-01
RMM:   7    -0.671187563955E+03    0.37461E-03   -0.12162E-03 21346   0.464E-02    0.215E-01
RMM:   8    -0.671187495639E+03    0.68316E-04   -0.48576E-04 19430   0.281E-02
  10 F= -.67118750E+03 E0= -.67077053E+03  d E =0.556409E-01  mag=    80.0301
       N       E                     dE             d eps       ncg     rms          rms(c)
DAV:   1    -0.671252805842E+03   -0.65242E-01   -0.75058E+00 26176   0.264E+00    0.109E+00
RMM:   2    -0.671264263863E+03   -0.11458E-01   -0.15868E-01 24320   0.482E-01    0.104E+00
RMM:   3    -0.671270660799E+03   -0.63969E-02   -0.34868E-02 24267   0.255E-01    0.107E+00
RMM:   4    -0.671267404250E+03    0.32565E-02   -0.92065E-03 22801   0.153E-01    0.429E-01
RMM:   5    -0.671267954595E+03   -0.55035E-03   -0.28100E-03 22273   0.689E-02    0.281E-01
RMM:   6    -0.671267893334E+03    0.61261E-04   -0.10387E-03 21408   0.474E-02    0.222E-01
RMM:   7    -0.671267741989E+03    0.15135E-03   -0.51972E-04 19752   0.337E-02    0.169E-01
RMM:   8    -0.671267532678E+03    0.20931E-03   -0.22535E-04 16765   0.197E-02    0.849E-02
RMM:   9    -0.671267515942E+03    0.16736E-04   -0.67062E-05 14504   0.115E-02
  11 F= -.67126752E+03 E0= -.67085190E+03  d E =-.243794E-01  mag=    80.0284
       N       E                     dE             d eps       ncg     rms          rms(c)
DAV:   1    -0.671161146641E+03    0.10639E+00   -0.92022E+00 25808   0.283E+00    0.102E+00
RMM:   2    -0.671178379682E+03   -0.17233E-01   -0.19261E-01 24320   0.463E-01    0.713E-01
RMM:   3    -0.671188770016E+03   -0.10390E-01   -0.30222E-02 24471   0.224E-01    0.910E-01
RMM:   4    -0.671186099223E+03    0.26708E-02   -0.72653E-03 22792   0.132E-01    0.353E-01
RMM:   5    -0.671186004869E+03    0.94354E-04   -0.19865E-03 22034   0.576E-02    0.253E-01
RMM:   6    -0.671186200445E+03   -0.19558E-03   -0.98525E-04 21343   0.497E-02    0.292E-01
RMM:   7    -0.671186019366E+03    0.18108E-03   -0.48041E-04 19457   0.333E-02    0.133E-01
RMM:   8    -0.671186020771E+03   -0.14054E-05   -0.17193E-04 16182   0.174E-02
  12 F= -.67118602E+03 E0= -.67077017E+03  d E =0.814952E-01  mag=    80.0270
       N       E                     dE             d eps       ncg     rms          rms(c)
DAV:   1    -0.671254876866E+03   -0.68858E-01   -0.25358E+00 25680   0.148E+00    0.535E-01
RMM:   2    -0.671259270800E+03   -0.43939E-02   -0.50290E-02 24322   0.244E-01    0.411E-01
RMM:   3    -0.671261844544E+03   -0.25737E-02   -0.84746E-03 23084   0.123E-01    0.513E-01
RMM:   4    -0.671260990904E+03    0.85364E-03   -0.21276E-03 21180   0.731E-02    0.180E-01
RMM:   5    -0.671261129335E+03   -0.13843E-03   -0.56283E-04 19108   0.318E-02    0.116E-01
RMM:   6    -0.671261206722E+03   -0.77388E-04   -0.29115E-04 18085   0.270E-02    0.137E-01
RMM:   7    -0.671261164249E+03    0.42473E-04   -0.12472E-04 15245   0.189E-02    0.691E-02
RMM:   8    -0.671261142245E+03    0.22003E-04   -0.39130E-05 13637   0.875E-03
  13 F= -.67126114E+03 E0= -.67084548E+03  d E =0.637370E-02  mag=    80.0256
       N       E                     dE             d eps       ncg     rms          rms(c)
DAV:   1    -0.671277115268E+03   -0.15951E-01   -0.56738E-01 26496   0.702E-01    0.252E-01
RMM:   2    -0.671278308834E+03   -0.11936E-02   -0.11312E-02 23972   0.116E-01    0.179E-01
RMM:   3    -0.671278763242E+03   -0.45441E-03   -0.18234E-03 20753   0.567E-02    0.228E-01
RMM:   4    -0.671278605703E+03    0.15754E-03   -0.45842E-04 18306   0.343E-02    0.910E-02
RMM:   5    -0.671278697920E+03   -0.92217E-04   -0.13089E-04 15197   0.157E-02    0.746E-02
RMM:   6    -0.671278741154E+03   -0.43234E-04   -0.71618E-05 14214   0.142E-02    0.686E-02
RMM:   7    -0.671278767130E+03   -0.25976E-04   -0.29060E-05 13407   0.879E-03    0.330E-02
RMM:   8    -0.671278780657E+03   -0.13527E-04   -0.10201E-05 12226   0.492E-03
  14 F= -.67127878E+03 E0= -.67086316E+03  d E =-.112647E-01  mag=    80.0243
       N       E                     dE             d eps       ncg     rms          rms(c)
DAV:   1    -0.671279000898E+03   -0.23377E-03   -0.57923E-03 25792   0.720E-02    0.270E-02
RMM:   2    -0.671279054680E+03   -0.53782E-04   -0.12485E-04 15078   0.129E-02    0.238E-02
RMM:   3    -0.671279077848E+03   -0.23168E-04   -0.20766E-05 12575   0.737E-03    0.220E-02
RMM:   4    -0.671279097922E+03   -0.20074E-04   -0.48439E-06 11331   0.421E-03    0.110E-02
RMM:   5    -0.671279136925E+03   -0.39002E-04   -0.12372E-06  7876   0.248E-03    0.957E-03
RMM:   6    -0.671279174326E+03   -0.37401E-04   -0.83917E-07  7471   0.234E-03    0.821E-03
RMM:   7    -0.671279209487E+03   -0.35161E-04   -0.25135E-07  6195   0.209E-03    0.594E-03
RMM:   8    -0.671279230957E+03   -0.21471E-04   -0.32671E-08  5295   0.192E-03
  15 F= -.67127923E+03 E0= -.67086358E+03  d E =-.117150E-01  mag=    80.0231
       N       E                     dE             d eps       ncg     rms          rms(c)
DAV:   1    -0.671276062194E+03    0.31473E-02   -0.11802E+00 25536   0.112E+00    0.394E-01
RMM:   2    -0.671278320303E+03   -0.22581E-02   -0.28238E-02 24044   0.220E-01    0.347E-01
RMM:   3    -0.671279486857E+03   -0.11666E-02   -0.52599E-03 22521   0.984E-02    0.363E-01
RMM:   4    -0.671279109091E+03    0.37777E-03   -0.15103E-03 20836   0.616E-02    0.193E-01
RMM:   5    -0.671279231213E+03   -0.12212E-03   -0.49149E-04 18676   0.303E-02    0.121E-01
RMM:   6    -0.671279247175E+03   -0.15962E-04   -0.19030E-04 16155   0.199E-02    0.108E-01
RMM:   7    -0.671279210731E+03    0.36444E-04   -0.89950E-05 14346   0.148E-02    0.597E-02
RMM:   8    -0.671279195729E+03    0.15002E-04   -0.40151E-05 13299   0.909E-03
  16 F= -.67127920E+03 E0= -.67086413E+03  d E =0.352282E-04  mag=    80.0216
       N       E                     dE             d eps       ncg     rms          rms(c)
DAV:   1    -0.671284986820E+03   -0.57761E-02   -0.28885E-01 26448   0.553E-01    0.199E-01
RMM:   2    -0.671285898561E+03   -0.91174E-03   -0.70342E-03 22986   0.110E-01    0.180E-01
RMM:   3    -0.671286311749E+03   -0.41319E-03   -0.13088E-03 20391   0.499E-02    0.183E-01
RMM:   4    -0.671286306147E+03    0.56024E-05   -0.37215E-04 17481   0.311E-02    0.969E-02
RMM:   5    -0.671286343171E+03   -0.37024E-04   -0.12048E-04 14554   0.157E-02    0.644E-02
RMM:   6    -0.671286375176E+03   -0.32005E-04   -0.48412E-05 13342   0.111E-02    0.535E-02
RMM:   7    -0.671286406666E+03   -0.31489E-04   -0.22749E-05 12609   0.752E-03    0.293E-02
RMM:   8    -0.671286455307E+03   -0.48642E-04   -0.95821E-06 11575   0.471E-03
  17 F= -.67128646E+03 E0= -.67087110E+03  d E =-.722435E-02  mag=    80.0205
       N       E                     dE             d eps       ncg     rms          rms(c)
DAV:   1    -0.671296415241E+03   -0.10009E-01   -0.25143E-01 26064   0.473E-01    0.173E-01
RMM:   2    -0.671297109282E+03   -0.69404E-03   -0.58725E-03 22554   0.847E-02    0.103E-01
RMM:   3    -0.671297324352E+03   -0.21507E-03   -0.70902E-04 18477   0.333E-02    0.815E-02
RMM:   4    -0.671297379614E+03   -0.55263E-04   -0.18654E-04 15390   0.207E-02    0.978E-02
RMM:   5    -0.671297390025E+03   -0.10411E-04   -0.59133E-05 13916   0.133E-02    0.504E-02
RMM:   6    -0.671297407407E+03   -0.17382E-04   -0.24594E-05 12889   0.792E-03    0.384E-02
RMM:   7    -0.671297432643E+03   -0.25237E-04   -0.16101E-05 12428   0.673E-03    0.224E-02
RMM:   8    -0.671297447166E+03   -0.14523E-04   -0.59257E-06 11437   0.443E-03
  18 F= -.67129745E+03 E0= -.67088235E+03  d E =-.109919E-01  mag=    80.0192
       N       E                     dE             d eps       ncg     rms          rms(c)
DAV:   1    -0.671258214235E+03    0.39218E-01   -0.22651E+00 25264   0.142E+00    0.520E-01
RMM:   2    -0.671263634778E+03   -0.54205E-02   -0.52762E-02 24297   0.254E-01    0.308E-01
RMM:   3    -0.671265277422E+03   -0.16426E-02   -0.65379E-03 23321   0.976E-02    0.204E-01
RMM:   4    -0.671265517105E+03   -0.23968E-03   -0.14384E-03 21943   0.563E-02    0.259E-01
RMM:   5    -0.671265402391E+03    0.11471E-03   -0.49228E-04 19843   0.367E-02    0.121E-01
RMM:   6    -0.671265488175E+03   -0.85784E-04   -0.24904E-04 17227   0.222E-02    0.137E-01
RMM:   7    -0.671265463507E+03    0.24667E-04   -0.12720E-04 15147   0.183E-02    0.693E-02
RMM:   8    -0.671265470109E+03   -0.66017E-05   -0.42662E-05 13719   0.107E-02
  19 F= -.67126547E+03 E0= -.67085108E+03  d E =0.209852E-01  mag=    80.0178
       N       E                     dE             d eps       ncg     rms          rms(c)
DAV:   1    -0.671298321274E+03   -0.32858E-01   -0.13624E+00 26704   0.109E+00    0.407E-01
RMM:   2    -0.671301389414E+03   -0.30681E-02   -0.31318E-02 24166   0.197E-01    0.240E-01
RMM:   3    -0.671302262589E+03   -0.87317E-03   -0.40480E-03 22513   0.782E-02    0.203E-01
RMM:   4    -0.671302266091E+03   -0.35022E-05   -0.99026E-04 20769   0.484E-02    0.205E-01
RMM:   5    -0.671302148827E+03    0.11726E-03   -0.35658E-04 18052   0.292E-02    0.110E-01
RMM:   6    -0.671302160031E+03   -0.11204E-04   -0.15612E-04 15437   0.188E-02    0.909E-02
RMM:   7    -0.671302172552E+03   -0.12521E-04   -0.90165E-05 14351   0.149E-02    0.594E-02
RMM:   8    -0.671302198500E+03   -0.25949E-04   -0.28119E-05 13209   0.885E-03
  20 F= -.67130220E+03 E0= -.67088730E+03  d E =-.157432E-01  mag=    80.0166
       N       E                     dE             d eps       ncg     rms          rms(c)
DAV:   1    -0.671308811279E+03   -0.66387E-02   -0.12080E-01 26192   0.299E-01    0.122E-01
RMM:   2    -0.671309271147E+03   -0.45987E-03   -0.30185E-03 20259   0.505E-02    0.130E-01
RMM:   3    -0.671309359493E+03   -0.88347E-04   -0.47702E-04 17489   0.302E-02    0.125E-01
RMM:   4    -0.671309361162E+03   -0.16689E-05   -0.11724E-04 14170   0.172E-02    0.424E-02
RMM:   5    -0.671309424796E+03   -0.63634E-04   -0.34100E-05 12968   0.791E-03    0.396E-02
RMM:   6    -0.671309457878E+03   -0.33082E-04   -0.17281E-05 12515   0.637E-03    0.360E-02
RMM:   7    -0.671309473991E+03   -0.16113E-04   -0.87484E-06 11999   0.489E-03    0.151E-02
RMM:   8    -0.671309487988E+03   -0.13997E-04   -0.23226E-06  9954   0.311E-03
  21 F= -.67130949E+03 E0= -.67089461E+03  d E =-.728949E-02  mag=    80.0156
       N       E                     dE             d eps       ncg     rms          rms(c)
DAV:   1    -0.671309793684E+03   -0.31969E-03   -0.55652E-03 25968   0.640E-02    0.252E-02
RMM:   2    -0.671309830839E+03   -0.37155E-04   -0.13584E-04 14722   0.108E-02    0.226E-02
RMM:   3    -0.671309847794E+03   -0.16955E-04   -0.19383E-05 12200   0.631E-03    0.257E-02
RMM:   4    -0.671309856357E+03   -0.85630E-05   -0.46127E-06 10481   0.387E-03    0.100E-02
RMM:   5    -0.671309872296E+03   -0.15939E-04   -0.95615E-07  7000   0.230E-03    0.949E-03
RMM:   6    -0.671309885251E+03   -0.12955E-04   -0.51182E-07  6470   0.209E-03    0.654E-03
RMM:   7    -0.671309898885E+03   -0.13634E-04   -0.14691E-07  5492   0.190E-03    0.580E-03
RMM:   8    -0.671309906374E+03   -0.74892E-05   -0.96964E-08  5312   0.192E-03
  22 F= -.67130991E+03 E0= -.67089505E+03  d E =-.770787E-02  mag=    80.0147
       N       E                     dE             d eps       ncg     rms          rms(c)
DAV:   1    -0.671313721587E+03   -0.38227E-02   -0.24305E-02 26688   0.157E-01    0.502E-02
RMM:   2    -0.671313800292E+03   -0.78705E-04   -0.54116E-04 17416   0.294E-02    0.464E-02
RMM:   3    -0.671313847425E+03   -0.47133E-04   -0.10824E-04 14048   0.142E-02    0.498E-02
RMM:   4    -0.671313861337E+03   -0.13912E-04   -0.27761E-05 12459   0.871E-03    0.268E-02
RMM:   5    -0.671313881495E+03   -0.20158E-04   -0.70280E-06 11284   0.434E-03    0.172E-02
RMM:   6    -0.671313892942E+03   -0.11447E-04   -0.27478E-06 10040   0.315E-03    0.136E-02
RMM:   7    -0.671313908634E+03   -0.15692E-04   -0.11438E-06  7909   0.248E-03    0.781E-03
RMM:   8    -0.671313923928E+03   -0.15295E-04   -0.17593E-07  5645   0.212E-03
  23 F= -.67131392E+03 E0= -.67089899E+03  d E =-.401755E-02  mag=    80.0138
       N       E                     dE             d eps       ncg     rms          rms(c)
DAV:   1    -0.671315723913E+03   -0.18153E-02   -0.48092E-02 26416   0.220E-01    0.704E-02
RMM:   2    -0.671315851795E+03   -0.12788E-03   -0.10718E-03 19155   0.412E-02    0.647E-02
RMM:   3    -0.671315930588E+03   -0.78794E-04   -0.21251E-04 15147   0.194E-02    0.686E-02
RMM:   4    -0.671315945289E+03   -0.14700E-04   -0.55964E-05 13331   0.123E-02    0.391E-02
RMM:   5    -0.671315972299E+03   -0.27011E-04   -0.14965E-05 12214   0.606E-03    0.252E-02
RMM:   6    -0.671315984556E+03   -0.12257E-04   -0.61460E-06 11598   0.431E-03    0.193E-02
RMM:   7    -0.671316002260E+03   -0.17704E-04   -0.31493E-06 10108   0.318E-03    0.107E-02
RMM:   8    -0.671316018925E+03   -0.16665E-04   -0.87894E-07  7246   0.241E-03
  24 F= -.67131602E+03 E0= -.67090097E+03  d E =-.611255E-02  mag=    80.0130
       N       E                     dE             d eps       ncg     rms          rms(c)
DAV:   1    -0.671316391992E+03   -0.38973E-03   -0.25088E-03 26384   0.576E-02    0.225E-02
RMM:   2    -0.671316398826E+03   -0.68345E-05   -0.66488E-05 14814   0.119E-02    0.219E-02
RMM:   3    -0.671316399257E+03   -0.43074E-06   -0.11693E-05 12716   0.594E-03    0.181E-02
RMM:   4    -0.671316399079E+03    0.17788E-06   -0.30620E-06 10795   0.358E-03    0.120E-02
RMM:   5    -0.671316404168E+03   -0.50883E-05   -0.49531E-07  6544   0.223E-03    0.940E-03
RMM:   6    -0.671316412235E+03   -0.80671E-05   -0.46276E-07  6674   0.224E-03    0.588E-03
RMM:   7    -0.671316420561E+03   -0.83260E-05   -0.51259E-08  5247   0.204E-03    0.358E-03
RMM:   8    -0.671316428437E+03   -0.78762E-05   -0.84661E-09  5011   0.201E-03
  25 F= -.67131643E+03 E0= -.67090138E+03  d E =-.409512E-03  mag=    80.0122
       N       E                     dE             d eps       ncg     rms          rms(c)
DAV:   1    -0.671316695830E+03   -0.27527E-03   -0.94012E-03 27088   0.111E-01    0.426E-02
RMM:   2    -0.671316709717E+03   -0.13887E-04   -0.23826E-04 16163   0.225E-02    0.310E-02
RMM:   3    -0.671316707380E+03    0.23376E-05   -0.37491E-05 14353   0.967E-03    0.264E-02
RMM:   4    -0.671316707095E+03    0.28498E-06   -0.96282E-06 12547   0.559E-03    0.222E-02
RMM:   5    -0.671316709767E+03   -0.26724E-05   -0.42484E-06 11432   0.374E-03    0.161E-02
RMM:   6    -0.671316717923E+03   -0.81556E-05   -0.21055E-06  9492   0.291E-03    0.990E-03
RMM:   7    -0.671316728402E+03   -0.10479E-04   -0.79212E-07  7777   0.248E-03    0.536E-03
RMM:   8    -0.671316739176E+03   -0.10774E-04   -0.50246E-08  5340   0.202E-03
  26 F= -.67131674E+03 E0= -.67090168E+03  d E =-.720251E-03  mag=    80.0116
       N       E                     dE             d eps       ncg     rms          rms(c)
DAV:   1    -0.671317015885E+03   -0.28748E-03   -0.27084E-03 26544   0.598E-02    0.285E-02
RMM:   2    -0.671317044671E+03   -0.28785E-04   -0.60295E-05 14743   0.129E-02    0.177E-02
RMM:   3    -0.671317055841E+03   -0.11171E-04   -0.88957E-06 13296   0.552E-03    0.135E-02
RMM:   4    -0.671317061611E+03   -0.57691E-05   -0.25836E-06 10444   0.329E-03    0.101E-02
RMM:   5    -0.671317073914E+03   -0.12304E-04   -0.58749E-07  6905   0.237E-03    0.716E-03
RMM:   6    -0.671317087166E+03   -0.13252E-04   -0.12692E-07  5501   0.216E-03    0.496E-03
RMM:   7    -0.671317098623E+03   -0.11457E-04   -0.58007E-08  5031   0.209E-03    0.366E-03
RMM:   8    -0.671317108155E+03   -0.95316E-05   -0.28188E-08  4922   0.209E-03
  27 F= -.67131711E+03 E0= -.67090204E+03  d E =-.368979E-03  mag=    80.0109
       N       E                     dE             d eps       ncg     rms          rms(c)
DAV:   1    -0.671317511670E+03   -0.41305E-03   -0.24372E-02 26784   0.179E-01    0.851E-02
RMM:   2    -0.671317634361E+03   -0.12269E-03   -0.52485E-04 19884   0.381E-02    0.532E-02
RMM:   3    -0.671317669648E+03   -0.35287E-04   -0.87872E-05 15040   0.156E-02    0.468E-02
RMM:   4    -0.671317667085E+03    0.25630E-05   -0.29462E-05 14109   0.101E-02    0.275E-02
RMM:   5    -0.671317675970E+03   -0.88853E-05   -0.10381E-05 12720   0.539E-03    0.202E-02
RMM:   6    -0.671317686111E+03   -0.10140E-04   -0.47150E-06 11676   0.397E-03    0.130E-02
RMM:   7    -0.671317697722E+03   -0.11611E-04   -0.28688E-06 10991   0.333E-03    0.946E-03
RMM:   8    -0.671317707529E+03   -0.98073E-05   -0.47159E-07  7141   0.239E-03
  28 F= -.67131771E+03 E0= -.67090262E+03  d E =-.968353E-03  mag=    80.0103
       N       E                     dE             d eps       ncg     rms          rms(c)
DAV:   1    -0.671316807109E+03    0.89061E-03   -0.97490E-02 26064   0.358E-01    0.170E-01
RMM:   2    -0.671317246674E+03   -0.43956E-03   -0.20712E-03 24150   0.758E-02    0.104E-01
RMM:   3    -0.671317367975E+03   -0.12130E-03   -0.35568E-04 18035   0.296E-02    0.843E-02
RMM:   4    -0.671317354217E+03    0.13757E-04   -0.10453E-04 15194   0.188E-02    0.571E-02
RMM:   5    -0.671317359922E+03   -0.57053E-05   -0.40597E-05 14332   0.104E-02    0.401E-02
RMM:   6    -0.671317365086E+03   -0.51637E-05   -0.18820E-05 13664   0.721E-03    0.269E-02
RMM:   7    -0.671317376925E+03   -0.11839E-04   -0.11890E-05 12862   0.589E-03    0.192E-02
RMM:   8    -0.671317387549E+03   -0.10624E-04   -0.36440E-06 11567   0.381E-03
  29 F= -.67131739E+03 E0= -.67090226E+03  d E =-.648373E-03  mag=    80.0097
       N       E                     dE             d eps       ncg     rms          rms(c)
DAV:   1    -0.671317623356E+03   -0.24643E-03   -0.47331E-02 27296   0.250E-01    0.118E-01
RMM:   2    -0.671317832701E+03   -0.20935E-03   -0.10005E-03 23098   0.528E-02    0.738E-02
RMM:   3    -0.671317901953E+03   -0.69252E-04   -0.16990E-04 15874   0.207E-02    0.651E-02
RMM:   4    -0.671317891832E+03    0.10121E-04   -0.51221E-05 14661   0.135E-02    0.399E-02
RMM:   5    -0.671317897471E+03   -0.56396E-05   -0.18773E-05 13281   0.702E-03    0.277E-02
RMM:   6    -0.671317903392E+03   -0.59213E-05   -0.92973E-06 12575   0.537E-03    0.175E-02
RMM:   7    -0.671317910869E+03   -0.74762E-05   -0.58391E-06 12124   0.434E-03    0.130E-02
RMM:   8    -0.671317916027E+03   -0.51581E-05   -0.14145E-06  9528   0.287E-03
  30 F= -.67131792E+03 E0= -.67090282E+03  d E =-.117685E-02  mag=    80.0092
       N       E                     dE             d eps       ncg     rms          rms(c)
DAV:   1    -0.671318176760E+03   -0.26589E-03   -0.30399E-03 27168   0.611E-02    0.316E-02
RMM:   2    -0.671318195329E+03   -0.18569E-04   -0.59327E-05 14793   0.127E-02    0.220E-02
RMM:   3    -0.671318204115E+03   -0.87856E-05   -0.12702E-05 13116   0.651E-03    0.268E-02
RMM:   4    -0.671318202868E+03    0.12470E-05   -0.43099E-06 10825   0.403E-03    0.729E-03
RMM:   5    -0.671318210329E+03   -0.74618E-05   -0.68401E-07  6908   0.231E-03    0.676E-03
RMM:   6    -0.671318217382E+03   -0.70529E-05   -0.16555E-07  5785   0.211E-03    0.420E-03
RMM:   7    -0.671318223396E+03   -0.60140E-05   -0.51378E-08  4912   0.204E-03    0.346E-03
RMM:   8    -0.671318228818E+03   -0.54217E-05   -0.50103E-08  4707   0.205E-03
  31 F= -.67131823E+03 E0= -.67090313E+03  d E =-.312791E-03  mag=    80.0087
       N       E                     dE             d eps       ncg     rms          rms(c)
DAV:   1    -0.671318584125E+03   -0.36073E-03   -0.27299E-02 26640   0.183E-01    0.943E-02
RMM:   2    -0.671318698633E+03   -0.11451E-03   -0.51657E-04 19711   0.371E-02    0.574E-02
RMM:   3    -0.671318738958E+03   -0.40325E-04   -0.93958E-05 15166   0.165E-02    0.579E-02
RMM:   4    -0.671318728590E+03    0.10368E-04   -0.36939E-05 14033   0.110E-02    0.244E-02
RMM:   5    -0.671318733883E+03   -0.52927E-05   -0.12134E-05 12631   0.572E-03    0.212E-02
RMM:   6    -0.671318737790E+03   -0.39074E-05   -0.54084E-06 11581   0.422E-03    0.127E-02
RMM:   7    -0.671318745176E+03   -0.73859E-05   -0.26575E-06 10594   0.333E-03    0.937E-03
RMM:   8    -0.671318750370E+03   -0.51940E-05   -0.37308E-07  6546   0.230E-03
  32 F= -.67131875E+03 E0= -.67090365E+03  d E =-.834343E-03  mag=    80.0082
       N       E                     dE             d eps       ncg     rms          rms(c)
DAV:   1    -0.671317828790E+03    0.91639E-03   -0.10914E-01 25664   0.365E-01    0.189E-01
RMM:   2    -0.671318281933E+03   -0.45314E-03   -0.20531E-03 24011   0.741E-02    0.116E-01
RMM:   3    -0.671318442690E+03   -0.16076E-03   -0.38763E-04 18207   0.323E-02    0.120E-01
RMM:   4    -0.671318392565E+03    0.50125E-04   -0.14242E-04 15722   0.215E-02    0.485E-02
RMM:   5    -0.671318397728E+03   -0.51637E-05   -0.50569E-05 14482   0.112E-02    0.440E-02
RMM:   6    -0.671318395588E+03    0.21402E-05   -0.21528E-05 13838   0.799E-03    0.270E-02
RMM:   7    -0.671318404216E+03   -0.86278E-05   -0.10839E-05 12853   0.568E-03    0.214E-02
RMM:   8    -0.671318409365E+03   -0.51488E-05   -0.35282E-06 11547   0.359E-03
  33 F= -.67131841E+03 E0= -.67090330E+03  d E =-.493338E-03  mag=    80.0077
       N       E                     dE             d eps       ncg     rms          rms(c)
DAV:   1    -0.671318558399E+03   -0.15418E-03   -0.52670E-02 27776   0.254E-01    0.131E-01
RMM:   2    -0.671318791559E+03   -0.23316E-03   -0.98494E-04 22583   0.513E-02    0.770E-02
RMM:   3    -0.671318878721E+03   -0.87161E-04   -0.16927E-04 15962   0.213E-02    0.714E-02
RMM:   4    -0.671318871591E+03    0.71293E-05   -0.63756E-05 14777   0.147E-02    0.357E-02
RMM:   5    -0.671318881774E+03   -0.10183E-04   -0.23881E-05 13146   0.777E-03    0.269E-02
RMM:   6    -0.671318888486E+03   -0.67125E-05   -0.10055E-05 12621   0.531E-03    0.154E-02
RMM:   7    -0.671318892563E+03   -0.40769E-05   -0.48468E-06 11763   0.417E-03    0.130E-02
RMM:   8    -0.671318895217E+03   -0.26543E-05   -0.13290E-06  9091   0.281E-03
  34 F= -.67131890E+03 E0= -.67090378E+03  d E =-.979191E-03  mag=    80.0072
       N       E                     dE             d eps       ncg     rms          rms(c)
DAV:   1    -0.671319276614E+03   -0.38405E-03   -0.10590E-02 27104   0.116E-01    0.596E-02
RMM:   2    -0.671319326429E+03   -0.49815E-04   -0.21099E-04 16337   0.234E-02    0.363E-02
RMM:   3    -0.671319343002E+03   -0.16573E-04   -0.32214E-05 14544   0.103E-02    0.309E-02
RMM:   4    -0.671319341114E+03    0.18878E-05   -0.97943E-06 12623   0.605E-03    0.197E-02
RMM:   5    -0.671319340181E+03    0.93319E-06   -0.32376E-06 11323   0.340E-03    0.137E-02
RMM:   6    -0.671319341090E+03   -0.90897E-06   -0.16688E-06 10128   0.290E-03    0.871E-03
RMM:   7    -0.671319343567E+03   -0.24769E-05   -0.58104E-07  7671   0.248E-03    0.418E-03
RMM:   8    -0.671319347201E+03   -0.36345E-05   -0.52785E-08  5202   0.212E-03
  35 F= -.67131935E+03 E0= -.67090426E+03  d E =-.451984E-03  mag=    80.0067
       N       E                     dE             d eps       ncg     rms          rms(c)
DAV:   1    -0.671319432079E+03   -0.88512E-04   -0.59129E-02 26768   0.273E-01    0.141E-01
RMM:   2    -0.671319689461E+03   -0.25738E-03   -0.11643E-03 23295   0.552E-02    0.822E-02
RMM:   3    -0.671319766313E+03   -0.76852E-04   -0.17965E-04 15877   0.214E-02    0.499E-02
RMM:   4    -0.671319763095E+03    0.32182E-05   -0.58153E-05 14622   0.146E-02    0.483E-02
RMM:   5    -0.671319745912E+03    0.17183E-04   -0.21950E-05 13876   0.834E-03    0.283E-02
RMM:   6    -0.671319740880E+03    0.50324E-05   -0.11377E-05 13089   0.593E-03    0.245E-02
RMM:   7    -0.671319739021E+03    0.18585E-05   -0.55433E-06 12308   0.440E-03    0.122E-02
RMM:   8    -0.671319741253E+03   -0.22314E-05   -0.94379E-07  8820   0.256E-03
  36 F= -.67131974E+03 E0= -.67090469E+03  d E =-.846035E-03  mag=    80.0062
       N       E                     dE             d eps       ncg     rms          rms(c)
DAV:   1    -0.671320071087E+03   -0.33207E-03   -0.70002E-03 27072   0.958E-02    0.509E-02
RMM:   2    -0.671320109365E+03   -0.38278E-04   -0.14187E-04 15647   0.194E-02    0.307E-02
RMM:   3    -0.671320122323E+03   -0.12957E-04   -0.20967E-05 14467   0.861E-03    0.235E-02
RMM:   4    -0.671320121323E+03    0.99931E-06   -0.64793E-06 12191   0.493E-03    0.178E-02
RMM:   5    -0.671320122541E+03   -0.12182E-05   -0.22765E-06 10933   0.313E-03    0.117E-02
RMM:   6    -0.671320123593E+03   -0.10519E-05   -0.90533E-07  8674   0.263E-03    0.643E-03
RMM:   7    -0.671320125303E+03   -0.17094E-05   -0.15556E-07  6077   0.228E-03    0.319E-03
RMM:   8    -0.671320127230E+03   -0.19274E-05   -0.16993E-08  4903   0.215E-03
  37 F= -.67132013E+03 E0= -.67090508E+03  d E =-.385977E-03  mag=    80.0057
       N       E                     dE             d eps       ncg     rms          rms(c)
DAV:   1    -0.671320684135E+03   -0.55883E-03   -0.63047E-02 26368   0.287E-01    0.152E-01
RMM:   2    -0.671320991836E+03   -0.30770E-03   -0.12227E-03 23625   0.578E-02    0.906E-02
RMM:   3    -0.671321075137E+03   -0.83301E-04   -0.19248E-04 16230   0.236E-02    0.679E-02
RMM:   4    -0.671321069468E+03    0.56685E-05   -0.75959E-05 14767   0.167E-02    0.482E-02
RMM:   5    -0.671321063442E+03    0.60261E-05   -0.29063E-05 14171   0.912E-03    0.306E-02
RMM:   6    -0.671321062116E+03    0.13257E-05   -0.14911E-05 13555   0.661E-03    0.243E-02
RMM:   7    -0.671321059105E+03    0.30114E-05   -0.72782E-06 12513   0.496E-03    0.135E-02
RMM:   8    -0.671321059152E+03   -0.47497E-07   -0.19455E-06 10918   0.299E-03
  38 F= -.67132106E+03 E0= -.67090601E+03  d E =-.131790E-02  mag=    80.0053
       N       E                     dE             d eps       ncg     rms          rms(c)
DAV:   1    -0.671320573684E+03    0.48542E-03   -0.25207E-01 25456   0.575E-01    0.305E-01
RMM:   2    -0.671321780581E+03   -0.12069E-02   -0.48676E-03 24277   0.115E-01    0.179E-01
RMM:   3    -0.671322092418E+03   -0.31184E-03   -0.75265E-04 22645   0.459E-02    0.115E-01
RMM:   4    -0.671322084464E+03    0.79535E-05   -0.24319E-04 17432   0.277E-02    0.104E-01
RMM:   5    -0.671322051689E+03    0.32776E-04   -0.10707E-04 15196   0.183E-02    0.640E-02
RMM:   6    -0.671322045756E+03    0.59325E-05   -0.54421E-05 14557   0.121E-02    0.512E-02
RMM:   7    -0.671322031124E+03    0.14632E-04   -0.27179E-05 14377   0.916E-03    0.258E-02
RMM:   8    -0.671322027559E+03    0.35656E-05   -0.84295E-06 13177   0.534E-03
  39 F= -.67132203E+03 E0= -.67090697E+03  d E =-.228631E-02  mag=    80.0049
       N       E                     dE             d eps       ncg     rms          rms(c)
DAV:   1    -0.671322386182E+03   -0.35506E-03   -0.10815E-02 27296   0.119E-01    0.658E-02
RMM:   2    -0.671322437842E+03   -0.51660E-04   -0.22167E-04 16810   0.242E-02    0.410E-02
RMM:   3    -0.671322449308E+03   -0.11466E-04   -0.34754E-05 14616   0.111E-02    0.304E-02
RMM:   4    -0.671322443611E+03    0.56964E-05   -0.13246E-05 13368   0.699E-03    0.215E-02
RMM:   5    -0.671322436237E+03    0.73742E-05   -0.46095E-06 12034   0.408E-03    0.159E-02
RMM:   6    -0.671322432401E+03    0.38361E-05   -0.22377E-06 10770   0.314E-03    0.111E-02
RMM:   7    -0.671322431264E+03    0.11376E-05   -0.68656E-07  7979   0.253E-03    0.380E-03
RMM:   8    -0.671322433927E+03   -0.26631E-05   -0.73195E-08  5525   0.219E-03
  40 F= -.67132243E+03 E0= -.67090737E+03  d E =-.406368E-03  mag=    80.0044
       N       E                     dE             d eps       ncg     rms          rms(c)
DAV:   1    -0.671322638163E+03   -0.20690E-03   -0.97307E-02 26512   0.356E-01    0.195E-01
RMM:   2    -0.671323116783E+03   -0.47862E-03   -0.18856E-03 23878   0.711E-02    0.116E-01
RMM:   3    -0.671323232671E+03   -0.11589E-03   -0.28962E-04 17705   0.293E-02    0.861E-02
RMM:   4    -0.671323214890E+03    0.17781E-04   -0.11249E-04 15273   0.202E-02    0.620E-02
RMM:   5    -0.671323185460E+03    0.29429E-04   -0.45229E-05 14565   0.116E-02    0.404E-02
RMM:   6    -0.671323174850E+03    0.10611E-04   -0.23439E-05 14209   0.823E-03    0.324E-02
RMM:   7    -0.671323169844E+03    0.50054E-05   -0.11512E-05 13318   0.611E-03    0.178E-02
RMM:   8    -0.671323173281E+03   -0.34370E-05   -0.33457E-06 11992   0.360E-03
  41 F= -.67132317E+03 E0= -.67090808E+03  d E =-.114572E-02  mag=    80.0040
       N       E                     dE             d eps       ncg     rms          rms(c)
DAV:   1    -0.671323135439E+03    0.34405E-04   -0.20627E-02 27648   0.164E-01    0.900E-02
RMM:   2    -0.671323240174E+03   -0.10474E-03   -0.40782E-04 19432   0.329E-02    0.538E-02
RMM:   3    -0.671323264854E+03   -0.24680E-04   -0.59749E-05 14710   0.139E-02    0.366E-02
RMM:   4    -0.671323260962E+03    0.38920E-05   -0.22461E-05 14237   0.928E-03    0.295E-02
RMM:   5    -0.671323252712E+03    0.82501E-05   -0.76885E-06 12735   0.509E-03    0.195E-02
RMM:   6    -0.671323251076E+03    0.16363E-05   -0.41358E-06 12074   0.375E-03    0.165E-02
RMM:   7    -0.671323250753E+03    0.32270E-06   -0.23156E-06 11519   0.309E-03    0.614E-03
RMM:   8    -0.671323254498E+03   -0.37453E-05   -0.55851E-08  5861   0.208E-03
  42 F= -.67132325E+03 E0= -.67090815E+03  d E =-.122694E-02  mag=    80.0036
       N       E                     dE             d eps       ncg     rms          rms(c)
DAV:   1    -0.671323895360E+03   -0.64461E-03   -0.37889E-03 27232   0.760E-02    0.324E-02
RMM:   2    -0.671323911070E+03   -0.15710E-04   -0.88912E-05 14790   0.156E-02    0.221E-02
RMM:   3    -0.671323915760E+03   -0.46892E-05   -0.14729E-05 14319   0.743E-03    0.237E-02
RMM:   4    -0.671323913372E+03    0.23874E-05   -0.40717E-06 12070   0.412E-03    0.112E-02
RMM:   5    -0.671323912125E+03    0.12475E-05   -0.55279E-07  7460   0.236E-03    0.725E-03
RMM:   6    -0.671323912758E+03   -0.63330E-06   -0.16741E-07  6272   0.225E-03    0.481E-03
RMM:   7    -0.671323916505E+03   -0.37472E-05   -0.15029E-07  5608   0.221E-03    0.381E-03
RMM:   8    -0.671323920454E+03   -0.39488E-05   -0.18709E-07  5770   0.219E-03
  43 F= -.67132392E+03 E0= -.67090880E+03  d E =-.665956E-03  mag=    80.0032
       N       E                     dE             d eps       ncg     rms          rms(c)
DAV:   1    -0.671324959581E+03   -0.10431E-02   -0.34129E-02 27456   0.228E-01    0.969E-02
RMM:   2    -0.671325082625E+03   -0.12304E-03   -0.76519E-04 23289   0.460E-02    0.597E-02
RMM:   3    -0.671325124390E+03   -0.41766E-04   -0.12661E-04 14932   0.186E-02    0.575E-02
RMM:   4    -0.671325107289E+03    0.17101E-04   -0.38547E-05 14493   0.125E-02    0.318E-02
RMM:   5    -0.671325093667E+03    0.13622E-04   -0.13256E-05 13582   0.597E-03    0.223E-02
RMM:   6    -0.671325085592E+03    0.80741E-05   -0.66023E-06 12334   0.482E-03    0.150E-02
RMM:   7    -0.671325085590E+03    0.23283E-08   -0.43868E-06 12216   0.388E-03    0.112E-02
RMM:   8    -0.671325090305E+03   -0.47148E-05   -0.13019E-06  9713   0.275E-03
  44 F= -.67132509E+03 E0= -.67090994E+03  d E =-.183581E-02  mag=    80.0028
       N       E                     dE             d eps       ncg     rms          rms(c)
DAV:   1    -0.671323475042E+03    0.16105E-02   -0.13657E-01 27408   0.456E-01    0.194E-01
RMM:   2    -0.671323991037E+03   -0.51599E-03   -0.30483E-03 24180   0.918E-02    0.117E-01
RMM:   3    -0.671324147528E+03   -0.15649E-03   -0.50832E-04 21685   0.365E-02    0.977E-02
RMM:   4    -0.671324106218E+03    0.41310E-04   -0.11971E-04 15237   0.196E-02    0.681E-02
RMM:   5    -0.671324064682E+03    0.41536E-04   -0.50529E-05 14536   0.123E-02    0.461E-02
RMM:   6    -0.671324039448E+03    0.25235E-04   -0.25218E-05 14353   0.871E-03    0.307E-02
RMM:   7    -0.671324032865E+03    0.65831E-05   -0.17152E-05 13807   0.718E-03    0.224E-02
RMM:   8    -0.671324038232E+03   -0.53677E-05   -0.65479E-06 12446   0.475E-03
  45 F= -.67132404E+03 E0= -.67090882E+03  d E =-.783734E-03  mag=    80.0024
       N       E                     dE             d eps       ncg     rms          rms(c)
DAV:   1    -0.671324824827E+03   -0.79196E-03   -0.69799E-02 27840   0.326E-01    0.139E-01
RMM:   2    -0.671325104096E+03   -0.27927E-03   -0.15476E-03 24006   0.656E-02    0.870E-02
RMM:   3    -0.671325241526E+03   -0.13743E-03   -0.25759E-04 16695   0.265E-02    0.832E-02
RMM:   4    -0.671325232934E+03    0.85915E-05   -0.74768E-05 14735   0.171E-02    0.470E-02
RMM:   5    -0.671325259372E+03   -0.26437E-04   -0.27648E-05 14180   0.862E-03    0.312E-02
RMM:   6    -0.671325281181E+03   -0.21809E-04   -0.13563E-05 13292   0.656E-03    0.216E-02
RMM:   7    -0.671325297800E+03   -0.16619E-04   -0.89155E-06 12710   0.535E-03    0.167E-02
RMM:   8    -0.671325302802E+03   -0.50017E-05   -0.29936E-06 11566   0.356E-03
  46 F= -.67132530E+03 E0= -.67091013E+03  d E =-.204830E-02  mag=    80.0021
       N       E                     dE             d eps       ncg     rms          rms(c)
DAV:   1    -0.671325911130E+03   -0.61333E-03   -0.44501E-03 26992   0.796E-02    0.399E-02
RMM:   2    -0.671325937048E+03   -0.25918E-04   -0.93618E-05 14920   0.167E-02    0.252E-02
RMM:   3    -0.671325954547E+03   -0.17499E-04   -0.14890E-05 14329   0.760E-03    0.242E-02
RMM:   4    -0.671325954968E+03   -0.42096E-06   -0.44921E-06 11878   0.431E-03    0.117E-02
RMM:   5    -0.671325963296E+03   -0.83288E-05   -0.10974E-06  8946   0.259E-03    0.865E-03
RMM:   6    -0.671325969971E+03   -0.66743E-05   -0.44761E-07  7208   0.237E-03    0.589E-03
RMM:   7    -0.671325974136E+03   -0.41653E-05   -0.19975E-07  5979   0.223E-03    0.357E-03
RMM:   8    -0.671325977648E+03   -0.35120E-05   -0.89765E-08  5341   0.212E-03
  47 F= -.67132598E+03 E0= -.67091079E+03  d E =-.674847E-03  mag=    80.0017
       N       E                     dE             d eps       ncg     rms          rms(c)
DAV:   1    -0.671327253555E+03   -0.12794E-02   -0.39936E-02 27200   0.238E-01    0.120E-01
RMM:   2    -0.671327445838E+03   -0.19228E-03   -0.81544E-04 23456   0.493E-02    0.702E-02
RMM:   3    -0.671327531566E+03   -0.85728E-04   -0.12830E-04 15092   0.191E-02    0.563E-02
RMM:   4    -0.671327528502E+03    0.30645E-05   -0.40673E-05 14517   0.127E-02    0.400E-02
RMM:   5    -0.671327535314E+03   -0.68122E-05   -0.15543E-05 13900   0.662E-03    0.262E-02
RMM:   6    -0.671327538860E+03   -0.35455E-05   -0.87880E-06 12697   0.549E-03    0.168E-02
RMM:   7    -0.671327540203E+03   -0.13434E-05   -0.50834E-06 12431   0.413E-03    0.105E-02
RMM:   8    -0.671327538627E+03    0.15763E-05   -0.10796E-06  9501   0.265E-03
  48 F= -.67132754E+03 E0= -.67091230E+03  d E =-.223583E-02  mag=    80.0015
       N       E                     dE             d eps       ncg     rms          rms(c)
DAV:   1    -0.671327808755E+03   -0.26855E-03   -0.15968E-01 27344   0.476E-01    0.239E-01
RMM:   2    -0.671328562484E+03   -0.75373E-03   -0.32474E-03 24186   0.983E-02    0.139E-01
RMM:   3    -0.671328842823E+03   -0.28034E-03   -0.53263E-04 22123   0.381E-02    0.103E-01
RMM:   4    -0.671328828757E+03    0.14067E-04   -0.12979E-04 15590   0.203E-02    0.829E-02
RMM:   5    -0.671328818492E+03    0.10265E-04   -0.58972E-05 14643   0.134E-02    0.539E-02
RMM:   6    -0.671328811127E+03    0.73649E-05   -0.34317E-05 14449   0.101E-02    0.349E-02
RMM:   7    -0.671328804155E+03    0.69723E-05   -0.19697E-05 14135   0.769E-03    0.205E-02
RMM:   8    -0.671328796099E+03    0.80555E-05   -0.60399E-06 12421   0.466E-03
  49 F= -.67132880E+03 E0= -.67091346E+03  d E =-.349330E-02  mag=    80.0014
       N       E                     dE             d eps       ncg     rms          rms(c)
DAV:   1    -0.671329934774E+03   -0.11306E-02   -0.24300E-02 27744   0.177E-01    0.986E-02
RMM:   2    -0.671330042300E+03   -0.10753E-03   -0.45433E-04 20067   0.353E-02    0.570E-02
RMM:   3    -0.671330085284E+03   -0.42984E-04   -0.70584E-05 14709   0.153E-02    0.474E-02
RMM:   4    -0.671330079661E+03    0.56233E-05   -0.28625E-05 14226   0.105E-02    0.250E-02
RMM:   5    -0.671330070169E+03    0.94920E-05   -0.91438E-06 12730   0.535E-03    0.185E-02
RMM:   6    -0.671330063293E+03    0.68755E-05   -0.46112E-06 11936   0.409E-03    0.142E-02
RMM:   7    -0.671330055437E+03    0.78562E-05   -0.22908E-06 11249   0.308E-03    0.750E-03
RMM:   8    -0.671330051732E+03    0.37048E-05   -0.42043E-08  5655   0.205E-03
  50 F= -.67133005E+03 E0= -.67091469E+03  d E =-.125563E-02  mag=    80.0013
       N       E                     dE             d eps       ncg     rms          rms(c)
DAV:   1    -0.671331048083E+03   -0.99265E-03   -0.21891E-01 26736   0.530E-01    0.294E-01
RMM:   2    -0.671332110714E+03   -0.10626E-02   -0.40120E-03 24150   0.105E-01    0.163E-01
RMM:   3    -0.671332455180E+03   -0.34447E-03   -0.59522E-04 21998   0.411E-02    0.997E-02
RMM:   4    -0.671332455422E+03   -0.24261E-06   -0.16608E-04 16240   0.231E-02    0.936E-02
RMM:   5    -0.671332417379E+03    0.38043E-04   -0.74401E-05 14755   0.151E-02    0.612E-02
RMM:   6    -0.671332391035E+03    0.26344E-04   -0.37735E-05 14395   0.105E-02    0.386E-02
RMM:   7    -0.671332368078E+03    0.22957E-04   -0.20492E-05 13965   0.790E-03    0.192E-02
RMM:   8    -0.671332355513E+03    0.12565E-04   -0.61489E-06 12427   0.468E-03
  51 F= -.67133236E+03 E0= -.67091690E+03  d E =-.355941E-02  mag=    80.0014
       N       E                     dE             d eps       ncg     rms          rms(c)
DAV:   1    -0.671332274583E+03    0.93495E-04   -0.53919E-02 28160   0.263E-01    0.146E-01
RMM:   2    -0.671332520992E+03   -0.24641E-03   -0.99322E-04 22979   0.522E-02    0.802E-02
RMM:   3    -0.671332607183E+03   -0.86191E-04   -0.14085E-04 15512   0.205E-02    0.492E-02
RMM:   4    -0.671332601177E+03    0.60061E-05   -0.51485E-05 14461   0.143E-02    0.414E-02
RMM:   5    -0.671332579174E+03    0.22003E-04   -0.19225E-05 13873   0.787E-03    0.216E-02
RMM:   6    -0.671332564763E+03    0.14410E-04   -0.10363E-05 12795   0.556E-03    0.225E-02
RMM:   7    -0.671332551363E+03    0.13400E-04   -0.49605E-06 12082   0.434E-03    0.965E-03
RMM:   8    -0.671332544236E+03    0.71269E-05   -0.66021E-07  7878   0.243E-03
  52 F= -.67133254E+03 E0= -.67091705E+03  d E =-.374814E-02  mag=    80.0017
       N       E                     dE             d eps       ncg     rms          rms(c)
DAV:   1    -0.671333977243E+03   -0.14259E-02   -0.50220E-02 27632   0.248E-01    0.145E-01
RMM:   2    -0.671334221918E+03   -0.24467E-03   -0.94665E-04 22532   0.495E-02    0.805E-02
RMM:   3    -0.671334298613E+03   -0.76694E-04   -0.12303E-04 15330   0.190E-02    0.418E-02
RMM:   4    -0.671334292670E+03    0.59423E-05   -0.46286E-05 14360   0.133E-02    0.444E-02
RMM:   5    -0.671334273775E+03    0.18896E-04   -0.19585E-05 13639   0.807E-03    0.227E-02
RMM:   6    -0.671334259144E+03    0.14631E-04   -0.10255E-05 12756   0.555E-03    0.198E-02
RMM:   7    -0.671334250078E+03    0.90664E-05   -0.45603E-06 11983   0.416E-03    0.998E-03
RMM:   8    -0.671334244457E+03    0.56210E-05   -0.66595E-07  7859   0.245E-03
  53 F= -.67133424E+03 E0= -.67091868E+03  d E =-.170022E-02  mag=    80.0020
       N       E                     dE             d eps       ncg     rms          rms(c)
DAV:   1    -0.671333868867E+03    0.38121E-03   -0.45213E-01 25344   0.745E-01    0.435E-01
RMM:   2    -0.671336222375E+03   -0.23535E-02   -0.84931E-03 24219   0.149E-01    0.247E-01
RMM:   3    -0.671336846420E+03   -0.62404E-03   -0.11774E-03 23737   0.586E-02    0.132E-01
RMM:   4    -0.671336835575E+03    0.10845E-04   -0.38741E-04 19457   0.340E-02    0.121E-01
RMM:   5    -0.671336783482E+03    0.52093E-04   -0.15649E-04 15838   0.211E-02    0.829E-02
RMM:   6    -0.671336746304E+03    0.37178E-04   -0.77589E-05 14723   0.144E-02    0.685E-02
RMM:   7    -0.671336698216E+03    0.48088E-04   -0.38186E-05 14424   0.107E-02    0.302E-02
RMM:   8    -0.671336683121E+03    0.15095E-04   -0.12728E-05 13457   0.646E-03
  54 F= -.67133668E+03 E0= -.67092097E+03  d E =-.413888E-02  mag=    80.0024
       N       E                     dE             d eps       ncg     rms          rms(c)
DAV:   1    -0.671337964732E+03   -0.12665E-02   -0.35987E-02 27920   0.233E-01    0.104E-01
RMM:   2    -0.671338099334E+03   -0.13460E-03   -0.79799E-04 22822   0.469E-02    0.661E-02
RMM:   3    -0.671338137294E+03   -0.37960E-04   -0.12632E-04 15042   0.191E-02    0.508E-02
RMM:   4    -0.671338129245E+03    0.80490E-05   -0.43100E-05 14244   0.132E-02    0.317E-02
RMM:   5    -0.671338120079E+03    0.91661E-05   -0.14845E-05 13243   0.651E-03    0.235E-02
RMM:   6    -0.671338111666E+03    0.84131E-05   -0.70252E-06 12554   0.469E-03    0.191E-02
RMM:   7    -0.671338101909E+03    0.97570E-05   -0.39407E-06 12113   0.358E-03    0.130E-02
RMM:   8    -0.671338095284E+03    0.66254E-05   -0.11417E-06  9461   0.267E-03
  55 F= -.67133810E+03 E0= -.67092238E+03  d E =-.141216E-02  mag=    80.0028
       N       E                     dE             d eps       ncg     rms          rms(c)
DAV:   1    -0.671338392895E+03   -0.29099E-03   -0.33693E-02 27616   0.226E-01    0.999E-02
RMM:   2    -0.671338526533E+03   -0.13364E-03   -0.74209E-04 22723   0.453E-02    0.646E-02
RMM:   3    -0.671338571238E+03   -0.44705E-04   -0.12092E-04 14929   0.186E-02    0.585E-02
RMM:   4    -0.671338560679E+03    0.10560E-04   -0.40258E-05 14219   0.128E-02    0.309E-02
RMM:   5    -0.671338558011E+03    0.26673E-05   -0.13333E-05 13169   0.596E-03    0.246E-02
RMM:   6    -0.671338554819E+03    0.31926E-05   -0.67683E-06 12350   0.485E-03    0.165E-02
RMM:   7    -0.671338551473E+03    0.33453E-05   -0.43574E-06 12228   0.380E-03    0.111E-02
RMM:   8    -0.671338548507E+03    0.29663E-05   -0.13610E-06 10103   0.280E-03
  56 F= -.67133855E+03 E0= -.67092283E+03  d E =-.186539E-02  mag=    80.0032
       N       E                     dE             d eps       ncg     rms          rms(c)
DAV:   1    -0.671339243834E+03   -0.69236E-03   -0.23967E-02 27376   0.192E-01    0.840E-02
RMM:   2    -0.671339335849E+03   -0.92015E-04   -0.54952E-04 21879   0.390E-02    0.554E-02
RMM:   3    -0.671339361235E+03   -0.25386E-04   -0.89778E-05 14755   0.160E-02    0.487E-02
RMM:   4    -0.671339355315E+03    0.59200E-05   -0.31159E-05 14193   0.111E-02    0.292E-02
RMM:   5    -0.671339352802E+03    0.25127E-05   -0.10720E-05 12874   0.552E-03    0.232E-02
RMM:   6    -0.671339351933E+03    0.86939E-06   -0.52789E-06 12081   0.430E-03    0.148E-02
RMM:   7    -0.671339352677E+03   -0.74413E-06   -0.34345E-06 12035   0.347E-03    0.991E-03
RMM:   8    -0.671339353331E+03   -0.65379E-06   -0.62489E-07  8092   0.250E-03
  57 F= -.67133935E+03 E0= -.67092366E+03  d E =-.804824E-03  mag=    80.0036
       N       E                     dE             d eps       ncg     rms          rms(c)
DAV:   1    -0.671339469685E+03   -0.11701E-03   -0.12692E-02 27648   0.140E-01    0.611E-02
RMM:   2    -0.671339519608E+03   -0.49923E-04   -0.29709E-04 17841   0.285E-02    0.397E-02
RMM:   3    -0.671339532685E+03   -0.13077E-04   -0.46254E-05 14465   0.124E-02    0.305E-02
RMM:   4    -0.671339532105E+03    0.57928E-06   -0.14840E-05 13324   0.746E-03    0.226E-02
RMM:   5    -0.671339532633E+03   -0.52759E-06   -0.57634E-06 12083   0.443E-03    0.167E-02
RMM:   6    -0.671339535223E+03   -0.25900E-05   -0.26040E-06 11150   0.320E-03    0.109E-02
RMM:   7    -0.671339538057E+03   -0.28345E-05   -0.13899E-06  9870   0.274E-03    0.666E-03
RMM:   8    -0.671339540618E+03   -0.25602E-05   -0.82212E-08  5663   0.218E-03
  58 F= -.67133954E+03 E0= -.67092387E+03  d E =-.992110E-03  mag=    80.0040
       N       E                     dE             d eps       ncg     rms          rms(c)
DAV:   1    -0.671340212917E+03   -0.67486E-03   -0.24264E-02 27040   0.190E-01    0.920E-02
RMM:   2    -0.671340322282E+03   -0.10936E-03   -0.56353E-04 21454   0.389E-02    0.600E-02
RMM:   3    -0.671340362639E+03   -0.40357E-04   -0.92624E-05 14885   0.163E-02    0.541E-02
RMM:   4    -0.671340357798E+03    0.48405E-05   -0.31086E-05 14328   0.110E-02    0.343E-02
RMM:   5    -0.671340365772E+03   -0.79740E-05   -0.10976E-05 13393   0.554E-03    0.249E-02
RMM:   6    -0.671340375325E+03   -0.95530E-05   -0.64225E-06 12383   0.482E-03    0.152E-02
RMM:   7    -0.671340385143E+03   -0.98180E-05   -0.37356E-06 12211   0.359E-03    0.100E-02
RMM:   8    -0.671340389023E+03   -0.38799E-05   -0.86767E-07  8869   0.259E-03
  59 F= -.67134039E+03 E0= -.67092474E+03  d E =-.848406E-03  mag=    80.0044
       N       E                     dE             d eps       ncg     rms          rms(c)
DAV:   1    -0.671340514591E+03   -0.12945E-03   -0.41784E-02 27136   0.249E-01    0.121E-01
RMM:   2    -0.671340700462E+03   -0.18587E-03   -0.96801E-04 23292   0.513E-02    0.772E-02
RMM:   3    -0.671340759683E+03   -0.59221E-04   -0.15957E-04 15645   0.211E-02    0.627E-02
RMM:   4    -0.671340756054E+03    0.36294E-05   -0.56844E-05 14442   0.150E-02    0.422E-02
RMM:   5    -0.671340763683E+03   -0.76294E-05   -0.20251E-05 14171   0.768E-03    0.329E-02
RMM:   6    -0.671340770795E+03   -0.71120E-05   -0.10566E-05 13166   0.589E-03    0.227E-02
RMM:   7    -0.671340779788E+03   -0.89924E-05   -0.61804E-06 12620   0.443E-03    0.128E-02
RMM:   8    -0.671340785559E+03   -0.57709E-05   -0.17770E-06 11059   0.293E-03
  60 F= -.67134079E+03 E0= -.67092516E+03  d E =-.124494E-02  mag=    80.0048
       N       E                     dE             d eps       ncg     rms          rms(c)
DAV:   1    -0.671341254075E+03   -0.47429E-03   -0.18050E-02 28032   0.162E-01    0.814E-02
RMM:   2    -0.671341325089E+03   -0.71014E-04   -0.42741E-04 19167   0.334E-02    0.539E-02
RMM:   3    -0.671341349346E+03   -0.24257E-04   -0.71640E-05 14867   0.153E-02    0.476E-02
RMM:   4    -0.671341344391E+03    0.49546E-05   -0.29580E-05 14276   0.106E-02    0.299E-02
RMM:   5    -0.671341349653E+03   -0.52620E-05   -0.10403E-05 12879   0.554E-03    0.195E-02
RMM:   6    -0.671341355441E+03   -0.57872E-05   -0.53855E-06 12085   0.431E-03    0.156E-02
RMM:   7    -0.671341362226E+03   -0.67856E-05   -0.24669E-06 11201   0.322E-03    0.807E-03
RMM:   8    -0.671341366459E+03   -0.42324E-05   -0.21028E-07  6411   0.225E-03
  61 F= -.67134137E+03 E0= -.67092578E+03  d E =-.580900E-03  mag=    80.0053
       N       E                     dE             d eps       ncg     rms          rms(c)
DAV:   1    -0.671341462814E+03   -0.10059E-03   -0.17171E-02 27552   0.158E-01    0.794E-02
RMM:   2    -0.671341529446E+03   -0.66632E-04   -0.40790E-04 18906   0.326E-02    0.530E-02
RMM:   3    -0.671341553941E+03   -0.24495E-04   -0.69379E-05 14837   0.151E-02    0.483E-02
RMM:   4    -0.671341548958E+03    0.49826E-05   -0.28912E-05 14274   0.104E-02    0.301E-02
RMM:   5    -0.671341556402E+03   -0.74441E-05   -0.96328E-06 12875   0.529E-03    0.201E-02
RMM:   6    -0.671341563021E+03   -0.66184E-05   -0.47247E-06 12187   0.403E-03    0.162E-02
RMM:   7    -0.671341570532E+03   -0.75111E-05   -0.23325E-06 11476   0.310E-03    0.865E-03
RMM:   8    -0.671341575405E+03   -0.48731E-05   -0.16858E-07  6249   0.220E-03
  62 F= -.67134158E+03 E0= -.67092603E+03  d E =-.789846E-03  mag=    80.0057
       N       E                     dE             d eps       ncg     rms          rms(c)
DAV:   1    -0.671342020197E+03   -0.44966E-03   -0.92814E-03 27840   0.121E-01    0.499E-02
RMM:   2    -0.671342058856E+03   -0.38659E-04   -0.22173E-04 16289   0.245E-02    0.334E-02
RMM:   3    -0.671342073413E+03   -0.14557E-04   -0.35256E-05 14468   0.114E-02    0.348E-02
RMM:   4    -0.671342069209E+03    0.42040E-05   -0.11345E-05 13681   0.660E-03    0.183E-02
RMM:   5    -0.671342073630E+03   -0.44210E-05   -0.37779E-06 11652   0.362E-03    0.149E-02
RMM:   6    -0.671342076314E+03   -0.26841E-05   -0.19869E-06 10850   0.306E-03    0.895E-03
RMM:   7    -0.671342081830E+03   -0.55162E-05   -0.50375E-07  7397   0.247E-03    0.472E-03
RMM:   8    -0.671342085922E+03   -0.40922E-05   -0.84624E-08  5510   0.217E-03
  63 F= -.67134209E+03 E0= -.67092657E+03  d E =-.510517E-03  mag=    80.0060
       N       E                     dE             d eps       ncg     rms          rms(c)
DAV:   1    -0.671342242335E+03   -0.16051E-03   -0.14989E-02 27168   0.153E-01    0.636E-02
RMM:   2    -0.671342301124E+03   -0.58789E-04   -0.35786E-04 18374   0.314E-02    0.435E-02
RMM:   3    -0.671342320667E+03   -0.19543E-04   -0.63485E-05 14618   0.147E-02    0.476E-02
RMM:   4    -0.671342313693E+03    0.69737E-05   -0.22337E-05 14164   0.919E-03    0.197E-02
RMM:   5    -0.671342315473E+03   -0.17798E-05   -0.69765E-06 12519   0.459E-03    0.183E-02
RMM:   6    -0.671342316644E+03   -0.11716E-05   -0.35858E-06 11736   0.375E-03    0.114E-02
RMM:   7    -0.671342320364E+03   -0.37197E-05   -0.17397E-06 10453   0.288E-03    0.745E-03
RMM:   8    -0.671342323674E+03   -0.33099E-05   -0.64580E-08  5633   0.214E-03
  64 F= -.67134232E+03 E0= -.67092684E+03  d E =-.748269E-03  mag=    80.0064
       N       E                     dE             d eps       ncg     rms          rms(c)
DAV:   1    -0.671342703935E+03   -0.38357E-03   -0.10029E-02 27632   0.122E-01    0.567E-02
RMM:   2    -0.671342743333E+03   -0.39398E-04   -0.24137E-04 16518   0.249E-02    0.379E-02
RMM:   3    -0.671342756916E+03   -0.13583E-04   -0.41294E-05 14543   0.122E-02    0.407E-02
RMM:   4    -0.671342751818E+03    0.50981E-05   -0.14805E-05 13724   0.735E-03    0.176E-02
RMM:   5    -0.671342753988E+03   -0.21700E-05   -0.45263E-06 11880   0.384E-03    0.148E-02
RMM:   6    -0.671342756328E+03   -0.23404E-05   -0.23793E-06 11264   0.322E-03    0.102E-02
RMM:   7    -0.671342759637E+03   -0.33090E-05   -0.59712E-07  7958   0.252E-03    0.486E-03
RMM:   8    -0.671342762965E+03   -0.33276E-05   -0.36599E-08  5135   0.212E-03
  65 F= -.67134276E+03 E0= -.67092730E+03  d E =-.439291E-03  mag=    80.0067
       N       E                     dE             d eps       ncg     rms          rms(c)
DAV:   1    -0.671342883504E+03   -0.12387E-03   -0.15907E-02 26784   0.154E-01    0.712E-02
RMM:   2    -0.671342946033E+03   -0.62529E-04   -0.37936E-04 18407   0.312E-02    0.470E-02
RMM:   3    -0.671342966365E+03   -0.20332E-04   -0.63200E-05 14711   0.148E-02    0.467E-02
RMM:   4    -0.671342959714E+03    0.66510E-05   -0.23958E-05 14175   0.952E-03    0.230E-02
RMM:   5    -0.671342961233E+03   -0.15190E-05   -0.78441E-06 12595   0.487E-03    0.192E-02
RMM:   6    -0.671342961889E+03   -0.65565E-06   -0.43913E-06 11792   0.402E-03    0.135E-02
RMM:   7    -0.671342964907E+03   -0.30184E-05   -0.22318E-06 10965   0.310E-03    0.801E-03
RMM:   8    -0.671342967064E+03   -0.21569E-05   -0.10410E-07  5686   0.214E-03
  66 F= -.67134297E+03 E0= -.67092752E+03  d E =-.643390E-03  mag=    80.0071
       N       E                     dE             d eps       ncg     rms          rms(c)
DAV:   1    -0.671343258691E+03   -0.29378E-03   -0.13885E-02 27088   0.147E-01    0.612E-02
RMM:   2    -0.671343311533E+03   -0.52841E-04   -0.34022E-04 17731   0.294E-02    0.417E-02
RMM:   3    -0.671343332896E+03   -0.21363E-04   -0.55119E-05 14616   0.136E-02    0.440E-02
RMM:   4    -0.671343324488E+03    0.84075E-05   -0.16619E-05 14270   0.806E-03    0.221E-02
RMM:   5    -0.671343325818E+03   -0.13304E-05   -0.58048E-06 12536   0.413E-03    0.183E-02
RMM:   6    -0.671343325426E+03    0.39255E-06   -0.31674E-06 11737   0.355E-03    0.120E-02
RMM:   7    -0.671343328271E+03   -0.28452E-05   -0.17626E-06 10584   0.286E-03    0.732E-03
RMM:   8    -0.671343331396E+03   -0.31246E-05   -0.19190E-07  6049   0.221E-03
  67 F= -.67134333E+03 E0= -.67092791E+03  d E =-.364332E-03  mag=    80.0075
       N       E                     dE             d eps       ncg     rms          rms(c)
DAV:   1    -0.671343359886E+03   -0.31615E-04   -0.31077E-03 27568   0.699E-02    0.290E-02
RMM:   2    -0.671343375200E+03   -0.15315E-04   -0.79006E-05 14850   0.141E-02    0.198E-02
RMM:   3    -0.671343381453E+03   -0.62524E-05   -0.11703E-05 14136   0.669E-03    0.177E-02
RMM:   4    -0.671343381826E+03   -0.37299E-06   -0.35429E-06 11795   0.386E-03    0.113E-02
RMM:   5    -0.671343386328E+03   -0.45025E-05   -0.59053E-07  7358   0.240E-03    0.846E-03
RMM:   6    -0.671343389499E+03   -0.31712E-05   -0.15415E-07  5856   0.224E-03    0.627E-03
RMM:   7    -0.671343395273E+03   -0.57737E-05   -0.23502E-08  4999   0.212E-03    0.359E-03
RMM:   8    -0.671343399812E+03   -0.45393E-05   -0.77455E-08  5206   0.214E-03
  68 F= -.67134340E+03 E0= -.67092800E+03  d E =-.432748E-03  mag=    80.0079
       N       E                     dE             d eps       ncg     rms          rms(c)
DAV:   1    -0.671343564597E+03   -0.16932E-03   -0.52954E-03 27184   0.942E-02    0.354E-02
RMM:   2    -0.671343586230E+03   -0.21633E-04   -0.13962E-04 15152   0.185E-02    0.245E-02
RMM:   3    -0.671343595905E+03   -0.96746E-05   -0.20940E-05 14351   0.894E-03    0.251E-02
RMM:   4    -0.671343595420E+03    0.48522E-06   -0.59581E-06 13002   0.496E-03    0.128E-02
RMM:   5    -0.671343602051E+03   -0.66315E-05   -0.18108E-06 10114   0.288E-03    0.123E-02
RMM:   6    -0.671343606258E+03   -0.42068E-05   -0.85920E-07  8426   0.259E-03    0.770E-03
RMM:   7    -0.671343613503E+03   -0.72448E-05   -0.11648E-07  5500   0.224E-03    0.479E-03
RMM:   8    -0.671343618442E+03   -0.49397E-05   -0.41409E-08  4960   0.214E-03
  69 F= -.67134362E+03 E0= -.67092822E+03  d E =-.218630E-03  mag=    80.0083
       N       E                     dE             d eps       ncg     rms          rms(c)
DAV:   1    -0.671343651900E+03   -0.38397E-04   -0.87512E-03 26592   0.121E-01    0.456E-02
RMM:   2    -0.671343684827E+03   -0.32927E-04   -0.23118E-04 15998   0.239E-02    0.325E-02
RMM:   3    -0.671343698750E+03   -0.13922E-04   -0.36771E-05 14462   0.116E-02    0.330E-02
RMM:   4    -0.671343696840E+03    0.19101E-05   -0.10641E-05 13909   0.656E-03    0.166E-02
RMM:   5    -0.671343703499E+03   -0.66590E-05   -0.37123E-06 11935   0.358E-03    0.157E-02
RMM:   6    -0.671343707307E+03   -0.38086E-05   -0.18387E-06 10326   0.294E-03    0.106E-02
RMM:   7    -0.671343714312E+03   -0.70049E-05   -0.53400E-07  7437   0.247E-03    0.576E-03
RMM:   8    -0.671343719191E+03   -0.48787E-05   -0.32955E-08  5026   0.216E-03
  70 F= -.67134372E+03 E0= -.67092833E+03  d E =-.319378E-03  mag=    80.0087
       N       E                     dE             d eps       ncg     rms          rms(c)
DAV:   1    -0.671343839555E+03   -0.12524E-03   -0.37592E-03 27168   0.785E-02    0.325E-02
RMM:   2    -0.671343857817E+03   -0.18262E-04   -0.10819E-04 14993   0.160E-02    0.233E-02
RMM:   3    -0.671343865538E+03   -0.77216E-05   -0.16025E-05 14344   0.764E-03    0.222E-02
RMM:   4    -0.671343865941E+03   -0.40280E-06   -0.50576E-06 12528   0.456E-03    0.135E-02
RMM:   5    -0.671343871765E+03   -0.58236E-05   -0.17121E-06  9692   0.290E-03    0.120E-02
RMM:   6    -0.671343876530E+03   -0.47656E-05   -0.81096E-07  8035   0.259E-03    0.717E-03
RMM:   7    -0.671343882835E+03   -0.63041E-05   -0.74678E-08  5246   0.219E-03    0.448E-03
RMM:   8    -0.671343887499E+03   -0.46641E-05   -0.49002E-08  4977   0.213E-03
  71 F= -.67134389E+03 E0= -.67092850E+03  d E =-.168308E-03  mag=    80.0091
       N       E                     dE             d eps       ncg     rms          rms(c)
DAV:   1    -0.671343923310E+03   -0.40476E-04   -0.70960E-03 25808   0.108E-01    0.445E-02
RMM:   2    -0.671343953051E+03   -0.29741E-04   -0.20220E-04 15640   0.220E-02    0.330E-02
RMM:   3    -0.671343964749E+03   -0.11698E-04   -0.32259E-05 14478   0.108E-02    0.337E-02
RMM:   4    -0.671343962447E+03    0.23022E-05   -0.10583E-05 13812   0.648E-03    0.178E-02
RMM:   5    -0.671343967680E+03   -0.52331E-05   -0.40344E-06 11613   0.373E-03    0.171E-02
RMM:   6    -0.671343971115E+03   -0.34343E-05   -0.22312E-06 10824   0.316E-03    0.992E-03
RMM:   7    -0.671343976734E+03   -0.56191E-05   -0.56157E-07  7323   0.246E-03    0.567E-03
RMM:   8    -0.671343980913E+03   -0.41793E-05   -0.42431E-08  5027   0.216E-03
  72 F= -.67134398E+03 E0= -.67092859E+03  d E =-.261722E-03  mag=    80.0095
       N       E                     dE             d eps       ncg     rms          rms(c)
DAV:   1    -0.671344115559E+03   -0.13883E-03   -0.29727E-03 27040   0.708E-02    0.255E-02
RMM:   2    -0.671344129867E+03   -0.14307E-04   -0.85461E-05 14823   0.141E-02    0.198E-02
RMM:   3    -0.671344135714E+03   -0.58473E-05   -0.12101E-05 14230   0.672E-03    0.191E-02
RMM:   4    -0.671344136378E+03   -0.66403E-06   -0.33102E-06 12048   0.380E-03    0.109E-02
RMM:   5    -0.671344141637E+03   -0.52582E-05   -0.38410E-07  6780   0.234E-03    0.960E-03
RMM:   6    -0.671344145615E+03   -0.39786E-05   -0.21492E-07  6251   0.231E-03    0.676E-03
RMM:   7    -0.671344151343E+03   -0.57281E-05   -0.58468E-08  5161   0.213E-03    0.387E-03
RMM:   8    -0.671344155892E+03   -0.45486E-05   -0.38735E-08  5003   0.218E-03
  73 F= -.67134416E+03 E0= -.67092877E+03  d E =-.174979E-03  mag=    80.0099
       N       E                     dE             d eps       ncg     rms          rms(c)
DAV:   1    -0.671344189043E+03   -0.37700E-04   -0.19088E-03 26928   0.569E-02    0.204E-02
RMM:   2    -0.671344199832E+03   -0.10788E-04   -0.55735E-05 14664   0.114E-02    0.151E-02
RMM:   3    -0.671344204586E+03   -0.47539E-05   -0.78495E-06 13997   0.540E-03    0.154E-02
RMM:   4    -0.671344205745E+03   -0.11595E-05   -0.21233E-06 10695   0.315E-03    0.824E-03
RMM:   5    -0.671344210646E+03   -0.49006E-05   -0.34239E-07  6169   0.218E-03    0.696E-03
RMM:   6    -0.671344215482E+03   -0.48368E-05   -0.15319E-07  5697   0.206E-03    0.482E-03
RMM:   7    -0.671344220945E+03   -0.54627E-05   -0.13400E-08  4903   0.194E-03    0.369E-03
RMM:   8    -0.671344224342E+03   -0.33970E-05   -0.74662E-09  4775   0.198E-03
  74 F= -.67134422E+03 E0= -.67092885E+03  d E =-.243429E-03  mag=    80.0102
       N       E                     dE             d eps       ncg     rms          rms(c)
DAV:   1    -0.671344351324E+03   -0.13038E-03   -0.36899E-03 26736   0.794E-02    0.294E-02
RMM:   2    -0.671344367726E+03   -0.16402E-04   -0.10519E-04 14894   0.161E-02    0.219E-02
RMM:   3    -0.671344373323E+03   -0.55977E-05   -0.15847E-05 14323   0.780E-03    0.223E-02
RMM:   4    -0.671344373116E+03    0.20768E-06   -0.48767E-06 12572   0.448E-03    0.113E-02
RMM:   5    -0.671344376754E+03   -0.36382E-05   -0.14431E-06  8933   0.278E-03    0.990E-03
RMM:   6    -0.671344379696E+03   -0.29420E-05   -0.62671E-07  7643   0.250E-03    0.594E-03
RMM:   7    -0.671344384024E+03   -0.43283E-05   -0.85158E-08  5508   0.221E-03    0.391E-03
RMM:   8    -0.671344386988E+03   -0.29639E-05   -0.17043E-08  4820   0.213E-03
  75 F= -.67134439E+03 E0= -.67092901E+03  d E =-.162646E-03  mag=    80.0106
       N       E                     dE             d eps       ncg     rms          rms(c)
DAV:   1    -0.671344419457E+03   -0.35432E-04   -0.32283E-03 26912   0.744E-02    0.276E-02
RMM:   2    -0.671344433554E+03   -0.14097E-04   -0.93587E-05 14849   0.150E-02    0.208E-02
RMM:   3    -0.671344438429E+03   -0.48750E-05   -0.13575E-05 14311   0.715E-03    0.204E-02
RMM:   4    -0.671344437719E+03    0.70920E-06   -0.37250E-06 12215   0.399E-03    0.109E-02
RMM:   5    -0.671344440858E+03   -0.31386E-05   -0.56294E-07  7360   0.244E-03    0.100E-02
RMM:   6    -0.671344442628E+03   -0.17700E-05   -0.24090E-07  6210   0.235E-03    0.672E-03
RMM:   7    -0.671344446123E+03   -0.34948E-05   -0.54605E-08  5056   0.219E-03    0.377E-03
RMM:   8    -0.671344449049E+03   -0.29262E-05   -0.48460E-08  4941   0.221E-03
  76 F= -.67134445E+03 E0= -.67092908E+03  d E =-.224707E-03  mag=    80.0109
       N       E                     dE             d eps       ncg     rms          rms(c)
DAV:   1    -0.671344524346E+03   -0.78224E-04   -0.33934E-03 26496   0.760E-02    0.294E-02
RMM:   2    -0.671344538260E+03   -0.13914E-04   -0.10285E-04 14887   0.159E-02    0.226E-02
RMM:   3    -0.671344543114E+03   -0.48541E-05   -0.16513E-05 14335   0.798E-03    0.233E-02
RMM:   4    -0.671344542353E+03    0.76136E-06   -0.45227E-06 12493   0.440E-03    0.975E-03
RMM:   5    -0.671344544262E+03   -0.19087E-05   -0.10058E-06  8589   0.264E-03    0.984E-03
RMM:   6    -0.671344546243E+03   -0.19809E-05   -0.60732E-07  7622   0.249E-03    0.734E-03
RMM:   7    -0.671344547835E+03   -0.15921E-05   -0.55258E-08  5394   0.219E-03    0.455E-03
RMM:   8    -0.671344549855E+03   -0.20200E-05   -0.45703E-08  5233   0.220E-03
  77 F= -.67134455E+03 E0= -.67092918E+03  d E =-.100806E-03  mag=    80.0113
       N       E                     dE             d eps       ncg     rms          rms(c)
DAV:   1    -0.671344556417E+03   -0.85826E-05   -0.71741E-04 25472   0.351E-02    0.138E-02
RMM:   2    -0.671344561561E+03   -0.51442E-05   -0.24145E-05 14475   0.766E-03    0.115E-02
RMM:   3    -0.671344563513E+03   -0.19516E-05   -0.35074E-06 12742   0.383E-03    0.109E-02
RMM:   4    -0.671344564122E+03   -0.60862E-06   -0.46052E-07  7291   0.236E-03    0.445E-03
RMM:   5    -0.671344566553E+03   -0.24312E-05   -0.37634E-08  4789   0.198E-03    0.459E-03
RMM:   6    -0.671344569170E+03   -0.26170E-05   -0.27608E-08  4777   0.193E-03    0.322E-03
RMM:   7    -0.671344572050E+03   -0.28801E-05   -0.54306E-09  4621   0.195E-03    0.264E-03
RMM:   8    -0.671344573983E+03   -0.19325E-05   -0.32289E-09  4407   0.196E-03
  78 F= -.67134457E+03 E0= -.67092920E+03  d E =-.124934E-03  mag=    80.0116
       N       E                     dE             d eps       ncg     rms          rms(c)
DAV:   1    -0.671344642815E+03   -0.70765E-04   -0.23698E-03 26640   0.613E-02    0.264E-02
RMM:   2    -0.671344653655E+03   -0.10841E-04   -0.74426E-05 14816   0.129E-02    0.207E-02
RMM:   3    -0.671344656939E+03   -0.32838E-05   -0.11630E-05 14199   0.653E-03    0.200E-02
RMM:   4    -0.671344656249E+03    0.69011E-06   -0.33022E-06 11730   0.382E-03    0.935E-03
RMM:   5    -0.671344658137E+03   -0.18878E-05   -0.25699E-07  6155   0.227E-03    0.688E-03
RMM:   6    -0.671344660473E+03   -0.23362E-05   -0.19990E-07  5785   0.214E-03    0.561E-03
RMM:   7    -0.671344662678E+03   -0.22049E-05   -0.71038E-08  5182   0.215E-03    0.365E-03
RMM:   8    -0.671344664780E+03   -0.21020E-05   -0.38190E-08  4756   0.214E-03
  79 F= -.67134466E+03 E0= -.67092929E+03  d E =-.907974E-04  mag=    80.0119
       N       E                     dE             d eps       ncg     rms          rms(c)
DAV:   1    -0.671344681236E+03   -0.18558E-04   -0.79993E-03 25360   0.113E-01    0.486E-02
RMM:   2    -0.671344711987E+03   -0.30751E-04   -0.24877E-04 16018   0.233E-02    0.361E-02
RMM:   3    -0.671344720014E+03   -0.80271E-05   -0.39216E-05 14604   0.114E-02    0.353E-02
RMM:   4    -0.671344715757E+03    0.42575E-05   -0.11213E-05 14034   0.671E-03    0.162E-02
RMM:   5    -0.671344715455E+03    0.30221E-06   -0.39461E-06 12076   0.355E-03    0.141E-02
RMM:   6    -0.671344715958E+03   -0.50385E-06   -0.22859E-06 10885   0.304E-03    0.123E-02
RMM:   7    -0.671344715639E+03    0.31898E-06   -0.64257E-07  7547   0.248E-03    0.795E-03
RMM:   8    -0.671344716776E+03   -0.11362E-05   -0.62297E-08  5161   0.215E-03
  80 F= -.67134472E+03 E0= -.67092934E+03  d E =-.142793E-03  mag=    80.0122
       N       E                     dE             d eps       ncg     rms          rms(c)
DAV:   1    -0.671344770954E+03   -0.55315E-04   -0.14166E-03 27424   0.456E-02    0.218E-02
RMM:   2    -0.671344777841E+03   -0.68867E-05   -0.48771E-05 14673   0.981E-03    0.172E-02
RMM:   3    -0.671344780434E+03   -0.25933E-05   -0.73180E-06 13623   0.508E-03    0.160E-02
RMM:   4    -0.671344780235E+03    0.19884E-06   -0.20148E-06 10931   0.316E-03    0.836E-03
RMM:   5    -0.671344782573E+03   -0.23376E-05   -0.89857E-08  5277   0.201E-03    0.778E-03
RMM:   6    -0.671344784087E+03   -0.15143E-05   -0.54195E-08  5042   0.191E-03    0.630E-03
RMM:   7    -0.671344786851E+03   -0.27637E-05   -0.29384E-08  4911   0.184E-03    0.364E-03
RMM:   8    -0.671344788823E+03   -0.19725E-05   -0.14406E-08  4799   0.196E-03
  81 F= -.67134479E+03 E0= -.67092941E+03  d E =-.720476E-04  mag=    80.0126
       N       E                     dE             d eps       ncg     rms          rms(c)
DAV:   1    -0.671344832177E+03   -0.45326E-04   -0.12492E-02 25392   0.135E-01    0.641E-02
RMM:   2    -0.671344878863E+03   -0.46686E-04   -0.40463E-04 17230   0.283E-02    0.485E-02
RMM:   3    -0.671344897757E+03   -0.18894E-04   -0.64867E-05 14742   0.141E-02    0.488E-02
RMM:   4    -0.671344889075E+03    0.86813E-05   -0.20054E-05 14421   0.896E-03    0.247E-02
RMM:   5    -0.671344892705E+03   -0.36298E-05   -0.76721E-06 12929   0.464E-03    0.256E-02
RMM:   6    -0.671344890730E+03    0.19753E-05   -0.46750E-06 12390   0.410E-03    0.155E-02
RMM:   7    -0.671344893172E+03   -0.24424E-05   -0.25259E-06 11201   0.305E-03    0.996E-03
RMM:   8    -0.671344894528E+03   -0.13555E-05   -0.43763E-07  6837   0.237E-03
  82 F= -.67134489E+03 E0= -.67092954E+03  d E =-.177752E-03  mag=    80.0129
       N       E                     dE             d eps       ncg     rms          rms(c)
DAV:   1    -0.671344891122E+03    0.20508E-05   -0.15459E-03 27744   0.477E-02    0.228E-02
RMM:   2    -0.671344898929E+03   -0.78073E-05   -0.53566E-05 14720   0.103E-02    0.189E-02
RMM:   3    -0.671344902931E+03   -0.40019E-05   -0.81729E-06 13818   0.536E-03    0.200E-02
RMM:   4    -0.671344901626E+03    0.13048E-05   -0.21794E-06 11212   0.320E-03    0.985E-03
RMM:   5    -0.671344904040E+03   -0.24140E-05   -0.12373E-07  5382   0.201E-03    0.830E-03
RMM:   6    -0.671344906339E+03   -0.22990E-05   -0.49322E-08  4965   0.192E-03    0.529E-03
RMM:   7    -0.671344909803E+03   -0.34645E-05   -0.31821E-08  4919   0.184E-03    0.285E-03
RMM:   8    -0.671344912093E+03   -0.22897E-05   -0.16201E-08  4838   0.197E-03
  83 F= -.67134491E+03 E0= -.67092956E+03  d E =-.195317E-03  mag=    80.0132
       N       E                     dE             d eps       ncg     rms          rms(c)
DAV:   1    -0.671344993137E+03   -0.83334E-04   -0.32035E-03 26880   0.712E-02    0.294E-02
RMM:   2    -0.671345005180E+03   -0.12043E-04   -0.10384E-04 14949   0.146E-02    0.222E-02
RMM:   3    -0.671345009748E+03   -0.45677E-05   -0.14399E-05 14330   0.700E-03    0.211E-02
RMM:   4    -0.671345008267E+03    0.14808E-05   -0.39883E-06 12388   0.410E-03    0.118E-02
RMM:   5    -0.671345009953E+03   -0.16862E-05   -0.76334E-07  7660   0.248E-03    0.105E-02
RMM:   6    -0.671345010783E+03   -0.82981E-06   -0.32967E-07  6414   0.238E-03    0.793E-03
RMM:   7    -0.671345013183E+03   -0.24000E-05   -0.16453E-07  5488   0.219E-03    0.462E-03
RMM:   8    -0.671345015356E+03   -0.21728E-05   -0.33022E-08  4982   0.218E-03
  84 F= -.67134502E+03 E0= -.67092966E+03  d E =-.103263E-03  mag=    80.0134
       N       E                     dE             d eps       ncg     rms          rms(c)
DAV:   1    -0.671345033468E+03   -0.20285E-04   -0.37200E-03 26656   0.768E-02    0.318E-02
RMM:   2    -0.671345047518E+03   -0.14050E-04   -0.12180E-04 15028   0.158E-02    0.248E-02
RMM:   3    -0.671345052715E+03   -0.51968E-05   -0.17140E-05 14384   0.762E-03    0.232E-02
RMM:   4    -0.671345050880E+03    0.18347E-05   -0.48155E-06 12753   0.447E-03    0.134E-02
RMM:   5    -0.671345052669E+03   -0.17886E-05   -0.13577E-06  9036   0.265E-03    0.125E-02
RMM:   6    -0.671345053226E+03   -0.55740E-06   -0.58428E-07  7413   0.248E-03    0.780E-03
RMM:   7    -0.671345055898E+03   -0.26715E-05   -0.20133E-07  5539   0.223E-03    0.427E-03
RMM:   8    -0.671345058225E+03   -0.23269E-05   -0.34495E-08  4900   0.215E-03
  85 F= -.67134506E+03 E0= -.67092971E+03  d E =-.146131E-03  mag=    80.0137
       N       E                     dE             d eps       ncg     rms          rms(c)
DAV:   1    -0.671345112675E+03   -0.56777E-04   -0.17849E-03 27104   0.562E-02    0.188E-02
RMM:   2    -0.671345120287E+03   -0.76122E-05   -0.56083E-05 14639   0.115E-02    0.156E-02
RMM:   3    -0.671345123010E+03   -0.27227E-05   -0.77171E-06 14000   0.546E-03    0.138E-02
RMM:   4    -0.671345123511E+03   -0.50152E-06   -0.18830E-06 11055   0.304E-03    0.764E-03
RMM:   5    -0.671345126024E+03   -0.25122E-05   -0.71828E-08  5326   0.207E-03    0.550E-03
RMM:   6    -0.671345129469E+03   -0.34459E-05   -0.55098E-08  5113   0.193E-03    0.435E-03
RMM:   7    -0.671345132512E+03   -0.30426E-05   -0.27921E-08  4912   0.200E-03    0.260E-03
RMM:   8    -0.671345135126E+03   -0.26138E-05   -0.17412E-08  4806   0.205E-03
  86 F= -.67134514E+03 E0= -.67092979E+03  d E =-.769012E-04  mag=    80.0140
