       N       E                     dE             d eps       ncg     rms          rms(c)
DAV:   1     0.781062999846E+04    0.78106E+04   -0.31240E+05 13648   0.127E+03
DAV:   2     0.585593488023E+03   -0.72250E+04   -0.65353E+04 14512   0.374E+02
DAV:   3    -0.805151362330E+03   -0.13907E+04   -0.13356E+04 16720   0.165E+02
DAV:   4    -0.882125859584E+03   -0.76974E+02   -0.75116E+02 18464   0.433E+01
DAV:   5    -0.883860702677E+03   -0.17348E+01   -0.17125E+01 17392   0.608E+00    0.191E+02
RMM:   6    -0.748680929772E+03    0.13518E+03   -0.67152E+02 13488   0.409E+01    0.196E+02
RMM:   7    -0.106486817066E+04   -0.31619E+03   -0.22238E+02 14226   0.229E+01    0.351E+02
RMM:   8    -0.879058336957E+03    0.18581E+03   -0.53387E+01 16192   0.867E+00    0.276E+02
RMM:   9    -0.101055743665E+04   -0.13150E+03   -0.18602E+02 17423   0.185E+01    0.299E+02
RMM:  10    -0.756166123748E+03    0.25439E+03   -0.96768E+01 15372   0.139E+01    0.115E+02
RMM:  11    -0.650172839805E+03    0.10599E+03   -0.69434E+01 14424   0.142E+01    0.601E+01
RMM:  12    -0.667251016400E+03   -0.17078E+02   -0.26452E+01 13522   0.826E+00    0.701E+01
RMM:  13    -0.658375914827E+03    0.88751E+01   -0.18994E+01 13573   0.758E+00    0.285E+01
RMM:  14    -0.664338364688E+03   -0.59624E+01   -0.71656E+00 14391   0.377E+00    0.295E+01
RMM:  15    -0.670610817017E+03   -0.62725E+01   -0.36046E+00 13620   0.308E+00    0.213E+01
RMM:  16    -0.682349700439E+03   -0.11739E+02   -0.91017E+00 15380   0.406E+00    0.190E+01
RMM:  17    -0.698755595876E+03   -0.16406E+02   -0.93140E+00 15394   0.413E+00    0.162E+01
RMM:  18    -0.704890812565E+03   -0.61352E+01   -0.40075E+00 14234   0.280E+00    0.138E+01
RMM:  19    -0.709608367388E+03   -0.47176E+01   -0.26549E+00 14357   0.221E+00    0.111E+01
RMM:  20    -0.713240674302E+03   -0.36323E+01   -0.13658E+00 13832   0.181E+00    0.975E+00
RMM:  21    -0.716639281942E+03   -0.33986E+01   -0.12948E+00 14323   0.157E+00    0.877E+00
RMM:  22    -0.720653012378E+03   -0.40137E+01   -0.10295E+00 14636   0.135E+00    0.752E+00
RMM:  23    -0.725232281053E+03   -0.45793E+01   -0.14917E+00 15441   0.149E+00    0.733E+00
RMM:  24    -0.727777875802E+03   -0.25456E+01   -0.10054E+00 14974   0.122E+00    0.619E+00
RMM:  25    -0.728755652333E+03   -0.97778E+00   -0.56012E-01 14480   0.952E-01    0.689E+00
RMM:  26    -0.729804078985E+03   -0.10484E+01   -0.19390E-01 13870   0.585E-01    0.630E+00
RMM:  27    -0.730660439094E+03   -0.85636E+00   -0.13104E-01 13941   0.461E-01    0.569E+00
RMM:  28    -0.732182140995E+03   -0.15217E+01   -0.26110E-01 15445   0.596E-01    0.464E+00
RMM:  29    -0.733038855476E+03   -0.85671E+00   -0.75131E-02 13850   0.373E-01    0.353E+00
RMM:  30    -0.733412043291E+03   -0.37319E+00   -0.55938E-02 14138   0.307E-01    0.325E+00
RMM:  31    -0.734127873685E+03   -0.71583E+00   -0.77518E-02 15171   0.325E-01    0.232E+00
RMM:  32    -0.734309331702E+03   -0.18146E+00   -0.44605E-02 14608   0.265E-01    0.175E+00
RMM:  33    -0.734548459969E+03   -0.23913E+00   -0.84353E-02 16275   0.316E-01    0.167E+00
RMM:  34    -0.734724239633E+03   -0.17578E+00   -0.32486E-02 14808   0.213E-01    0.172E+00
RMM:  35    -0.734846839941E+03   -0.12260E+00   -0.15799E-02 14115   0.164E-01    0.197E+00
RMM:  36    -0.734884432211E+03   -0.37592E-01   -0.55798E-03 14277   0.105E-01    0.175E+00
RMM:  37    -0.734947472832E+03   -0.63041E-01   -0.31471E-03 13788   0.784E-02    0.153E+00
RMM:  38    -0.735007754046E+03   -0.60281E-01   -0.18787E-03 13295   0.626E-02    0.137E+00
RMM:  39    -0.735084099299E+03   -0.76345E-01   -0.16907E-03 13725   0.590E-02    0.100E+00
RMM:  40    -0.735158127160E+03   -0.74028E-01   -0.15330E-03 13751   0.535E-02    0.693E-01
RMM:  41    -0.735213525961E+03   -0.55399E-01   -0.12669E-03 13407   0.454E-02    0.489E-01
RMM:  42    -0.735274783882E+03   -0.61258E-01   -0.23203E-03 14557   0.537E-02    0.275E-01
RMM:  43    -0.735322676655E+03   -0.47893E-01   -0.16902E-03 13987   0.470E-02    0.202E-01
RMM:  44    -0.735352317544E+03   -0.29641E-01   -0.72640E-04 12410   0.326E-02    0.219E-01
RMM:  45    -0.735369306849E+03   -0.16989E-01   -0.35384E-04 10257   0.232E-02    0.185E-01
RMM:  46    -0.735393159923E+03   -0.23853E-01   -0.36139E-04 10024   0.218E-02    0.179E-01
RMM:  47    -0.735412406117E+03   -0.19246E-01   -0.20500E-04  9006   0.170E-02    0.173E-01
RMM:  48    -0.735426372911E+03   -0.13967E-01   -0.14864E-04  8352   0.141E-02    0.146E-01
RMM:  49    -0.735435029919E+03   -0.86570E-02   -0.10196E-04  7997   0.120E-02    0.120E-01
RMM:  50    -0.735439228076E+03   -0.41982E-02   -0.59549E-05  7634   0.991E-03    0.107E-01
RMM:  51    -0.735443121570E+03   -0.38935E-02   -0.11241E-04  8330   0.138E-02    0.437E-02
RMM:  52    -0.735444206095E+03   -0.10845E-02   -0.53596E-05  7759   0.995E-03    0.295E-02
RMM:  53    -0.735444306807E+03   -0.10071E-03   -0.31432E-05  7493   0.790E-03    0.209E-02
RMM:  54    -0.735444504982E+03   -0.19817E-03   -0.16536E-05  6081   0.591E-03    0.179E-02
RMM:  55    -0.735444609705E+03   -0.10472E-03   -0.90319E-06  5388   0.464E-03    0.131E-02
RMM:  56    -0.735445111234E+03   -0.50153E-03   -0.16573E-05  6372   0.478E-03    0.107E-02
RMM:  57    -0.735445314053E+03   -0.20282E-03   -0.64325E-06  5246   0.436E-03    0.832E-03
RMM:  58    -0.735445521898E+03   -0.20785E-03   -0.41799E-06  4370   0.348E-03    0.638E-03
RMM:  59    -0.735445678112E+03   -0.15621E-03   -0.34017E-06  4372   0.346E-03    0.759E-03
RMM:  60    -0.735445757061E+03   -0.78949E-04   -0.21028E-06  3854   0.318E-03
   1 F= -.73544576E+03 E0= -.73481731E+03  d E =-.735446E+03  mag=     0.2530
       N       E                     dE             d eps       ncg     rms          rms(c)
DAV:   1    -0.719072705626E+03    0.16373E+02   -0.26924E+03 13552   0.790E+01    0.173E+01
RMM:   2    -0.759337070904E+03   -0.40264E+02   -0.10071E+02 13440   0.146E+01    0.742E+01
RMM:   3    -0.728236571285E+03    0.31100E+02   -0.17229E+01 13879   0.688E+00    0.170E+01
RMM:   4    -0.730020833918E+03   -0.17843E+01   -0.46945E+00 13911   0.376E+00    0.260E+01
RMM:   5    -0.727675664794E+03    0.23452E+01   -0.12586E+00 13445   0.227E+00    0.167E+01
RMM:   6    -0.726612538720E+03    0.10631E+01   -0.79419E-01 13606   0.130E+00    0.991E+00
RMM:   7    -0.726263258689E+03    0.34928E+00   -0.96112E-01 14420   0.147E+00    0.572E+00
RMM:   8    -0.726153995726E+03    0.10926E+00   -0.30651E-01 13529   0.100E+00    0.397E+00
RMM:   9    -0.726093008105E+03    0.60988E-01   -0.78005E-02 13621   0.558E-01    0.190E+00
RMM:  10    -0.726092288975E+03    0.71913E-03   -0.32953E-02 14134   0.296E-01    0.154E+00
RMM:  11    -0.726079365788E+03    0.12923E-01   -0.25412E-02 13464   0.232E-01    0.826E-01
RMM:  12    -0.726080264140E+03   -0.89835E-03   -0.84025E-03 14017   0.135E-01    0.620E-01
RMM:  13    -0.726080795053E+03   -0.53091E-03   -0.41913E-03 14601   0.888E-02    0.331E-01
RMM:  14    -0.726081913698E+03   -0.11186E-02   -0.10359E-03 12835   0.434E-02    0.255E-01
RMM:  15    -0.726083339844E+03   -0.14261E-02   -0.27653E-04  9294   0.272E-02    0.186E-01
RMM:  16    -0.726086207535E+03   -0.28677E-02   -0.58411E-04 10727   0.331E-02    0.120E-01
RMM:  17    -0.726087536617E+03   -0.13291E-02   -0.22122E-04  9074   0.225E-02    0.878E-02
RMM:  18    -0.726088027306E+03   -0.49069E-03   -0.67457E-05  8111   0.140E-02    0.700E-02
RMM:  19    -0.726088347322E+03   -0.32002E-03   -0.29462E-05  7615   0.877E-03    0.656E-02
RMM:  20    -0.726088543443E+03   -0.19612E-03   -0.13955E-05  6929   0.634E-03    0.645E-02
RMM:  21    -0.726088314560E+03    0.22888E-03   -0.41401E-06  5371   0.434E-03    0.663E-02
RMM:  22    -0.726088633301E+03   -0.31874E-03   -0.43017E-06  4803   0.350E-03    0.667E-02
RMM:  23    -0.726088649910E+03   -0.16609E-04   -0.93619E-07  3667   0.299E-03
   2 F= -.72608865E+03 E0= -.72545193E+03  d E =0.935711E+01  mag=     0.1402
       N       E                     dE             d eps       ncg     rms          rms(c)
DAV:   1    -0.738334473010E+03   -0.12246E+02   -0.99281E+02 13808   0.487E+01    0.182E+01
RMM:   2    -0.793672892727E+03   -0.55338E+02   -0.68114E+01 13507   0.110E+01    0.702E+01
RMM:   3    -0.753083725991E+03    0.40589E+02   -0.90171E+00 13528   0.599E+00    0.289E+01
RMM:   4    -0.747478821576E+03    0.56049E+01   -0.38848E+00 13443   0.337E+00    0.257E+01
RMM:   5    -0.739966304756E+03    0.75125E+01   -0.29017E+00 13612   0.274E+00    0.111E+01
RMM:   6    -0.739670457104E+03    0.29585E+00   -0.15460E+00 14394   0.168E+00    0.126E+01
RMM:   7    -0.738592102004E+03    0.10784E+01   -0.12185E+00 14773   0.128E+00    0.414E+00
RMM:   8    -0.738597091129E+03   -0.49891E-02   -0.26128E-01 13665   0.797E-01    0.377E+00
RMM:   9    -0.738625474766E+03   -0.28384E-01   -0.15770E-01 13674   0.653E-01    0.415E+00
RMM:  10    -0.738556940126E+03    0.68535E-01   -0.10989E-01 13883   0.525E-01    0.167E+00
RMM:  11    -0.738545497593E+03    0.11443E-01   -0.50035E-02 14694   0.327E-01    0.134E+00
RMM:  12    -0.738541586600E+03    0.39110E-02   -0.14396E-02 16277   0.144E-01    0.118E+00
RMM:  13    -0.738544208135E+03   -0.26215E-02   -0.21557E-03 13233   0.663E-02    0.131E+00
RMM:  14    -0.738539799173E+03    0.44090E-02   -0.44462E-03 13412   0.819E-02    0.103E+00
RMM:  15    -0.738536717196E+03    0.30820E-02   -0.21110E-03 13198   0.643E-02    0.788E-01
RMM:  16    -0.738535032254E+03    0.16849E-02   -0.62280E-04 12017   0.420E-02    0.640E-01
RMM:  17    -0.738534172780E+03    0.85947E-03   -0.24978E-04  9269   0.246E-02    0.557E-01
RMM:  18    -0.738533775723E+03    0.39706E-03   -0.16543E-04  8580   0.192E-02    0.494E-01
RMM:  19    -0.738533101152E+03    0.67457E-03   -0.16409E-04  8418   0.182E-02    0.367E-01
RMM:  20    -0.738532784824E+03    0.31633E-03   -0.13363E-04  8151   0.172E-02    0.274E-01
RMM:  21    -0.738532705042E+03    0.79781E-04   -0.10169E-04  7998   0.165E-02
   3 F= -.73853271E+03 E0= -.73790424E+03  d E =-.308695E+01  mag=     0.0886
       N       E                     dE             d eps       ncg     rms          rms(c)
DAV:   1    -0.738541147282E+03   -0.83625E-02   -0.39162E+00 13840   0.306E+00    0.104E+00
RMM:   2    -0.739031025828E+03   -0.48988E+00   -0.17865E-01 13444   0.673E-01    0.869E+00
RMM:   3    -0.738563308317E+03    0.46772E+00   -0.31552E-02 13440   0.383E-01    0.169E+00
RMM:   4    -0.738551804263E+03    0.11504E-01   -0.13082E-02 13427   0.194E-01    0.156E+00
RMM:   5    -0.738546484788E+03    0.53195E-02   -0.74963E-03 14140   0.128E-01    0.115E+00
RMM:   6    -0.738544605328E+03    0.18795E-02   -0.24721E-03 13429   0.763E-02    0.872E-01
RMM:   7    -0.738542781856E+03    0.18235E-02   -0.18461E-03 13067   0.649E-02    0.536E-01
RMM:   8    -0.738541555320E+03    0.12265E-02   -0.82261E-04 12455   0.529E-02    0.217E-01
RMM:   9    -0.738541594925E+03   -0.39605E-04   -0.28470E-04  9388   0.256E-02
   4 F= -.73854159E+03 E0= -.73791415E+03  d E =-.309584E+01  mag=     0.0855
       N       E                     dE             d eps       ncg     rms          rms(c)
DAV:   1    -0.737211158549E+03    0.13304E+01   -0.59774E+02 13440   0.379E+01    0.664E+00
RMM:   2    -0.739265857941E+03   -0.20547E+01   -0.14145E+01 13440   0.697E+00    0.133E+01
RMM:   3    -0.739911191166E+03   -0.64533E+00   -0.25064E+00 14099   0.292E+00    0.153E+01
RMM:   4    -0.738528191575E+03    0.13830E+01   -0.68170E-01 14593   0.146E+00    0.393E+00
RMM:   5    -0.738574781197E+03   -0.46590E-01   -0.23859E-01 13480   0.870E-01    0.573E+00
RMM:   6    -0.738425380134E+03    0.14940E+00   -0.10803E-01 13458   0.597E-01    0.313E+00
RMM:   7    -0.738415292098E+03    0.10088E-01   -0.94297E-02 13732   0.479E-01    0.213E+00
RMM:   8    -0.738396817215E+03    0.18475E-01   -0.76777E-02 14094   0.425E-01    0.117E+00
RMM:   9    -0.738391880039E+03    0.49372E-02   -0.16777E-02 14273   0.212E-01    0.772E-01
RMM:  10    -0.738389811965E+03    0.20681E-02   -0.49084E-03 14888   0.101E-01    0.477E-01
RMM:  11    -0.738387915533E+03    0.18964E-02   -0.44209E-03 13286   0.897E-02    0.279E-01
RMM:  12    -0.738387739549E+03    0.17598E-03   -0.25225E-03 13232   0.722E-02    0.205E-01
RMM:  13    -0.738387639166E+03    0.10038E-03   -0.62775E-04 11859   0.448E-02    0.123E-01
RMM:  14    -0.738387593588E+03    0.45578E-04   -0.16477E-04  8534   0.205E-02
   5 F= -.73838759E+03 E0= -.73776802E+03  d E =0.154001E+00  mag=     0.0608
       N       E                     dE             d eps       ncg     rms          rms(c)
DAV:   1    -0.738775053453E+03   -0.38741E+00   -0.19856E+02 13504   0.218E+01    0.376E+00
RMM:   2    -0.739447247203E+03   -0.67219E+00   -0.39745E+00 13440   0.367E+00    0.778E+00
RMM:   3    -0.739696382561E+03   -0.24914E+00   -0.81763E-01 14322   0.158E+00    0.969E+00
RMM:   4    -0.739162501002E+03    0.53388E+00   -0.18595E-01 14268   0.783E-01    0.206E+00
RMM:   5    -0.739171011426E+03   -0.85104E-02   -0.71363E-02 13487   0.477E-01    0.313E+00
RMM:   6    -0.739136710972E+03    0.34300E-01   -0.35732E-02 13577   0.321E-01    0.179E+00
RMM:   7    -0.739131845701E+03    0.48653E-02   -0.39967E-02 14040   0.303E-01    0.120E+00
RMM:   8    -0.739125634459E+03    0.62112E-02   -0.18909E-02 13609   0.236E-01    0.913E-01
RMM:   9    -0.739123023723E+03    0.26107E-02   -0.61797E-03 13871   0.131E-01    0.410E-01
RMM:  10    -0.739123028666E+03   -0.49426E-05   -0.17044E-03 14104   0.614E-02    0.405E-01
RMM:  11    -0.739122860498E+03    0.16817E-03   -0.40117E-04 10968   0.331E-02    0.363E-01
RMM:  12    -0.739122305315E+03    0.55518E-03   -0.11502E-03 12810   0.441E-02    0.935E-02
RMM:  13    -0.739122364076E+03   -0.58761E-04   -0.24746E-04  8950   0.256E-02
   6 F= -.73912236E+03 E0= -.73849864E+03  d E =-.580769E+00  mag=     0.0412
       N       E                     dE             d eps       ncg     rms          rms(c)
DAV:   1    -0.739610438350E+03   -0.48813E+00   -0.74440E+01 13632   0.132E+01    0.275E+00
RMM:   2    -0.740508213551E+03   -0.89778E+00   -0.18612E+00 13442   0.238E+00    0.121E+01
RMM:   3    -0.739840957065E+03    0.66726E+00   -0.29330E-01 13602   0.107E+00    0.416E+00
RMM:   4    -0.739785189831E+03    0.55767E-01   -0.94320E-02 13868   0.538E-01    0.355E+00
RMM:   5    -0.739732473510E+03    0.52716E-01   -0.56810E-02 13623   0.387E-01    0.244E+00
RMM:   6    -0.739717134830E+03    0.15339E-01   -0.21435E-02 13580   0.257E-01    0.159E+00
RMM:   7    -0.739716703880E+03    0.43095E-03   -0.13327E-02 13593   0.187E-01    0.133E+00
RMM:   8    -0.739711005377E+03    0.56985E-02   -0.95906E-03 13720   0.147E-01    0.795E-01
RMM:   9    -0.739710221499E+03    0.78388E-03   -0.23292E-03 13640   0.756E-02    0.633E-01
RMM:  10    -0.739709552400E+03    0.66910E-03   -0.68992E-04 12130   0.417E-02    0.507E-01
RMM:  11    -0.739708793088E+03    0.75931E-03   -0.58042E-04 12010   0.363E-02    0.210E-01
RMM:  12    -0.739708813899E+03   -0.20811E-04   -0.31417E-04  9764   0.253E-02
   7 F= -.73970881E+03 E0= -.73908942E+03  d E =-.586450E+00  mag=     0.0276
       N       E                     dE             d eps       ncg     rms          rms(c)
DAV:   1    -0.739646934764E+03    0.61858E-01   -0.14535E+01 13728   0.583E+00    0.128E+00
RMM:   2    -0.739831399228E+03   -0.18446E+00   -0.36536E-01 13442   0.104E+00    0.555E+00
RMM:   3    -0.739693466993E+03    0.13793E+00   -0.56903E-02 13569   0.471E-01    0.200E+00
RMM:   4    -0.739677514535E+03    0.15952E-01   -0.18965E-02 13697   0.245E-01    0.158E+00
RMM:   5    -0.739669655429E+03    0.78591E-02   -0.10941E-02 13576   0.175E-01    0.128E+00
RMM:   6    -0.739666486653E+03    0.31688E-02   -0.42125E-03 13335   0.115E-01    0.914E-01
RMM:   7    -0.739665430313E+03    0.10563E-02   -0.31527E-03 13334   0.883E-02    0.669E-01
RMM:   8    -0.739663635807E+03    0.17945E-02   -0.20184E-03 13256   0.689E-02    0.332E-01
RMM:   9    -0.739663547337E+03    0.88469E-04   -0.47086E-04 11171   0.341E-02
   8 F= -.73966355E+03 E0= -.73904620E+03  d E =-.541183E+00  mag=     0.0208
       N       E                     dE             d eps       ncg     rms          rms(c)
DAV:   1    -0.739710332320E+03   -0.46697E-01   -0.25062E+00 13856   0.242E+00    0.680E-01
RMM:   2    -0.739820840691E+03   -0.11051E+00   -0.68035E-02 13440   0.436E-01    0.426E+00
RMM:   3    -0.739719917364E+03    0.10092E+00   -0.13897E-02 13442   0.243E-01    0.109E+00
RMM:   4    -0.739712447224E+03    0.74701E-02   -0.40284E-03 13364   0.116E-01    0.306E-01
RMM:   5    -0.739712780973E+03   -0.33375E-03   -0.18560E-03 13211   0.716E-02    0.438E-01
RMM:   6    -0.739712619370E+03    0.16160E-03   -0.57830E-04 12176   0.439E-02    0.382E-01
RMM:   7    -0.739712276723E+03    0.34265E-03   -0.46811E-04 11331   0.336E-02    0.243E-01
RMM:   8    -0.739711996727E+03    0.28000E-03   -0.43830E-04 10758   0.300E-02    0.106E-01
RMM:   9    -0.739711966351E+03    0.30376E-04   -0.87443E-05  7659   0.183E-02
   9 F= -.73971197E+03 E0= -.73909354E+03  d E =-.589602E+00  mag=     0.0155
       N       E                     dE             d eps       ncg     rms          rms(c)
DAV:   1    -0.739728659664E+03   -0.16663E-01   -0.12425E+00 13888   0.171E+00    0.388E-01
RMM:   2    -0.739750958430E+03   -0.22299E-01   -0.30703E-02 13440   0.300E-01    0.190E+00
RMM:   3    -0.739732471713E+03    0.18487E-01   -0.49939E-03 13453   0.141E-01    0.595E-01
RMM:   4    -0.739730815036E+03    0.16567E-02   -0.17045E-03 13370   0.734E-02    0.357E-01
RMM:   5    -0.739730756620E+03    0.58416E-04   -0.80970E-04 12583   0.495E-02    0.377E-01
RMM:   6    -0.739730609251E+03    0.14737E-03   -0.27294E-04  9259   0.307E-02    0.306E-01
RMM:   7    -0.739730406977E+03    0.20227E-03   -0.23181E-04  8868   0.262E-02    0.197E-01
RMM:   8    -0.739730229603E+03    0.17737E-03   -0.17649E-04  8229   0.222E-02    0.792E-02
RMM:   9    -0.739730227812E+03    0.17913E-05   -0.42981E-05  7511   0.138E-02
  10 F= -.73973023E+03 E0= -.73911121E+03  d E =-.607864E+00  mag=     0.0115
       N       E                     dE             d eps       ncg     rms          rms(c)
DAV:   1    -0.740049834927E+03   -0.31961E+00   -0.24801E+01 13488   0.803E+00    0.207E+00
RMM:   2    -0.740445801856E+03   -0.39597E+00   -0.79173E-01 13442   0.149E+00    0.886E+00
RMM:   3    -0.740158048761E+03    0.28775E+00   -0.11045E-01 13451   0.696E-01    0.357E+00
RMM:   4    -0.740130863511E+03    0.27185E-01   -0.33022E-02 13469   0.349E-01    0.327E+00
RMM:   5    -0.740081270267E+03    0.49593E-01   -0.24941E-02 13701   0.260E-01    0.192E+00
RMM:   6    -0.740075413729E+03    0.58565E-02   -0.13507E-02 13874   0.178E-01    0.134E+00
RMM:   7    -0.740070649092E+03    0.47646E-02   -0.51862E-03 13458   0.119E-01    0.696E-01
RMM:   8    -0.740071459334E+03   -0.81024E-03   -0.49345E-03 13740   0.960E-02    0.690E-01
RMM:   9    -0.740070938782E+03    0.52055E-03   -0.88975E-04 12372   0.529E-02    0.572E-01
RMM:  10    -0.740069839400E+03    0.10994E-02   -0.47745E-04 11172   0.315E-02    0.298E-01
RMM:  11    -0.740069662171E+03    0.17723E-03   -0.21359E-04  8865   0.252E-02    0.157E-01
RMM:  12    -0.740069626908E+03    0.35263E-04   -0.10303E-04  8137   0.172E-02
  11 F= -.74006963E+03 E0= -.73945220E+03  d E =-.339399E+00  mag=     0.0073
       N       E                     dE             d eps       ncg     rms          rms(c)
DAV:   1    -0.740069716763E+03   -0.54592E-04   -0.72560E-03 14816   0.138E-01    0.109E-01
RMM:   2    -0.740069908056E+03   -0.19129E-03   -0.43952E-04 10358   0.359E-02    0.170E-01
RMM:   3    -0.740070115853E+03   -0.20780E-03   -0.16226E-04  7904   0.264E-02    0.245E-01
RMM:   4    -0.740069927966E+03    0.18789E-03   -0.75014E-05  7389   0.153E-02    0.203E-01
RMM:   5    -0.740069800476E+03    0.12749E-03   -0.19641E-05  6936   0.101E-02    0.120E-01
RMM:   6    -0.740069765695E+03    0.34781E-04   -0.19070E-05  6760   0.698E-03    0.585E-02
RMM:   7    -0.740069749187E+03    0.16507E-04   -0.11306E-05  6488   0.707E-03    0.381E-02
RMM:   8    -0.740069753497E+03   -0.43093E-05   -0.30961E-06  4947   0.393E-03
  12 F= -.74006975E+03 E0= -.73945244E+03  d E =-.339526E+00  mag=     0.0056
       N       E                     dE             d eps       ncg     rms          rms(c)
DAV:   1    -0.740239106942E+03   -0.16936E+00   -0.11944E+01 13472   0.559E+00    0.888E-01
RMM:   2    -0.740326485389E+03   -0.87378E-01   -0.24885E-01 13440   0.925E-01    0.367E+00
RMM:   3    -0.740263970129E+03    0.62515E-01   -0.34793E-02 13607   0.377E-01    0.956E-01
RMM:   4    -0.740279880434E+03   -0.15910E-01   -0.12710E-02 13922   0.197E-01    0.200E+00
RMM:   5    -0.740270306811E+03    0.95736E-02   -0.37602E-03 13455   0.121E-01    0.155E+00
RMM:   6    -0.740267461983E+03    0.28448E-02   -0.16511E-03 12902   0.714E-02    0.125E+00
RMM:   7    -0.740261100297E+03    0.63617E-02   -0.31504E-03 14375   0.822E-02    0.571E-01
RMM:   8    -0.740260227583E+03    0.87271E-03   -0.11451E-03 12812   0.596E-02    0.343E-01
RMM:   9    -0.740260282370E+03   -0.54787E-04   -0.28381E-04  9625   0.272E-02
  13 F= -.74026028E+03 E0= -.73964278E+03  d E =-.190529E+00  mag=     0.0041
       N       E                     dE             d eps       ncg     rms          rms(c)
DAV:   1    -0.740261045743E+03   -0.81816E-03   -0.50100E-02 13936   0.363E-01    0.330E-01
RMM:   2    -0.740293287973E+03   -0.32242E-01   -0.45058E-03 13447   0.106E-01    0.219E+00
RMM:   3    -0.740262641552E+03    0.30646E-01   -0.24470E-03 13240   0.101E-01    0.583E-01
RMM:   4    -0.740261909848E+03    0.73170E-03   -0.60486E-04 11848   0.427E-02    0.438E-01
RMM:   5    -0.740261289532E+03    0.62032E-03   -0.15051E-04  8073   0.226E-02    0.281E-01
RMM:   6    -0.740261027412E+03    0.26212E-03   -0.74628E-05  7707   0.163E-02    0.171E-01
RMM:   7    -0.740260918566E+03    0.10885E-03   -0.30261E-05  7358   0.108E-02    0.837E-02
RMM:   8    -0.740260893519E+03    0.25048E-04   -0.13682E-05  6935   0.749E-03
  14 F= -.74026089E+03 E0= -.73964409E+03  d E =-.191140E+00  mag=     0.0030
       N       E                     dE             d eps       ncg     rms          rms(c)
DAV:   1    -0.740437367180E+03   -0.17645E+00   -0.69811E+00 13504   0.420E+00    0.832E-01
RMM:   2    -0.740481128855E+03   -0.43762E-01   -0.16590E-01 13440   0.789E-01    0.288E+00
RMM:   3    -0.740457551896E+03    0.23577E-01   -0.28980E-02 13929   0.326E-01    0.114E+00
RMM:   4    -0.740466650396E+03   -0.90985E-02   -0.89880E-03 14072   0.165E-01    0.183E+00
RMM:   5    -0.740456732476E+03    0.99179E-02   -0.36493E-03 13467   0.109E-01    0.132E+00
RMM:   6    -0.740454393040E+03    0.23394E-02   -0.17320E-03 12908   0.729E-02    0.991E-01
RMM:   7    -0.740451367986E+03    0.30251E-02   -0.20025E-03 13465   0.737E-02    0.571E-01
RMM:   8    -0.740450198469E+03    0.11695E-02   -0.13759E-03 13058   0.544E-02    0.266E-01
RMM:   9    -0.740450279676E+03   -0.81207E-04   -0.26433E-04  9370   0.278E-02
  15 F= -.74045028E+03 E0= -.73983339E+03  d E =-.189386E+00  mag=     0.0022
       N       E                     dE             d eps       ncg     rms          rms(c)
DAV:   1    -0.740478676276E+03   -0.28478E-01   -0.13753E+00 13968   0.187E+00    0.385E-01
RMM:   2    -0.740484817782E+03   -0.61415E-02   -0.32207E-02 13440   0.352E-01    0.803E-01
RMM:   3    -0.740484946398E+03   -0.12862E-03   -0.60242E-03 13866   0.147E-01    0.834E-01
RMM:   4    -0.740482135661E+03    0.28107E-02   -0.17818E-03 15277   0.702E-02    0.412E-01
RMM:   5    -0.740483401266E+03   -0.12656E-02   -0.67836E-04 12295   0.444E-02    0.676E-01
RMM:   6    -0.740482579822E+03    0.82144E-03   -0.30365E-04  9753   0.336E-02    0.437E-01
RMM:   7    -0.740482075572E+03    0.50425E-03   -0.54132E-04 11718   0.376E-02    0.274E-01
RMM:   8    -0.740481699291E+03    0.37628E-03   -0.30982E-04  9641   0.290E-02    0.922E-02
RMM:   9    -0.740481690231E+03    0.90593E-05   -0.59767E-05  7926   0.163E-02
  16 F= -.74048169E+03 E0= -.73986507E+03  d E =-.220797E+00  mag=     0.0016
       N       E                     dE             d eps       ncg     rms          rms(c)
DAV:   1    -0.740597410315E+03   -0.11571E+00   -0.51539E+00 13472   0.363E+00    0.730E-01
RMM:   2    -0.740616007581E+03   -0.18597E-01   -0.11933E-01 13440   0.689E-01    0.142E+00
RMM:   3    -0.740618599799E+03   -0.25922E-02   -0.21109E-02 13573   0.285E-01    0.134E+00
RMM:   4    -0.740609458562E+03    0.91412E-02   -0.74587E-03 15489   0.143E-01    0.558E-01
RMM:   5    -0.740608643211E+03    0.81535E-03   -0.18078E-03 13374   0.757E-02    0.418E-01
RMM:   6    -0.740608533696E+03    0.10952E-03   -0.14845E-03 13045   0.617E-02    0.290E-01
RMM:   7    -0.740608442959E+03    0.90737E-04   -0.10172E-03 12805   0.517E-02    0.211E-01
RMM:   8    -0.740608294278E+03    0.14868E-03   -0.40164E-04 11053   0.366E-02    0.162E-01
RMM:   9    -0.740608130710E+03    0.16357E-03   -0.14312E-04  8184   0.220E-02    0.405E-02
RMM:  10    -0.740608129880E+03    0.83047E-06   -0.37385E-05  7731   0.129E-02
  17 F= -.74060813E+03 E0= -.73999219E+03  d E =-.126440E+00  mag=     0.0011
       N       E                     dE             d eps       ncg     rms          rms(c)
DAV:   1    -0.740612644835E+03   -0.45141E-02   -0.24947E-01 13984   0.799E-01    0.165E-01
RMM:   2    -0.740613544650E+03   -0.89982E-03   -0.59477E-03 13440   0.153E-01    0.302E-01
RMM:   3    -0.740613624376E+03   -0.79726E-04   -0.10637E-03 13247   0.636E-02    0.283E-01
RMM:   4    -0.740613278400E+03    0.34598E-03   -0.34907E-04  9596   0.320E-02    0.143E-01
RMM:   5    -0.740613236932E+03    0.41468E-04   -0.94782E-05  7943   0.213E-02    0.965E-02
RMM:   6    -0.740613268341E+03   -0.31409E-04   -0.74348E-05  7845   0.146E-02    0.110E-01
RMM:   7    -0.740613231017E+03    0.37324E-04   -0.45856E-05  7756   0.138E-02    0.560E-02
RMM:   8    -0.740613227163E+03    0.38540E-05   -0.29738E-05  7359   0.978E-03
  18 F= -.74061323E+03 E0= -.73999752E+03  d E =-.131537E+00  mag=     0.0008
       N       E                     dE             d eps       ncg     rms          rms(c)
DAV:   1    -0.740718101335E+03   -0.10487E+00   -0.35351E+00 13536   0.302E+00    0.553E-01
RMM:   2    -0.740728618631E+03   -0.10517E-01   -0.72012E-02 13440   0.510E-01    0.109E+00
RMM:   3    -0.740728860882E+03   -0.24225E-03   -0.11493E-02 13478   0.219E-01    0.793E-01
RMM:   4    -0.740728921190E+03   -0.60307E-04   -0.41805E-03 14464   0.110E-01    0.887E-01
RMM:   5    -0.740725422012E+03    0.34992E-02   -0.11213E-03 13024   0.640E-02    0.391E-01
RMM:   6    -0.740724732977E+03    0.68904E-03   -0.89804E-04 12655   0.454E-02    0.201E-01
RMM:   7    -0.740724714521E+03    0.18456E-04   -0.45634E-04 11258   0.350E-02    0.113E-01
RMM:   8    -0.740724683966E+03    0.30555E-04   -0.17188E-04  8520   0.249E-02
  19 F= -.74072468E+03 E0= -.74010956E+03  d E =-.111457E+00  mag=     0.0006
       N       E                     dE             d eps       ncg     rms          rms(c)
DAV:   1    -0.740747345316E+03   -0.22631E-01   -0.22807E+00 13856   0.243E+00    0.441E-01
RMM:   2    -0.740753666898E+03   -0.63216E-02   -0.46300E-02 13440   0.409E-01    0.820E-01
RMM:   3    -0.740753213656E+03    0.45324E-03   -0.73443E-03 13526   0.174E-01    0.494E-01
RMM:   4    -0.740756018849E+03   -0.28052E-02   -0.27846E-03 14391   0.887E-02    0.867E-01
RMM:   5    -0.740752266206E+03    0.37526E-02   -0.73760E-04 12649   0.518E-02    0.335E-01
RMM:   6    -0.740751847081E+03    0.41912E-03   -0.64133E-04 12081   0.374E-02    0.187E-01
RMM:   7    -0.740751959029E+03   -0.11195E-03   -0.29580E-04  9820   0.286E-02    0.191E-01
RMM:   8    -0.740751770912E+03    0.18812E-03   -0.14373E-04  8133   0.239E-02    0.770E-02
RMM:   9    -0.740751757908E+03    0.13004E-04   -0.55789E-05  7935   0.141E-02
  20 F= -.74075176E+03 E0= -.74013716E+03  d E =-.138531E+00  mag=     0.0005
       N       E                     dE             d eps       ncg     rms          rms(c)
DAV:   1    -0.740862737133E+03   -0.11097E+00   -0.22552E+00 13568   0.243E+00    0.411E-01
RMM:   2    -0.740868640738E+03   -0.59036E-02   -0.45708E-02 13440   0.405E-01    0.575E-01
RMM:   3    -0.740873446757E+03   -0.48060E-02   -0.79298E-03 14117   0.166E-01    0.999E-01
RMM:   4    -0.740867476878E+03    0.59699E-02   -0.19155E-03 13403   0.856E-02    0.249E-01
RMM:   5    -0.740867565676E+03   -0.88798E-04   -0.81530E-04 12625   0.538E-02    0.281E-01
RMM:   6    -0.740867415093E+03    0.15058E-03   -0.46642E-04 11231   0.383E-02    0.115E-01
RMM:   7    -0.740867462668E+03   -0.47575E-04   -0.25769E-04  9219   0.258E-02    0.115E-01
RMM:   8    -0.740867433514E+03    0.29154E-04   -0.10488E-04  8007   0.197E-02
  21 F= -.74086743E+03 E0= -.74025391E+03  d E =-.115676E+00  mag=     0.0003
       N       E                     dE             d eps       ncg     rms          rms(c)
DAV:   1    -0.740937697293E+03   -0.70235E-01   -0.46894E+00 13472   0.350E+00    0.609E-01
RMM:   2    -0.740947898768E+03   -0.10201E-01   -0.95341E-02 13440   0.586E-01    0.641E-01
RMM:   3    -0.740958780608E+03   -0.10882E-01   -0.15842E-02 14162   0.236E-01    0.136E+00
RMM:   4    -0.740947660384E+03    0.11120E-01   -0.38767E-03 13855   0.118E-01    0.357E-01
RMM:   5    -0.740947922582E+03   -0.26220E-03   -0.16198E-03 13081   0.745E-02    0.427E-01
RMM:   6    -0.740947499992E+03    0.42259E-03   -0.92961E-04 12618   0.558E-02    0.175E-01
RMM:   7    -0.740947524588E+03   -0.24596E-04   -0.51172E-04 11541   0.351E-02    0.143E-01
RMM:   8    -0.740947479907E+03    0.44681E-04   -0.19972E-04  8667   0.250E-02
  22 F= -.74094748E+03 E0= -.74033532E+03  d E =-.195722E+00  mag=     0.0002
       N       E                     dE             d eps       ncg     rms          rms(c)
DAV:   1    -0.740946751949E+03    0.77264E-03   -0.43845E-01 13952   0.107E+00    0.205E-01
RMM:   2    -0.740948210334E+03   -0.14584E-02   -0.92072E-03 13440   0.182E-01    0.319E-01
RMM:   3    -0.740949393703E+03   -0.11834E-02   -0.16823E-03 13834   0.764E-02    0.535E-01
RMM:   4    -0.740947731979E+03    0.16617E-02   -0.42099E-04 11342   0.405E-02    0.126E-01
RMM:   5    -0.740947782143E+03   -0.50163E-04   -0.18306E-04  8470   0.260E-02    0.144E-01
RMM:   6    -0.740947765621E+03    0.16521E-04   -0.11137E-04  8015   0.211E-02    0.761E-02
RMM:   7    -0.740947793407E+03   -0.27785E-04   -0.59233E-05  7868   0.142E-02    0.795E-02
RMM:   8    -0.740947778701E+03    0.14706E-04   -0.27768E-05  7468   0.109E-02
  23 F= -.74094778E+03 E0= -.74033585E+03  d E =-.196021E+00  mag=     0.0002
       N       E                     dE             d eps       ncg     rms          rms(c)
DAV:   1    -0.741039655361E+03   -0.91862E-01   -0.36620E+00 13472   0.312E+00    0.507E-01
RMM:   2    -0.741049648221E+03   -0.99929E-02   -0.78207E-02 13440   0.557E-01    0.782E-01
RMM:   3    -0.741052239938E+03   -0.25917E-02   -0.14176E-02 14432   0.214E-01    0.919E-01
RMM:   4    -0.741048581947E+03    0.36580E-02   -0.31231E-03 14093   0.104E-01    0.416E-01
RMM:   5    -0.741048946805E+03   -0.36486E-03   -0.10331E-03 13177   0.595E-02    0.406E-01
RMM:   6    -0.741048854815E+03    0.91989E-04   -0.10193E-03 12859   0.561E-02    0.357E-01
RMM:   7    -0.741048553351E+03    0.30146E-03   -0.68369E-04 12504   0.473E-02    0.242E-01
RMM:   8    -0.741048269939E+03    0.28341E-03   -0.32696E-04  9794   0.312E-02    0.121E-01
RMM:   9    -0.741048223150E+03    0.46789E-04   -0.88470E-05  8009   0.183E-02
  24 F= -.74104822E+03 E0= -.74043725E+03  d E =-.100444E+00  mag=     0.0001
       N       E                     dE             d eps       ncg     rms          rms(c)
DAV:   1    -0.740996064101E+03    0.52206E-01   -0.90583E+00 13440   0.490E+00    0.809E-01
RMM:   2    -0.741031381122E+03   -0.35317E-01   -0.19749E-01 13440   0.882E-01    0.172E+00
RMM:   3    -0.741027882654E+03    0.34985E-02   -0.35906E-02 14257   0.344E-01    0.145E+00
RMM:   4    -0.741018287017E+03    0.95956E-02   -0.84160E-03 14003   0.173E-01    0.642E-01
RMM:   5    -0.741018361858E+03   -0.74841E-04   -0.25940E-03 13962   0.930E-02    0.509E-01
RMM:   6    -0.741019178751E+03   -0.81689E-03   -0.24896E-03 13397   0.847E-02    0.557E-01
RMM:   7    -0.741018277773E+03    0.90098E-03   -0.15395E-03 12878   0.724E-02    0.377E-01
RMM:   8    -0.741017595883E+03    0.68189E-03   -0.72949E-04 12413   0.468E-02    0.193E-01
RMM:   9    -0.741017447155E+03    0.14873E-03   -0.22982E-04  8882   0.240E-02    0.904E-02
RMM:  10    -0.741017422233E+03    0.24921E-04   -0.58612E-05  8043   0.166E-02
  25 F= -.74101742E+03 E0= -.74040819E+03  d E =-.696435E-01  mag=     0.0001
       N       E                     dE             d eps       ncg     rms          rms(c)
DAV:   1    -0.741068158396E+03   -0.50711E-01   -0.33000E+00 13440   0.295E+00    0.475E-01
RMM:   2    -0.741078306511E+03   -0.10148E-01   -0.69301E-02 13440   0.525E-01    0.861E-01
RMM:   3    -0.741079267256E+03   -0.96074E-03   -0.12514E-02 14273   0.203E-01    0.866E-01
RMM:   4    -0.741075854293E+03    0.34130E-02   -0.28161E-03 13938   0.101E-01    0.374E-01
RMM:   5    -0.741076008506E+03   -0.15421E-03   -0.90185E-04 13038   0.556E-02    0.339E-01
RMM:   6    -0.741076273139E+03   -0.26463E-03   -0.96431E-04 12956   0.527E-02    0.337E-01
RMM:   7    -0.741075903847E+03    0.36929E-03   -0.58181E-04 12253   0.440E-02    0.225E-01
RMM:   8    -0.741075651996E+03    0.25185E-03   -0.27307E-04  9180   0.288E-02    0.102E-01
RMM:   9    -0.741075622958E+03    0.29038E-04   -0.75711E-05  7925   0.174E-02
  26 F= -.74107562E+03 E0= -.74046550E+03  d E =-.127844E+00  mag=     0.0001
       N       E                     dE             d eps       ncg     rms          rms(c)
DAV:   1    -0.741147327734E+03   -0.71676E-01   -0.25749E+00 13472   0.256E+00    0.442E-01
RMM:   2    -0.741159562516E+03   -0.12235E-01   -0.50247E-02 13440   0.421E-01    0.154E+00
RMM:   3    -0.741153211514E+03    0.63510E-02   -0.80651E-03 13662   0.178E-01    0.630E-01
RMM:   4    -0.741157532241E+03   -0.43207E-02   -0.29544E-03 14545   0.872E-02    0.105E+00
RMM:   5    -0.741152820266E+03    0.47120E-02   -0.88536E-04 12690   0.559E-02    0.529E-01
RMM:   6    -0.741152834998E+03   -0.14732E-04   -0.79189E-04 12700   0.451E-02    0.417E-01
RMM:   7    -0.741152282332E+03    0.55267E-03   -0.40653E-04 10950   0.377E-02    0.258E-01
RMM:   8    -0.741152218773E+03    0.63559E-04   -0.18172E-04  8604   0.250E-02
  27 F= -.74115222E+03 E0= -.74054288E+03  d E =-.765958E-01  mag=     0.0000
       N       E                     dE             d eps       ncg     rms          rms(c)
DAV:   1    -0.741154108437E+03   -0.18261E-02   -0.64808E-02 14208   0.408E-01    0.160E-01
RMM:   2    -0.741156455585E+03   -0.23471E-02   -0.16576E-03 13410   0.745E-02    0.567E-01
RMM:   3    -0.741155010463E+03    0.14451E-02   -0.47835E-04 11664   0.432E-02    0.374E-01
RMM:   4    -0.741154447702E+03    0.56276E-03   -0.19589E-04  8572   0.260E-02    0.240E-01
RMM:   5    -0.741154335609E+03    0.11209E-03   -0.48227E-05  7658   0.157E-02    0.152E-01
RMM:   6    -0.741154302434E+03    0.33175E-04   -0.40450E-05  7558   0.106E-02    0.108E-01
RMM:   7    -0.741154272159E+03    0.30275E-04   -0.28037E-05  7292   0.106E-02    0.562E-02
RMM:   8    -0.741154256267E+03    0.15892E-04   -0.67245E-06  6432   0.545E-03
  28 F= -.74115426E+03 E0= -.74054524E+03  d E =-.786333E-01  mag=     0.0000
       N       E                     dE             d eps       ncg     rms          rms(c)
DAV:   1    -0.741225028030E+03   -0.70756E-01   -0.13684E+00 13472   0.188E+00    0.356E-01
RMM:   2    -0.741232957818E+03   -0.79298E-02   -0.30542E-02 13440   0.337E-01    0.139E+00
RMM:   3    -0.741228799359E+03    0.41585E-02   -0.47673E-03 13798   0.137E-01    0.697E-01
RMM:   4    -0.741231272205E+03   -0.24728E-02   -0.17678E-03 14613   0.660E-02    0.931E-01
RMM:   5    -0.741228060400E+03    0.32118E-02   -0.75663E-04 12598   0.452E-02    0.486E-01
RMM:   6    -0.741228108453E+03   -0.48053E-04   -0.38715E-04 10878   0.359E-02    0.436E-01
RMM:   7    -0.741227955742E+03    0.15271E-03   -0.27664E-04  9427   0.299E-02    0.306E-01
RMM:   8    -0.741227789525E+03    0.16622E-03   -0.20315E-04  8657   0.232E-02    0.210E-01
RMM:   9    -0.741227731918E+03    0.57607E-04   -0.52567E-05  7696   0.152E-02
  29 F= -.74122773E+03 E0= -.74061943E+03  d E =-.734757E-01  mag=     0.0000
       N       E                     dE             d eps       ncg     rms          rms(c)
DAV:   1    -0.741239204843E+03   -0.11415E-01   -0.29367E-01 13888   0.869E-01    0.180E-01
RMM:   2    -0.741240116704E+03   -0.91186E-03   -0.63092E-03 13440   0.155E-01    0.464E-01
RMM:   3    -0.741240212215E+03   -0.95511E-04   -0.12105E-03 13485   0.611E-02    0.416E-01
RMM:   4    -0.741239832798E+03    0.37942E-03   -0.36351E-04 10250   0.370E-02    0.233E-01
RMM:   5    -0.741240128760E+03   -0.29596E-03   -0.15569E-04  8196   0.233E-02    0.321E-01
RMM:   6    -0.741240064242E+03    0.64518E-04   -0.86498E-05  7808   0.173E-02    0.338E-01
RMM:   7    -0.741239987965E+03    0.76277E-04   -0.88773E-05  7715   0.165E-02    0.318E-01
RMM:   8    -0.741239946461E+03    0.41503E-04   -0.10844E-04  7809   0.186E-02
  30 F= -.74123995E+03 E0= -.74063210E+03  d E =-.856902E-01  mag=     0.0000
       N       E                     dE             d eps       ncg     rms          rms(c)
DAV:   1    -0.741227780096E+03    0.12208E-01   -0.11691E+00 13440   0.173E+00    0.401E-01
RMM:   2    -0.741234377206E+03   -0.65971E-02   -0.27029E-02 13440   0.317E-01    0.137E+00
RMM:   3    -0.741233324891E+03    0.10523E-02   -0.52345E-03 14852   0.126E-01    0.111E+00
RMM:   4    -0.741242442782E+03   -0.91179E-02   -0.21910E-03 13286   0.792E-02    0.145E+00
RMM:   5    -0.741230145927E+03    0.12297E-01   -0.10551E-03 12774   0.596E-02    0.546E-01
RMM:   6    -0.741230492967E+03   -0.34704E-03   -0.40767E-04 11138   0.323E-02    0.598E-01
RMM:   7    -0.741230768419E+03   -0.27545E-03   -0.32921E-04 10023   0.298E-02    0.510E-01
RMM:   8    -0.741230574697E+03    0.19372E-03   -0.18265E-04  8370   0.258E-02    0.408E-01
RMM:   9    -0.741230411216E+03    0.16348E-03   -0.58915E-05  7769   0.149E-02    0.343E-01
RMM:  10    -0.741230364977E+03    0.46239E-04   -0.20552E-05  7152   0.813E-03
  31 F= -.74123036E+03 E0= -.74062319E+03  d E =-.761087E-01  mag=     0.0000
       N       E                     dE             d eps       ncg     rms          rms(c)
DAV:   1    -0.741241185982E+03   -0.10775E-01   -0.52962E-01 13472   0.117E+00    0.404E-01
RMM:   2    -0.741245231683E+03   -0.40457E-02   -0.12204E-02 13440   0.213E-01    0.922E-01
RMM:   3    -0.741244539825E+03    0.69186E-03   -0.26533E-03 13362   0.109E-01    0.641E-01
RMM:   4    -0.741242513424E+03    0.20264E-02   -0.74492E-04 12526   0.505E-02    0.342E-01
RMM:   5    -0.741241933428E+03    0.58000E-03   -0.26937E-04  9214   0.315E-02    0.148E-01
RMM:   6    -0.741241987182E+03   -0.53754E-04   -0.19068E-04  8530   0.241E-02    0.166E-01
RMM:   7    -0.741241895599E+03    0.91584E-04   -0.12636E-04  7852   0.218E-02    0.907E-02
RMM:   8    -0.741241861542E+03    0.34056E-04   -0.41921E-05  7482   0.130E-02
  32 F= -.74124186E+03 E0= -.74063416E+03  d E =-.876053E-01  mag=     0.0000
       N       E                     dE             d eps       ncg     rms          rms(c)
DAV:   1    -0.741314644236E+03   -0.72749E-01   -0.77083E-01 13808   0.143E+00    0.237E-01
RMM:   2    -0.741316342880E+03   -0.16986E-02   -0.15389E-02 13440   0.237E-01    0.419E-01
RMM:   3    -0.741316379359E+03   -0.36479E-04   -0.24196E-03 14001   0.948E-02    0.213E-01
RMM:   4    -0.741318457645E+03   -0.20783E-02   -0.83068E-04 12971   0.482E-02    0.640E-01
RMM:   5    -0.741316452232E+03    0.20054E-02   -0.29161E-04  9578   0.341E-02    0.279E-01
RMM:   6    -0.741316235381E+03    0.21685E-03   -0.16871E-04  8362   0.251E-02    0.120E-01
RMM:   7    -0.741316272021E+03   -0.36640E-04   -0.12879E-04  7880   0.200E-02    0.116E-01
RMM:   8    -0.741316252965E+03    0.19055E-04   -0.49981E-05  7712   0.157E-02
  33 F= -.74131625E+03 E0= -.74070898E+03  d E =-.743914E-01  mag=     0.0000
       N       E                     dE             d eps       ncg     rms          rms(c)
DAV:   1    -0.741379068318E+03   -0.62796E-01   -0.51075E+00 13440   0.367E+00    0.615E-01
RMM:   2    -0.741389439235E+03   -0.10371E-01   -0.10131E-01 13440   0.608E-01    0.946E-01
RMM:   3    -0.741390346047E+03   -0.90681E-03   -0.16297E-02 14404   0.242E-01    0.483E-01
RMM:   4    -0.741410828432E+03   -0.20482E-01   -0.56508E-03 13801   0.124E-01    0.194E+00
RMM:   5    -0.741391331339E+03    0.19497E-01   -0.19325E-03 13138   0.894E-02    0.698E-01
RMM:   6    -0.741389793212E+03    0.15381E-02   -0.10738E-03 12688   0.580E-02    0.292E-01
RMM:   7    -0.741389953138E+03   -0.15993E-03   -0.90567E-04 12710   0.477E-02    0.218E-01
RMM:   8    -0.741389919672E+03    0.33466E-04   -0.24221E-04  9341   0.312E-02
  34 F= -.74138992E+03 E0= -.74078326E+03  d E =-.148058E+00  mag=     0.0000
       N       E                     dE             d eps       ncg     rms          rms(c)
DAV:   1    -0.741396078779E+03   -0.61256E-02   -0.37501E-01 13936   0.995E-01    0.221E-01
RMM:   2    -0.741400911713E+03   -0.48329E-02   -0.78396E-03 13440   0.168E-01    0.890E-01
RMM:   3    -0.741397731936E+03    0.31798E-02   -0.15072E-03 13294   0.800E-02    0.398E-01
RMM:   4    -0.741396700557E+03    0.10314E-02   -0.40527E-04 10702   0.393E-02    0.136E-01
RMM:   5    -0.741396717761E+03   -0.17204E-04   -0.16937E-04  8102   0.254E-02    0.153E-01
RMM:   6    -0.741396702149E+03    0.15612E-04   -0.83868E-05  7460   0.174E-02    0.121E-01
RMM:   7    -0.741396674705E+03    0.27444E-04   -0.73491E-05  7378   0.161E-02    0.766E-02
RMM:   8    -0.741396655939E+03    0.18766E-04   -0.48858E-05  7263   0.134E-02
  35 F= -.74139666E+03 E0= -.74078969E+03  d E =-.154794E+00  mag=     0.0000
       N       E                     dE             d eps       ncg     rms          rms(c)
DAV:   1    -0.741459063006E+03   -0.62388E-01   -0.96375E-01 13792   0.158E+00    0.268E-01
RMM:   2    -0.741461391437E+03   -0.23284E-02   -0.18221E-02 13440   0.268E-01    0.437E-01
RMM:   3    -0.741461416295E+03   -0.24858E-04   -0.34384E-03 14689   0.108E-01    0.306E-01
RMM:   4    -0.741462147928E+03   -0.73163E-03   -0.84304E-04 13253   0.518E-02    0.431E-01
RMM:   5    -0.741461393045E+03    0.75488E-03   -0.39190E-04 11447   0.373E-02    0.273E-01
RMM:   6    -0.741461220656E+03    0.17239E-03   -0.22627E-04  8699   0.293E-02    0.154E-01
RMM:   7    -0.741461191833E+03    0.28823E-04   -0.17144E-04  8346   0.249E-02    0.113E-01
RMM:   8    -0.741461129213E+03    0.62619E-04   -0.75459E-05  7880   0.174E-02
  36 F= -.74146113E+03 E0= -.74085436E+03  d E =-.644733E-01  mag=     0.0000
       N       E                     dE             d eps       ncg     rms          rms(c)
DAV:   1    -0.741503025391E+03   -0.41834E-01   -0.90926E-01 13744   0.153E+00    0.260E-01
RMM:   2    -0.741505370945E+03   -0.23456E-02   -0.17286E-02 13440   0.260E-01    0.443E-01
RMM:   3    -0.741505397591E+03   -0.26646E-04   -0.33248E-03 14816   0.105E-01    0.322E-01
RMM:   4    -0.741505697050E+03   -0.29946E-03   -0.76808E-04 13121   0.500E-02    0.359E-01
RMM:   5    -0.741505376895E+03    0.32015E-03   -0.36569E-04 10961   0.358E-02    0.288E-01
RMM:   6    -0.741505172115E+03    0.20478E-03   -0.21521E-04  8527   0.294E-02    0.155E-01
RMM:   7    -0.741505144026E+03    0.28089E-04   -0.15539E-04  8163   0.233E-02    0.119E-01
RMM:   8    -0.741505084497E+03    0.59529E-04   -0.74266E-05  7899   0.174E-02
  37 F= -.74150508E+03 E0= -.74089848E+03  d E =-.108429E+00  mag=     0.0000
       N       E                     dE             d eps       ncg     rms          rms(c)
DAV:   1    -0.741465776465E+03    0.39368E-01   -0.36100E+00 13440   0.305E+00    0.538E-01
RMM:   2    -0.741476102916E+03   -0.10326E-01   -0.69054E-02 13440   0.520E-01    0.981E-01
RMM:   3    -0.741475608525E+03    0.49439E-03   -0.13383E-02 14760   0.211E-01    0.686E-01
RMM:   4    -0.741476015249E+03   -0.40672E-03   -0.31863E-03 14154   0.102E-01    0.676E-01
RMM:   5    -0.741475153267E+03    0.86198E-03   -0.15572E-03 13236   0.733E-02    0.586E-01
RMM:   6    -0.741474239226E+03    0.91404E-03   -0.85920E-04 12690   0.569E-02    0.321E-01
RMM:   7    -0.741474082191E+03    0.15704E-03   -0.65623E-04 12340   0.447E-02    0.228E-01
RMM:   8    -0.741473810943E+03    0.27125E-03   -0.28984E-04  9649   0.310E-02    0.882E-02
RMM:   9    -0.741473790080E+03    0.20863E-04   -0.79203E-05  7990   0.176E-02
  38 F= -.74147379E+03 E0= -.74086750E+03  d E =-.771341E-01  mag=     0.0000
       N       E                     dE             d eps       ncg     rms          rms(c)
DAV:   1    -0.741507214207E+03   -0.33403E-01   -0.82737E-01 13792   0.146E+00    0.280E-01
RMM:   2    -0.741509580334E+03   -0.23661E-02   -0.15577E-02 13440   0.247E-01    0.512E-01
RMM:   3    -0.741509295256E+03    0.28508E-03   -0.28423E-03 14162   0.101E-01    0.338E-01
RMM:   4    -0.741509716273E+03   -0.42102E-03   -0.81304E-04 13218   0.507E-02    0.393E-01
RMM:   5    -0.741509195966E+03    0.52031E-03   -0.41858E-04 11800   0.374E-02    0.275E-01
RMM:   6    -0.741508995048E+03    0.20092E-03   -0.26004E-04  9423   0.308E-02    0.169E-01
RMM:   7    -0.741508927990E+03    0.67058E-04   -0.17396E-04  8343   0.253E-02    0.110E-01
RMM:   8    -0.741508865395E+03    0.62594E-04   -0.67226E-05  7574   0.165E-02
  39 F= -.74150887E+03 E0= -.74090249E+03  d E =-.112209E+00  mag=     0.0000
       N       E                     dE             d eps       ncg     rms          rms(c)
DAV:   1    -0.741517498274E+03   -0.85703E-02   -0.24496E-01 13888   0.795E-01    0.148E-01
RMM:   2    -0.741518075720E+03   -0.57745E-03   -0.47128E-03 13440   0.136E-01    0.209E-01
RMM:   3    -0.741518148222E+03   -0.72502E-04   -0.90176E-04 13328   0.547E-02    0.170E-01
RMM:   4    -0.741518386928E+03   -0.23871E-03   -0.23103E-04  8300   0.278E-02    0.249E-01
RMM:   5    -0.741518158827E+03    0.22810E-03   -0.12794E-04  7964   0.243E-02    0.164E-01
RMM:   6    -0.741518100208E+03    0.58619E-04   -0.66358E-05  7706   0.164E-02    0.800E-02
RMM:   7    -0.741518090095E+03    0.10112E-04   -0.41733E-05  7574   0.122E-02    0.680E-02
RMM:   8    -0.741518073755E+03    0.16340E-04   -0.19643E-05  7023   0.921E-03
  40 F= -.74151807E+03 E0= -.74091163E+03  d E =-.121418E+00  mag=     0.0000
       N       E                     dE             d eps       ncg     rms          rms(c)
DAV:   1    -0.741566623312E+03   -0.48533E-01   -0.12099E+00 13792   0.174E+00    0.327E-01
RMM:   2    -0.741569266666E+03   -0.26434E-02   -0.24233E-02 13440   0.303E-01    0.421E-01
RMM:   3    -0.741569250075E+03    0.16591E-04   -0.44411E-03 14538   0.121E-01    0.270E-01
RMM:   4    -0.741571096204E+03   -0.18461E-02   -0.11100E-03 13367   0.597E-02    0.555E-01
RMM:   5    -0.741570732263E+03    0.36394E-03   -0.61356E-04 12559   0.433E-02    0.524E-01
RMM:   6    -0.741569269535E+03    0.14627E-02   -0.31302E-04  9887   0.340E-02    0.153E-01
RMM:   7    -0.741569306739E+03   -0.37205E-04   -0.20139E-04  8675   0.255E-02    0.137E-01
RMM:   8    -0.741569192679E+03    0.11406E-03   -0.10702E-04  7980   0.206E-02    0.506E-02
RMM:   9    -0.741569191280E+03    0.13990E-05   -0.25855E-05  7564   0.105E-02
  41 F= -.74156919E+03 E0= -.74096283E+03  d E =-.511175E-01  mag=     0.0000
       N       E                     dE             d eps       ncg     rms          rms(c)
DAV:   1    -0.741575370808E+03   -0.61781E-02   -0.17832E-01 13904   0.668E-01    0.132E-01
RMM:   2    -0.741575888907E+03   -0.51810E-03   -0.36529E-03 13432   0.117E-01    0.194E-01
RMM:   3    -0.741576088607E+03   -0.19970E-03   -0.70828E-04 12684   0.476E-02    0.256E-01
RMM:   4    -0.741575775155E+03    0.31345E-03   -0.16587E-04  8116   0.247E-02    0.910E-02
RMM:   5    -0.741575898541E+03   -0.12339E-03   -0.88807E-05  7902   0.200E-02    0.156E-01
RMM:   6    -0.741575799701E+03    0.98840E-04   -0.58613E-05  7664   0.149E-02    0.783E-02
RMM:   7    -0.741575800996E+03   -0.12952E-05   -0.33452E-05  7438   0.113E-02    0.606E-02
RMM:   8    -0.741575782982E+03    0.18014E-04   -0.15810E-05  6840   0.809E-03
  42 F= -.74157578E+03 E0= -.74096944E+03  d E =-.577092E-01  mag=     0.0000
       N       E                     dE             d eps       ncg     rms          rms(c)
DAV:   1    -0.741570905865E+03    0.48951E-02   -0.71554E-01 13504   0.134E+00    0.251E-01
RMM:   2    -0.741572756054E+03   -0.18502E-02   -0.14419E-02 13440   0.233E-01    0.357E-01
RMM:   3    -0.741573341537E+03   -0.58548E-03   -0.27215E-03 14317   0.936E-02    0.440E-01
RMM:   4    -0.741572509174E+03    0.83236E-03   -0.66278E-04 12567   0.455E-02    0.168E-01
RMM:   5    -0.741572914519E+03   -0.40534E-03   -0.30069E-04  9633   0.312E-02    0.299E-01
RMM:   6    -0.741572506904E+03    0.40762E-03   -0.22259E-04  8670   0.299E-02    0.127E-01
RMM:   7    -0.741572528921E+03   -0.22017E-04   -0.12841E-04  8078   0.210E-02    0.114E-01
RMM:   8    -0.741572455649E+03    0.73272E-04   -0.63729E-05  7797   0.161E-02
  43 F= -.74157246E+03 E0= -.74096622E+03  d E =-.543819E-01  mag=     0.0000
       N       E                     dE             d eps       ncg     rms          rms(c)
DAV:   1    -0.741576209442E+03   -0.36805E-02   -0.27460E-01 14032   0.829E-01    0.150E-01
RMM:   2    -0.741576832006E+03   -0.62256E-03   -0.54515E-03 13440   0.144E-01    0.234E-01
RMM:   3    -0.741576817359E+03    0.14647E-04   -0.97220E-04 13207   0.576E-02    0.129E-01
RMM:   4    -0.741577631228E+03   -0.81387E-03   -0.31955E-04  9431   0.303E-02    0.378E-01
RMM:   5    -0.741576858172E+03    0.77306E-03   -0.12977E-04  7929   0.242E-02    0.158E-01
RMM:   6    -0.741576787514E+03    0.70658E-04   -0.85822E-05  7550   0.169E-02    0.834E-02
RMM:   7    -0.741576796838E+03   -0.93240E-05   -0.51163E-05  7373   0.134E-02    0.618E-02
RMM:   8    -0.741576776736E+03    0.20102E-04   -0.26017E-05  6970   0.999E-03
  44 F= -.74157678E+03 E0= -.74097050E+03  d E =-.587030E-01  mag=     0.0000
       N       E                     dE             d eps       ncg     rms          rms(c)
DAV:   1    -0.741629067732E+03   -0.52271E-01   -0.11115E+00 13440   0.168E+00    0.298E-01
RMM:   2    -0.741632183089E+03   -0.31154E-02   -0.23247E-02 13440   0.293E-01    0.586E-01
RMM:   3    -0.741631897304E+03    0.28578E-03   -0.40449E-03 14381   0.119E-01    0.330E-01
RMM:   4    -0.741633712119E+03   -0.18148E-02   -0.12115E-03 13524   0.604E-02    0.660E-01
RMM:   5    -0.741631769763E+03    0.19424E-02   -0.46259E-04 11870   0.415E-02    0.342E-01
RMM:   6    -0.741631461593E+03    0.30817E-03   -0.29007E-04  9407   0.301E-02    0.181E-01
RMM:   7    -0.741631439888E+03    0.21705E-04   -0.21657E-04  9005   0.264E-02    0.150E-01
RMM:   8    -0.741631358093E+03    0.81795E-04   -0.10281E-04  7884   0.201E-02
  45 F= -.74163136E+03 E0= -.74102516E+03  d E =-.545814E-01  mag=     0.0000
       N       E                     dE             d eps       ncg     rms          rms(c)
DAV:   1    -0.741645250219E+03   -0.13810E-01   -0.71488E-01 13632   0.135E+00    0.252E-01
RMM:   2    -0.741646986005E+03   -0.17358E-02   -0.14999E-02 13440   0.236E-01    0.342E-01
RMM:   3    -0.741647266403E+03   -0.28040E-03   -0.26724E-03 14443   0.953E-02    0.341E-01
RMM:   4    -0.741647137805E+03    0.12860E-03   -0.67523E-04 12629   0.456E-02    0.244E-01
RMM:   5    -0.741647331272E+03   -0.19347E-03   -0.29399E-04  9455   0.313E-02    0.325E-01
RMM:   6    -0.741646901137E+03    0.43014E-03   -0.20816E-04  8497   0.290E-02    0.135E-01
RMM:   7    -0.741646943629E+03   -0.42492E-04   -0.15339E-04  8195   0.206E-02    0.135E-01
RMM:   8    -0.741646831577E+03    0.11205E-03   -0.69618E-05  7772   0.179E-02    0.393E-02
RMM:   9    -0.741646833643E+03   -0.20660E-05   -0.16308E-05  7220   0.809E-03
  46 F= -.74164683E+03 E0= -.74104069E+03  d E =-.700569E-01  mag=     0.0000
       N       E                     dE             d eps       ncg     rms          rms(c)
DAV:   1    -0.741691360180E+03   -0.44529E-01   -0.93162E-01 13600   0.152E+00    0.286E-01
RMM:   2    -0.741693553781E+03   -0.21936E-02   -0.18937E-02 13440   0.263E-01    0.398E-01
RMM:   3    -0.741693603003E+03   -0.49221E-04   -0.31885E-03 13879   0.110E-01    0.288E-01
RMM:   4    -0.741694988400E+03   -0.13854E-02   -0.12162E-03 13887   0.576E-02    0.510E-01
RMM:   5    -0.741693421698E+03    0.15667E-02   -0.38481E-04 10914   0.362E-02    0.218E-01
RMM:   6    -0.741693322660E+03    0.99039E-04   -0.23457E-04  8928   0.274E-02    0.883E-02
RMM:   7    -0.741693337617E+03   -0.14957E-04   -0.12478E-04  8053   0.210E-02    0.100E-01
RMM:   8    -0.741693307943E+03    0.29674E-04   -0.57036E-05  7812   0.157E-02
  47 F= -.74169331E+03 E0= -.74108725E+03  d E =-.464743E-01  mag=     0.0000
       N       E                     dE             d eps       ncg     rms          rms(c)
DAV:   1    -0.741702436512E+03   -0.90989E-02   -0.32411E-01 13920   0.894E-01    0.165E-01
RMM:   2    -0.741703205593E+03   -0.76908E-03   -0.65531E-03 13440   0.155E-01    0.231E-01
RMM:   3    -0.741703132296E+03    0.73297E-04   -0.11178E-03 13416   0.643E-02    0.122E-01
RMM:   4    -0.741703538055E+03   -0.40576E-03   -0.36202E-04  9850   0.336E-02    0.265E-01
RMM:   5    -0.741703210075E+03    0.32798E-03   -0.12451E-04  8094   0.224E-02    0.151E-01
RMM:   6    -0.741703135172E+03    0.74903E-04   -0.78092E-05  7836   0.156E-02    0.658E-02
RMM:   7    -0.741703167767E+03   -0.32595E-04   -0.44814E-05  7687   0.120E-02    0.814E-02
RMM:   8    -0.741703129629E+03    0.38139E-04   -0.26186E-05  7302   0.107E-02
  48 F= -.74170313E+03 E0= -.74109708E+03  d E =-.562960E-01  mag=     0.0000
       N       E                     dE             d eps       ncg     rms          rms(c)
DAV:   1    -0.741755909371E+03   -0.52742E-01   -0.53086E-01 13504   0.113E+00    0.229E-01
RMM:   2    -0.741758191395E+03   -0.22820E-02   -0.10559E-02 13440   0.196E-01    0.573E-01
RMM:   3    -0.741757636044E+03    0.55535E-03   -0.19143E-03 13572   0.860E-02    0.339E-01
RMM:   4    -0.741757447756E+03    0.18829E-03   -0.72693E-04 12851   0.454E-02    0.315E-01
RMM:   5    -0.741757108088E+03    0.33967E-03   -0.28361E-04  9209   0.315E-02    0.214E-01
RMM:   6    -0.741757010680E+03    0.97407E-04   -0.15707E-04  8168   0.247E-02    0.126E-01
RMM:   7    -0.741756992550E+03    0.18130E-04   -0.76979E-05  7845   0.164E-02    0.107E-01
RMM:   8    -0.741756961720E+03    0.30830E-04   -0.42778E-05  7591   0.134E-02
  49 F= -.74175696E+03 E0= -.74115094E+03  d E =-.538321E-01  mag=     0.0000
       N       E                     dE             d eps       ncg     rms          rms(c)
DAV:   1    -0.741804446036E+03   -0.47453E-01   -0.20099E+00 13568   0.219E+00    0.437E-01
RMM:   2    -0.741811273914E+03   -0.68279E-02   -0.39981E-02 13440   0.382E-01    0.967E-01
RMM:   3    -0.741810465365E+03    0.80855E-03   -0.72025E-03 13893   0.165E-01    0.578E-01
RMM:   4    -0.741811616092E+03   -0.11507E-02   -0.28049E-03 14349   0.862E-02    0.770E-01
RMM:   5    -0.741809159151E+03    0.24569E-02   -0.10260E-03 12962   0.602E-02    0.433E-01
RMM:   6    -0.741808622963E+03    0.53619E-03   -0.59091E-04 12388   0.424E-02    0.231E-01
RMM:   7    -0.741808584498E+03    0.38466E-04   -0.29138E-04  9703   0.295E-02    0.194E-01
RMM:   8    -0.741808469177E+03    0.11532E-03   -0.16623E-04  8422   0.258E-02    0.100E-01
RMM:   9    -0.741808447554E+03    0.21623E-04   -0.47645E-05  7896   0.138E-02
  50 F= -.74180845E+03 E0= -.74120221E+03  d E =-.105318E+00  mag=     0.0000
       N       E                     dE             d eps       ncg     rms          rms(c)
DAV:   1    -0.741860812795E+03   -0.52344E-01   -0.56510E-01 13872   0.118E+00    0.251E-01
RMM:   2    -0.741866168391E+03   -0.53556E-02   -0.12810E-02 13440   0.211E-01    0.952E-01
RMM:   3    -0.741862268207E+03    0.39002E-02   -0.20848E-03 13591   0.900E-02    0.323E-01
RMM:   4    -0.741863260694E+03   -0.99249E-03   -0.75422E-04 12927   0.488E-02    0.536E-01
RMM:   5    -0.741862240358E+03    0.10203E-02   -0.44182E-04 11460   0.373E-02    0.342E-01
RMM:   6    -0.741862078954E+03    0.16140E-03   -0.20446E-04  8338   0.278E-02    0.249E-01
RMM:   7    -0.741861958331E+03    0.12062E-03   -0.11885E-04  7918   0.212E-02    0.170E-01
RMM:   8    -0.741861857638E+03    0.10069E-03   -0.68302E-05  7648   0.152E-02    0.926E-02
RMM:   9    -0.741861857201E+03    0.43648E-06   -0.19200E-05  7264   0.940E-03
  51 F= -.74186186E+03 E0= -.74125553E+03  d E =-.534096E-01  mag=    -0.0000
       N       E                     dE             d eps       ncg     rms          rms(c)
DAV:   1    -0.741883464453E+03   -0.21607E-01   -0.13805E+00 13712   0.185E+00    0.390E-01
RMM:   2    -0.741897897248E+03   -0.14433E-01   -0.31096E-02 13440   0.330E-01    0.157E+00
RMM:   3    -0.741886949237E+03    0.10948E-01   -0.51173E-03 13637   0.141E-01    0.496E-01
RMM:   4    -0.741888986164E+03   -0.20369E-02   -0.18250E-03 13626   0.758E-02    0.791E-01
RMM:   5    -0.741887048073E+03    0.19381E-02   -0.10358E-03 12922   0.570E-02    0.558E-01
RMM:   6    -0.741886592108E+03    0.45596E-03   -0.45781E-04 11885   0.407E-02    0.405E-01
RMM:   7    -0.741886264827E+03    0.32728E-03   -0.30853E-04  9785   0.307E-02    0.275E-01
RMM:   8    -0.741885985029E+03    0.27980E-03   -0.18939E-04  8540   0.249E-02    0.148E-01
RMM:   9    -0.741885971743E+03    0.13286E-04   -0.48970E-05  7761   0.144E-02
  52 F= -.74188597E+03 E0= -.74127948E+03  d E =-.775242E-01  mag=    -0.0000
       N       E                     dE             d eps       ncg     rms          rms(c)
DAV:   1    -0.741922224176E+03   -0.36239E-01   -0.44229E-01 13936   0.105E+00    0.228E-01
RMM:   2    -0.741923889275E+03   -0.16651E-02   -0.99291E-03 13440   0.194E-01    0.498E-01
RMM:   3    -0.741923170410E+03    0.71886E-03   -0.18098E-03 14121   0.795E-02    0.204E-01
RMM:   4    -0.741924026907E+03   -0.85650E-03   -0.60181E-04 12494   0.432E-02    0.461E-01
RMM:   5    -0.741923547530E+03    0.47938E-03   -0.23847E-04  8755   0.278E-02    0.291E-01
RMM:   6    -0.741923348056E+03    0.19947E-03   -0.16485E-04  8250   0.236E-02    0.237E-01
RMM:   7    -0.741923207551E+03    0.14051E-03   -0.92151E-05  7812   0.188E-02    0.125E-01
RMM:   8    -0.741923140778E+03    0.66773E-04   -0.52474E-05  7546   0.133E-02
  53 F= -.74192314E+03 E0= -.74131648E+03  d E =-.371690E-01  mag=    -0.0000
       N       E                     dE             d eps       ncg     rms          rms(c)
DAV:   1    -0.741933229569E+03   -0.10022E-01   -0.29934E+00 13440   0.274E+00    0.590E-01
RMM:   2    -0.741972594638E+03   -0.39365E-01   -0.70255E-02 13440   0.509E-01    0.257E+00
RMM:   3    -0.741941448594E+03    0.31146E-01   -0.12267E-02 13676   0.217E-01    0.812E-01
RMM:   4    -0.741942314924E+03   -0.86633E-03   -0.41760E-03 14501   0.113E-01    0.898E-01
RMM:   5    -0.741940980852E+03    0.13341E-02   -0.20267E-03 13411   0.764E-02    0.787E-01
RMM:   6    -0.741940274866E+03    0.70599E-03   -0.10421E-03 12851   0.627E-02    0.602E-01
RMM:   7    -0.741939651890E+03    0.62298E-03   -0.76330E-04 12559   0.483E-02    0.393E-01
RMM:   8    -0.741938832827E+03    0.81906E-03   -0.52400E-04 11609   0.361E-02    0.134E-01
RMM:   9    -0.741938826871E+03    0.59559E-05   -0.12119E-04  8039   0.204E-02
  54 F= -.74193883E+03 E0= -.74133211E+03  d E =-.528551E-01  mag=    -0.0000
       N       E                     dE             d eps       ncg     rms          rms(c)
DAV:   1    -0.741946881725E+03   -0.80489E-02   -0.32540E-01 13840   0.903E-01    0.242E-01
RMM:   2    -0.741959718763E+03   -0.12837E-01   -0.84125E-03 13440   0.173E-01    0.144E+00
RMM:   3    -0.741947809253E+03    0.11910E-01   -0.16722E-03 13282   0.857E-02    0.356E-01
RMM:   4    -0.741947307930E+03    0.50132E-03   -0.47953E-04 11879   0.418E-02    0.181E-01
RMM:   5    -0.741947426753E+03   -0.11882E-03   -0.20054E-04  8319   0.252E-02    0.228E-01
RMM:   6    -0.741947460419E+03   -0.33666E-04   -0.12739E-04  7706   0.230E-02    0.209E-01
RMM:   7    -0.741947311068E+03    0.14935E-03   -0.11896E-04  7632   0.192E-02    0.952E-02
RMM:   8    -0.741947262947E+03    0.48121E-04   -0.64135E-05  7328   0.148E-02
  55 F= -.74194726E+03 E0= -.74134055E+03  d E =-.612912E-01  mag=    -0.0000
       N       E                     dE             d eps       ncg     rms          rms(c)
DAV:   1    -0.741981197775E+03   -0.33887E-01   -0.36690E-01 13856   0.977E-01    0.181E-01
RMM:   2    -0.741982126909E+03   -0.92913E-03   -0.72193E-03 13440   0.168E-01    0.320E-01
RMM:   3    -0.741981906507E+03    0.22040E-03   -0.12798E-03 13402   0.708E-02    0.130E-01
RMM:   4    -0.741982511969E+03   -0.60546E-03   -0.43430E-04 10818   0.363E-02    0.305E-01
RMM:   5    -0.741982176285E+03    0.33568E-03   -0.18405E-04  8196   0.248E-02    0.231E-01
RMM:   6    -0.741981975068E+03    0.20122E-03   -0.10493E-04  7824   0.205E-02    0.111E-01
RMM:   7    -0.741981953354E+03    0.21714E-04   -0.62649E-05  7652   0.150E-02    0.675E-02
RMM:   8    -0.741981931756E+03    0.21598E-04   -0.29898E-05  7349   0.109E-02
  56 F= -.74198193E+03 E0= -.74137530E+03  d E =-.346688E-01  mag=    -0.0000
       N       E                     dE             d eps       ncg     rms          rms(c)
DAV:   1    -0.741998005102E+03   -0.16052E-01   -0.60792E-01 13760   0.126E+00    0.220E-01
RMM:   2    -0.741999529165E+03   -0.15241E-02   -0.12005E-02 13440   0.216E-01    0.389E-01
RMM:   3    -0.741999335700E+03    0.19346E-03   -0.22502E-03 14208   0.892E-02    0.214E-01
RMM:   4    -0.742000008774E+03   -0.67307E-03   -0.62266E-04 12339   0.427E-02    0.353E-01
RMM:   5    -0.741999602461E+03    0.40631E-03   -0.27408E-04  9300   0.295E-02    0.268E-01
RMM:   6    -0.741999342516E+03    0.25995E-03   -0.16209E-04  8088   0.263E-02    0.140E-01
RMM:   7    -0.741999327391E+03    0.15124E-04   -0.10335E-04  7895   0.191E-02    0.907E-02
RMM:   8    -0.741999287895E+03    0.39497E-04   -0.52864E-05  7678   0.144E-02
  57 F= -.74199929E+03 E0= -.74139281E+03  d E =-.520249E-01  mag=    -0.0000
       N       E                     dE             d eps       ncg     rms          rms(c)
DAV:   1    -0.742028710286E+03   -0.29383E-01   -0.56816E-01 13856   0.123E+00    0.190E-01
RMM:   2    -0.742030079562E+03   -0.13693E-02   -0.12169E-02 13440   0.218E-01    0.386E-01
RMM:   3    -0.742030032261E+03    0.47301E-04   -0.22213E-03 14501   0.849E-02    0.212E-01
RMM:   4    -0.742031963053E+03   -0.19308E-02   -0.58036E-04 12568   0.418E-02    0.597E-01
RMM:   5    -0.742030179107E+03    0.17839E-02   -0.20770E-04  8448   0.284E-02    0.266E-01
RMM:   6    -0.742029973742E+03    0.20537E-03   -0.15746E-04  8242   0.228E-02    0.143E-01
RMM:   7    -0.742029982544E+03   -0.88020E-05   -0.10837E-04  7880   0.193E-02    0.952E-02
RMM:   8    -0.742029983864E+03   -0.13201E-05   -0.41769E-05  7533   0.132E-02
  58 F= -.74202998E+03 E0= -.74142375E+03  d E =-.306960E-01  mag=    -0.0000
       N       E                     dE             d eps       ncg     rms          rms(c)
DAV:   1    -0.742031480866E+03   -0.14983E-02   -0.44865E-02 14144   0.347E-01    0.108E-01
RMM:   2    -0.742031677801E+03   -0.19693E-03   -0.10529E-03 13160   0.638E-02    0.128E-01
RMM:   3    -0.742032089690E+03   -0.41189E-03   -0.26493E-04  8760   0.303E-02    0.293E-01
RMM:   4    -0.742031661620E+03    0.42807E-03   -0.92401E-05  7590   0.203E-02    0.140E-01
RMM:   5    -0.742031604796E+03    0.56823E-04   -0.31519E-05  7414   0.115E-02    0.723E-02
RMM:   6    -0.742031627607E+03   -0.22810E-04   -0.26982E-05  7230   0.928E-03    0.758E-02
RMM:   7    -0.742031595147E+03    0.32460E-04   -0.18944E-05  6756   0.915E-03    0.386E-02
RMM:   8    -0.742031590481E+03    0.46658E-05   -0.42692E-06  5725   0.452E-03
  59 F= -.74203159E+03 E0= -.74142538E+03  d E =-.323026E-01  mag=    -0.0000
       N       E                     dE             d eps       ncg     rms          rms(c)
DAV:   1    -0.742057585991E+03   -0.25991E-01   -0.48834E-01 13648   0.114E+00    0.172E-01
RMM:   2    -0.742059086273E+03   -0.15003E-02   -0.10079E-02 13440   0.198E-01    0.431E-01
RMM:   3    -0.742058680121E+03    0.40615E-03   -0.18764E-03 14370   0.785E-02    0.212E-01
RMM:   4    -0.742059947739E+03   -0.12676E-02   -0.43374E-04 11784   0.379E-02    0.500E-01
RMM:   5    -0.742058869961E+03    0.10778E-02   -0.16182E-04  8132   0.265E-02    0.284E-01
RMM:   6    -0.742058618712E+03    0.25125E-03   -0.15730E-04  8180   0.217E-02    0.147E-01
RMM:   7    -0.742058596345E+03    0.22366E-04   -0.10378E-04  7894   0.188E-02    0.109E-01
RMM:   8    -0.742058582827E+03    0.13519E-04   -0.43917E-05  7647   0.138E-02
  60 F= -.74205858E+03 E0= -.74145268E+03  d E =-.269923E-01  mag=    -0.0000
       N       E                     dE             d eps       ncg     rms          rms(c)
DAV:   1    -0.742066490885E+03   -0.78945E-02   -0.69492E-01 13664   0.136E+00    0.233E-01
RMM:   2    -0.742067851608E+03   -0.13607E-02   -0.14543E-02 13440   0.237E-01    0.273E-01
RMM:   3    -0.742067995652E+03   -0.14404E-03   -0.26207E-03 14616   0.938E-02    0.150E-01
RMM:   4    -0.742068378973E+03   -0.38332E-03   -0.56236E-04 12234   0.458E-02    0.323E-01
RMM:   5    -0.742068897202E+03   -0.51823E-03   -0.28971E-04  9240   0.303E-02    0.359E-01
RMM:   6    -0.742068192648E+03    0.70455E-03   -0.18166E-04  8266   0.252E-02    0.223E-01
RMM:   7    -0.742068025827E+03    0.16682E-03   -0.10404E-04  8020   0.197E-02    0.864E-02
RMM:   8    -0.742067995869E+03    0.29958E-04   -0.37900E-05  7688   0.122E-02
  61 F= -.74206800E+03 E0= -.74146253E+03  d E =-.364054E-01  mag=    -0.0000
       N       E                     dE             d eps       ncg     rms          rms(c)
DAV:   1    -0.742093118841E+03   -0.25093E-01   -0.52455E-01 13888   0.118E+00    0.191E-01
RMM:   2    -0.742094547278E+03   -0.14284E-02   -0.11316E-02 13440   0.212E-01    0.380E-01
RMM:   3    -0.742094395190E+03    0.15209E-03   -0.21714E-03 14531   0.831E-02    0.195E-01
RMM:   4    -0.742095520111E+03   -0.11249E-02   -0.48779E-04 12054   0.402E-02    0.462E-01
RMM:   5    -0.742094509525E+03    0.10106E-02   -0.19945E-04  8310   0.282E-02    0.244E-01
RMM:   6    -0.742094338116E+03    0.17141E-03   -0.15285E-04  8138   0.231E-02    0.129E-01
RMM:   7    -0.742094318647E+03    0.19469E-04   -0.10559E-04  7914   0.191E-02    0.765E-02
RMM:   8    -0.742094314560E+03    0.40874E-05   -0.41645E-05  7780   0.135E-02
  62 F= -.74209431E+03 E0= -.74148920E+03  d E =-.263187E-01  mag=    -0.0000
       N       E                     dE             d eps       ncg     rms          rms(c)
DAV:   1    -0.742101233810E+03   -0.69152E-02   -0.45109E-01 13888   0.109E+00    0.186E-01
RMM:   2    -0.742102285801E+03   -0.10520E-02   -0.98210E-03 13440   0.197E-01    0.281E-01
RMM:   3    -0.742102368929E+03   -0.83128E-04   -0.18933E-03 14296   0.773E-02    0.169E-01
RMM:   4    -0.742103629035E+03   -0.12601E-02   -0.45703E-04 11868   0.383E-02    0.479E-01
RMM:   5    -0.742102584589E+03    0.10444E-02   -0.19515E-04  8402   0.277E-02    0.248E-01
RMM:   6    -0.742102316459E+03    0.26813E-03   -0.12300E-04  7980   0.220E-02    0.136E-01
RMM:   7    -0.742102320490E+03   -0.40302E-05   -0.91757E-05  7906   0.170E-02    0.724E-02
RMM:   8    -0.742102308385E+03    0.12105E-04   -0.39831E-05  7748   0.130E-02
  63 F= -.74210231E+03 E0= -.74149753E+03  d E =-.343125E-01  mag=    -0.0000
       N       E                     dE             d eps       ncg     rms          rms(c)
DAV:   1    -0.742140962945E+03   -0.38642E-01   -0.55333E-01 13824   0.121E+00    0.222E-01
RMM:   2    -0.742142439433E+03   -0.14765E-02   -0.12280E-02 13440   0.217E-01    0.431E-01
RMM:   3    -0.742142214700E+03    0.22473E-03   -0.22299E-03 14148   0.893E-02    0.176E-01
RMM:   4    -0.742143506518E+03   -0.12918E-02   -0.63618E-04 12629   0.440E-02    0.480E-01
RMM:   5    -0.742142355944E+03    0.11506E-02   -0.23000E-04  8616   0.282E-02    0.224E-01
RMM:   6    -0.742142295505E+03    0.60440E-04   -0.17104E-04  8351   0.249E-02    0.172E-01
RMM:   7    -0.742142216218E+03    0.79287E-04   -0.93559E-05  7915   0.188E-02    0.823E-02
RMM:   8    -0.742142200309E+03    0.15909E-04   -0.47568E-05  7830   0.134E-02
  64 F= -.74214220E+03 E0= -.74153753E+03  d E =-.398919E-01  mag=     0.0000
       N       E                     dE             d eps       ncg     rms          rms(c)
DAV:   1    -0.742106499295E+03    0.35717E-01   -0.49760E+00 13472   0.363E+00    0.621E-01
RMM:   2    -0.742121626553E+03   -0.15127E-01   -0.11068E-01 13440   0.652E-01    0.145E+00
RMM:   3    -0.742119080099E+03    0.25465E-02   -0.20053E-02 14318   0.268E-01    0.701E-01
RMM:   4    -0.742125190157E+03   -0.61101E-02   -0.58724E-03 14946   0.128E-01    0.121E+00
RMM:   5    -0.742118264853E+03    0.69253E-02   -0.16531E-03 13300   0.755E-02    0.625E-01
RMM:   6    -0.742117814438E+03    0.45041E-03   -0.12630E-03 12994   0.629E-02    0.459E-01
RMM:   7    -0.742117538348E+03    0.27609E-03   -0.94908E-04 12796   0.534E-02    0.267E-01
RMM:   8    -0.742117308749E+03    0.22960E-03   -0.45235E-04 11334   0.374E-02    0.170E-01
RMM:   9    -0.742117221062E+03    0.87686E-04   -0.17418E-04  8430   0.239E-02
  65 F= -.74211722E+03 E0= -.74151286E+03  d E =-.149127E-01  mag=     0.0000
       N       E                     dE             d eps       ncg     rms          rms(c)
DAV:   1    -0.742163346429E+03   -0.46038E-01   -0.17713E+00 13600   0.216E+00    0.411E-01
RMM:   2    -0.742171026781E+03   -0.76804E-02   -0.39385E-02 13440   0.389E-01    0.112E+00
RMM:   3    -0.742169001214E+03    0.20256E-02   -0.69446E-03 13542   0.168E-01    0.636E-01
RMM:   4    -0.742167730365E+03    0.12708E-02   -0.23766E-03 15286   0.816E-02    0.465E-01
RMM:   5    -0.742166981159E+03    0.74921E-03   -0.48687E-04 11980   0.405E-02    0.323E-01
RMM:   6    -0.742167067874E+03   -0.86715E-04   -0.47972E-04 11872   0.382E-02    0.303E-01
RMM:   7    -0.742166864455E+03    0.20342E-03   -0.43933E-04 11226   0.365E-02    0.172E-01
RMM:   8    -0.742166725878E+03    0.13858E-03   -0.18009E-04  8200   0.243E-02    0.836E-02
RMM:   9    -0.742166700599E+03    0.25278E-04   -0.63475E-05  7886   0.170E-02
  66 F= -.74216670E+03 E0= -.74156213E+03  d E =-.643922E-01  mag=     0.0000
       N       E                     dE             d eps       ncg     rms          rms(c)
DAV:   1    -0.742187432835E+03   -0.20707E-01   -0.46274E-01 13856   0.109E+00    0.202E-01
RMM:   2    -0.742189299159E+03   -0.18663E-02   -0.98199E-03 13440   0.197E-01    0.515E-01
RMM:   3    -0.742188740756E+03    0.55840E-03   -0.18607E-03 14022   0.818E-02    0.283E-01
RMM:   4    -0.742188856378E+03   -0.11562E-03   -0.54359E-04 12367   0.409E-02    0.322E-01
RMM:   5    -0.742188404464E+03    0.45191E-03   -0.14829E-04  8073   0.241E-02    0.181E-01
RMM:   6    -0.742188401451E+03    0.30133E-05   -0.14883E-04  8092   0.223E-02    0.155E-01
RMM:   7    -0.742188347519E+03    0.53931E-04   -0.10146E-04  7876   0.199E-02    0.100E-01
RMM:   8    -0.742188317073E+03    0.30446E-04   -0.45396E-05  7606   0.132E-02
  67 F= -.74218832E+03 E0= -.74158383E+03  d E =-.216165E-01  mag=     0.0000
       N       E                     dE             d eps       ncg     rms          rms(c)
DAV:   1    -0.742189293207E+03   -0.94569E-03   -0.33198E-02 14096   0.294E-01    0.596E-02
RMM:   2    -0.742189396735E+03   -0.10353E-03   -0.75189E-04 12844   0.544E-02    0.103E-01
RMM:   3    -0.742189402280E+03   -0.55443E-05   -0.14543E-04  7802   0.228E-02    0.913E-02
RMM:   4    -0.742189376608E+03    0.25672E-04   -0.37096E-05  7498   0.147E-02    0.555E-02
RMM:   5    -0.742189380798E+03   -0.41900E-05   -0.13296E-05  7142   0.685E-03    0.519E-02
RMM:   6    -0.742189381043E+03   -0.24483E-06   -0.11673E-05  6776   0.665E-03    0.367E-02
RMM:   7    -0.742189384143E+03   -0.31000E-05   -0.83268E-06  6554   0.589E-03    0.345E-02
RMM:   8    -0.742189376061E+03    0.80815E-05   -0.35885E-06  5526   0.422E-03
  68 F= -.74218938E+03 E0= -.74158482E+03  d E =-.226755E-01  mag=     0.0000
       N       E                     dE             d eps       ncg     rms          rms(c)
DAV:   1    -0.742208990545E+03   -0.19606E-01   -0.21435E-01 13856   0.736E-01    0.127E-01
RMM:   2    -0.742209517686E+03   -0.52714E-03   -0.46843E-03 13440   0.137E-01    0.210E-01
RMM:   3    -0.742209461159E+03    0.56527E-04   -0.86531E-04 13220   0.553E-02    0.112E-01
RMM:   4    -0.742209655690E+03   -0.19453E-03   -0.22322E-04  8514   0.272E-02    0.192E-01
RMM:   5    -0.742209545880E+03    0.10981E-03   -0.95141E-05  7948   0.208E-02    0.160E-01
RMM:   6    -0.742209443260E+03    0.10262E-03   -0.45964E-05  7708   0.133E-02    0.626E-02
RMM:   7    -0.742209453362E+03   -0.10102E-04   -0.36520E-05  7570   0.107E-02    0.590E-02
RMM:   8    -0.742209436716E+03    0.16646E-04   -0.18900E-05  7125   0.907E-03
  69 F= -.74220944E+03 E0= -.74160476E+03  d E =-.200607E-01  mag=     0.0000
       N       E                     dE             d eps       ncg     rms          rms(c)
DAV:   1    -0.742221509601E+03   -0.12056E-01   -0.76276E-01 13648   0.139E+00    0.236E-01
RMM:   2    -0.742223374013E+03   -0.18644E-02   -0.16641E-02 13440   0.259E-01    0.396E-01
RMM:   3    -0.742223246432E+03    0.12758E-03   -0.31954E-03 14554   0.104E-01    0.188E-01
RMM:   4    -0.742225033762E+03   -0.17873E-02   -0.85172E-04 13316   0.513E-02    0.562E-01
RMM:   5    -0.742223252473E+03    0.17813E-02   -0.27214E-04  9012   0.315E-02    0.220E-01
RMM:   6    -0.742223120993E+03    0.13148E-03   -0.17325E-04  8428   0.252E-02    0.118E-01
RMM:   7    -0.742223135329E+03   -0.14336E-04   -0.12856E-04  8064   0.208E-02    0.916E-02
RMM:   8    -0.742223104319E+03    0.31010E-04   -0.56773E-05  7932   0.156E-02
  70 F= -.74222310E+03 E0= -.74161821E+03  d E =-.337283E-01  mag=     0.0000
       N       E                     dE             d eps       ncg     rms          rms(c)
DAV:   1    -0.742232415498E+03   -0.92802E-02   -0.64858E-02 14240   0.404E-01    0.733E-02
RMM:   2    -0.742232771138E+03   -0.35564E-03   -0.14154E-03 13416   0.752E-02    0.206E-01
RMM:   3    -0.742232599664E+03    0.17147E-03   -0.29523E-04  9096   0.310E-02    0.966E-02
RMM:   4    -0.742232584433E+03    0.15231E-04   -0.74148E-05  7768   0.195E-02    0.764E-02
RMM:   5    -0.742232565243E+03    0.19190E-04   -0.25405E-05  7586   0.106E-02    0.517E-02
RMM:   6    -0.742232565872E+03   -0.62972E-06   -0.14148E-05  7126   0.719E-03    0.379E-02
RMM:   7    -0.742232566776E+03   -0.90402E-06   -0.98044E-06  6822   0.622E-03    0.312E-02
RMM:   8    -0.742232563671E+03    0.31051E-05   -0.62442E-06  6635   0.513E-03
  71 F= -.74223256E+03 E0= -.74162770E+03  d E =-.945935E-02  mag=     0.0000
       N       E                     dE             d eps       ncg     rms          rms(c)
DAV:   1    -0.742240788822E+03   -0.82220E-02   -0.58501E-01 13536   0.121E+00    0.201E-01
RMM:   2    -0.742242151988E+03   -0.13632E-02   -0.12424E-02 13440   0.223E-01    0.307E-01
RMM:   3    -0.742242331292E+03   -0.17930E-03   -0.23872E-03 14376   0.899E-02    0.259E-01
RMM:   4    -0.742242323507E+03    0.77849E-05   -0.59322E-04 12116   0.422E-02    0.239E-01
RMM:   5    -0.742242129181E+03    0.19433E-03   -0.19284E-04  8302   0.264E-02    0.180E-01
RMM:   6    -0.742242033324E+03    0.95857E-04   -0.11911E-04  8020   0.225E-02    0.914E-02
RMM:   7    -0.742242056012E+03   -0.22688E-04   -0.98531E-05  7956   0.174E-02    0.927E-02
RMM:   8    -0.742242010670E+03    0.45342E-04   -0.50317E-05  7852   0.146E-02
  72 F= -.74224201E+03 E0= -.74163700E+03  d E =-.189064E-01  mag=     0.0000
       N       E                     dE             d eps       ncg     rms          rms(c)
DAV:   1    -0.742242609013E+03   -0.55300E-03   -0.25454E-02 14016   0.253E-01    0.497E-02
RMM:   2    -0.742242764372E+03   -0.15536E-03   -0.55955E-04 11958   0.476E-02    0.145E-01
RMM:   3    -0.742242734634E+03    0.29738E-04   -0.11666E-04  7318   0.217E-02    0.122E-01
RMM:   4    -0.742242657792E+03    0.76842E-04   -0.29555E-05  7190   0.130E-02    0.365E-02
RMM:   5    -0.742242653428E+03    0.43647E-05   -0.88497E-06  6762   0.593E-03    0.238E-02
RMM:   6    -0.742242659512E+03   -0.60845E-05   -0.82226E-06  6674   0.540E-03    0.337E-02
RMM:   7    -0.742242656984E+03    0.25283E-05   -0.65728E-06  6560   0.510E-03    0.212E-02
RMM:   8    -0.742242655986E+03    0.99817E-06   -0.20997E-06  4302   0.347E-03
  73 F= -.74224266E+03 E0= -.74163766E+03  d E =-.195517E-01  mag=     0.0000
       N       E                     dE             d eps       ncg     rms          rms(c)
DAV:   1    -0.742250367145E+03   -0.77102E-02   -0.26678E-02 14144   0.271E-01    0.475E-02
RMM:   2    -0.742250482999E+03   -0.11585E-03   -0.64552E-04 11608   0.485E-02    0.138E-01
RMM:   3    -0.742250433071E+03    0.49928E-04   -0.96815E-05  7296   0.209E-02    0.653E-02
RMM:   4    -0.742250440905E+03   -0.78339E-05   -0.23070E-05  7218   0.111E-02    0.749E-02
RMM:   5    -0.742250424007E+03    0.16898E-04   -0.12414E-05  6872   0.636E-03    0.546E-02
RMM:   6    -0.742250420977E+03    0.30306E-05   -0.60599E-06  6290   0.523E-03    0.402E-02
RMM:   7    -0.742250419566E+03    0.14106E-05   -0.36822E-06  5366   0.397E-03    0.224E-02
RMM:   8    -0.742250419526E+03    0.40418E-07   -0.25874E-06  4472   0.349E-03
  74 F= -.74225042E+03 E0= -.74164546E+03  d E =-.776354E-02  mag=     0.0000
       N       E                     dE             d eps       ncg     rms          rms(c)
DAV:   1    -0.742261027669E+03   -0.10608E-01   -0.23967E-01 13888   0.814E-01    0.137E-01
RMM:   2    -0.742261994392E+03   -0.96672E-03   -0.57416E-03 13440   0.145E-01    0.388E-01
RMM:   3    -0.742261631710E+03    0.36268E-03   -0.84052E-04 13108   0.592E-02    0.197E-01
RMM:   4    -0.742261699405E+03   -0.67694E-04   -0.23928E-04  8534   0.285E-02    0.213E-01
RMM:   5    -0.742261577948E+03    0.12146E-03   -0.11391E-04  7786   0.221E-02    0.184E-01
RMM:   6    -0.742261520564E+03    0.57384E-04   -0.51681E-05  7554   0.142E-02    0.115E-01
RMM:   7    -0.742261524407E+03   -0.38428E-05   -0.51419E-05  7454   0.124E-02    0.776E-02
RMM:   8    -0.742261499623E+03    0.24784E-04   -0.33232E-05  7216   0.110E-02
  75 F= -.74226150E+03 E0= -.74165666E+03  d E =-.188436E-01  mag=     0.0000
       N       E                     dE             d eps       ncg     rms          rms(c)
DAV:   1    -0.742266979105E+03   -0.54547E-02   -0.51379E-02 14144   0.375E-01    0.679E-02
RMM:   2    -0.742267129300E+03   -0.15020E-03   -0.11995E-03 13220   0.682E-02    0.152E-01
RMM:   3    -0.742267095874E+03    0.33427E-04   -0.19554E-04  7938   0.270E-02    0.691E-02
RMM:   4    -0.742267265141E+03   -0.16927E-03   -0.59780E-05  7506   0.169E-02    0.175E-01
RMM:   5    -0.742267104281E+03    0.16086E-03   -0.28726E-05  7358   0.106E-02    0.895E-02
RMM:   6    -0.742267093354E+03    0.10927E-04   -0.98141E-06  6730   0.644E-03    0.612E-02
RMM:   7    -0.742267095406E+03   -0.20514E-05   -0.55596E-06  5966   0.445E-03    0.539E-02
RMM:   8    -0.742267093048E+03    0.23580E-05   -0.35926E-06  5500   0.421E-03
[...]
RMM:   8    -0.742354327012E+03   -0.34809E-06   -0.87380E-07  2995   0.298E-03
 113 F= -.74235433E+03 E0= -.74175386E+03  d E =-.223444E-02  mag=     0.0000
       N       E                     dE             d eps       ncg     rms          rms(c)
DAV:   1    -0.742355574516E+03   -0.12479E-02   -0.52786E-02 13856   0.372E-01    0.579E-02
RMM:   2    -0.742355692660E+03   -0.11814E-03   -0.11421E-03 13370   0.681E-02    0.109E-01
RMM:   3    -0.742355692198E+03    0.46223E-06   -0.21138E-04  7912   0.269E-02    0.571E-02
RMM:   4    -0.742355859823E+03   -0.16763E-03   -0.55016E-05  7438   0.169E-02    0.176E-01
RMM:   5    -0.742355681707E+03    0.17812E-03   -0.21101E-05  7246   0.948E-03    0.581E-02
RMM:   6    -0.742355687654E+03   -0.59464E-05   -0.95811E-06  6578   0.579E-03    0.518E-02
RMM:   7    -0.742355694310E+03   -0.66560E-05   -0.61257E-06  6310   0.490E-03    0.526E-02
RMM:   8    -0.742355691167E+03    0.31431E-05   -0.54448E-06  6484   0.445E-03
 114 F= -.74235569E+03 E0= -.74175515E+03  d E =-.359860E-02  mag=     0.0000
       N       E                     dE             d eps       ncg     rms          rms(c)
DAV:   1    -0.742357374499E+03   -0.16802E-02   -0.18368E-02 14128   0.213E-01    0.472E-02
RMM:   2    -0.742357423820E+03   -0.49321E-04   -0.38757E-04  9360   0.371E-02    0.707E-02
RMM:   3    -0.742357414561E+03    0.92587E-05   -0.61863E-05  7254   0.178E-02    0.463E-02
RMM:   4    -0.742357450274E+03   -0.35713E-04   -0.20657E-05  7198   0.917E-03    0.806E-02
RMM:   5    -0.742357420900E+03    0.29374E-04   -0.12616E-05  6727   0.710E-03    0.576E-02
RMM:   6    -0.742357415199E+03    0.57011E-05   -0.64966E-06  6277   0.525E-03    0.344E-02
RMM:   7    -0.742357408762E+03    0.64376E-05   -0.24221E-06  4582   0.379E-03    0.134E-02
RMM:   8    -0.742357408949E+03   -0.18792E-06   -0.28600E-07  2206   0.271E-03
 115 F= -.74235741E+03 E0= -.74175684E+03  d E =-.171778E-02  mag=    -0.0000
       N       E                     dE             d eps       ncg     rms          rms(c)
DAV:   1    -0.742359807218E+03   -0.23985E-02   -0.16537E-01 13760   0.639E-01    0.103E-01
RMM:   2    -0.742360781600E+03   -0.97438E-03   -0.33693E-03 13440   0.111E-01    0.381E-01
RMM:   3    -0.742360147795E+03    0.63380E-03   -0.57743E-04 12683   0.468E-02    0.130E-01
RMM:   4    -0.742360216930E+03   -0.69135E-04   -0.16411E-04  8166   0.236E-02    0.163E-01
RMM:   5    -0.742360138090E+03    0.78840E-04   -0.67718E-05  7629   0.184E-02    0.121E-01
RMM:   6    -0.742360123333E+03    0.14757E-04   -0.39896E-05  7452   0.112E-02    0.888E-02
RMM:   7    -0.742360096935E+03    0.26397E-04   -0.27743E-05  7241   0.101E-02    0.463E-02
RMM:   8    -0.742360093388E+03    0.35472E-05   -0.15725E-05  6671   0.734E-03
 116 F= -.74236009E+03 E0= -.74175948E+03  d E =-.440222E-02  mag=    -0.0000
       N       E                     dE             d eps       ncg     rms          rms(c)
DAV:   1    -0.742360130156E+03   -0.33221E-04   -0.46440E-03 13632   0.108E-01    0.253E-02
RMM:   2    -0.742360164132E+03   -0.33976E-04   -0.10845E-04  7392   0.197E-02    0.630E-02
RMM:   3    -0.742360158316E+03    0.58163E-05   -0.22145E-05  7200   0.109E-02    0.599E-02
RMM:   4    -0.742360141025E+03    0.17291E-04   -0.56921E-06  6592   0.492E-03    0.229E-02
RMM:   5    -0.742360139989E+03    0.10355E-05   -0.11737E-06  3593   0.328E-03    0.176E-02
RMM:   6    -0.742360141587E+03   -0.15981E-05   -0.22348E-07  2253   0.281E-03    0.163E-02
RMM:   7    -0.742360142068E+03   -0.48038E-06   -0.16902E-07  2215   0.281E-03    0.190E-02
RMM:   8    -0.742360140848E+03    0.12200E-05   -0.88998E-08  1862   0.271E-03
 117 F= -.74236014E+03 E0= -.74175952E+03  d E =-.444968E-02  mag=    -0.0000
       N       E                     dE             d eps       ncg     rms          rms(c)
DAV:   1    -0.742361534388E+03   -0.13923E-02   -0.21796E-02 13952   0.238E-01    0.339E-02
RMM:   2    -0.742361581812E+03   -0.47424E-04   -0.45088E-04  9832   0.419E-02    0.607E-02
RMM:   3    -0.742361582363E+03   -0.55108E-06   -0.70552E-05  7208   0.183E-02    0.333E-02
RMM:   4    -0.742361610112E+03   -0.27749E-04   -0.18057E-05  7170   0.927E-03    0.729E-02
RMM:   5    -0.742361581451E+03    0.28661E-04   -0.80889E-06  6668   0.592E-03    0.359E-02
RMM:   6    -0.742361582169E+03   -0.71827E-06   -0.31407E-06  5010   0.385E-03    0.200E-02
RMM:   7    -0.742361582634E+03   -0.46471E-06   -0.19380E-06  4415   0.339E-03    0.193E-02
RMM:   8    -0.742361582476E+03    0.15788E-06   -0.55021E-07  2693   0.298E-03
 118 F= -.74236158E+03 E0= -.74176098E+03  d E =-.144163E-02  mag=    -0.0000
       N       E                     dE             d eps       ncg     rms          rms(c)
DAV:   1    -0.742362147407E+03   -0.56477E-03   -0.30766E-02 13920   0.283E-01    0.451E-02
RMM:   2    -0.742362214375E+03   -0.66968E-04   -0.63565E-04 11918   0.500E-02    0.667E-02
RMM:   3    -0.742362221768E+03   -0.73929E-05   -0.10964E-04  7313   0.206E-02    0.482E-02
RMM:   4    -0.742362248112E+03   -0.26344E-04   -0.27456E-05  7238   0.121E-02    0.816E-02
RMM:   5    -0.742362223175E+03    0.24936E-04   -0.11729E-05  6938   0.681E-03    0.487E-02
RMM:   6    -0.742362216786E+03    0.63894E-05   -0.65881E-06  6195   0.524E-03    0.274E-02
RMM:   7    -0.742362217836E+03   -0.10501E-05   -0.35076E-06  5219   0.393E-03    0.185E-02
RMM:   8    -0.742362216848E+03    0.98743E-06   -0.10078E-06  3281   0.323E-03
 119 F= -.74236222E+03 E0= -.74176165E+03  d E =-.207600E-02  mag=    -0.0000
       N       E                     dE             d eps       ncg     rms          rms(c)
DAV:   1    -0.742363211993E+03   -0.99416E-03   -0.17983E-02 14048   0.218E-01    0.348E-02
RMM:   2    -0.742363282694E+03   -0.70702E-04   -0.38759E-04  9108   0.386E-02    0.889E-02
RMM:   3    -0.742363252629E+03    0.30065E-04   -0.60052E-05  7232   0.177E-02    0.423E-02
RMM:   4    -0.742363255463E+03   -0.28339E-05   -0.13810E-05  7106   0.828E-03    0.370E-02
RMM:   5    -0.742363257421E+03   -0.19582E-05   -0.72598E-06  6698   0.548E-03    0.445E-02
RMM:   6    -0.742363253925E+03    0.34962E-05   -0.36968E-06  5478   0.412E-03    0.273E-02
RMM:   7    -0.742363252521E+03    0.14039E-05   -0.18536E-06  4200   0.342E-03    0.155E-02
RMM:   8    -0.742363251978E+03    0.54292E-06   -0.61055E-07  2766   0.302E-03
 120 F= -.74236325E+03 E0= -.74176268E+03  d E =-.103513E-02  mag=    -0.0000
       N       E                     dE             d eps       ncg     rms          rms(c)
DAV:   1    -0.742363492932E+03   -0.24041E-03   -0.14349E-02 13952   0.195E-01    0.299E-02
RMM:   2    -0.742363528062E+03   -0.35130E-04   -0.30988E-04  8381   0.345E-02    0.601E-02
RMM:   3    -0.742363524587E+03    0.34751E-05   -0.44865E-05  7154   0.159E-02    0.305E-02
RMM:   4    -0.742363554567E+03   -0.29980E-04   -0.12675E-05  7136   0.729E-03    0.713E-02
RMM:   5    -0.742363523520E+03    0.31048E-04   -0.60779E-06  6486   0.536E-03    0.290E-02
RMM:   6    -0.742363525091E+03   -0.15717E-05   -0.14222E-06  3652   0.319E-03    0.225E-02
RMM:   7    -0.742363525670E+03   -0.57866E-06   -0.61502E-07  2805   0.304E-03    0.157E-02
RMM:   8    -0.742363525876E+03   -0.20586E-06   -0.33856E-07  2185   0.294E-03
 121 F= -.74236353E+03 E0= -.74176295E+03  d E =-.130903E-02  mag=     0.0000
       N       E                     dE             d eps       ncg     rms          rms(c)
DAV:   1    -0.742364010105E+03   -0.48444E-03   -0.96720E-03 13888   0.158E-01    0.266E-02
RMM:   2    -0.742364028493E+03   -0.18388E-04   -0.19905E-04  7708   0.272E-02    0.335E-02
RMM:   3    -0.742364030083E+03   -0.15894E-05   -0.27907E-05  7118   0.128E-02    0.210E-02
RMM:   4    -0.742364060057E+03   -0.29974E-04   -0.92061E-06  7038   0.588E-03    0.680E-02
RMM:   5    -0.742364030294E+03    0.29763E-04   -0.46016E-06  6138   0.471E-03    0.256E-02
RMM:   6    -0.742364030899E+03   -0.60472E-06   -0.10727E-06  3382   0.307E-03    0.137E-02
RMM:   7    -0.742364031048E+03   -0.14841E-06   -0.24241E-07  2212   0.285E-03    0.102E-02
RMM:   8    -0.742364031015E+03    0.32756E-07   -0.80684E-08  1698   0.278E-03
 122 F= -.74236403E+03 E0= -.74176347E+03  d E =-.505139E-03  mag=     0.0000
       N       E                     dE             d eps       ncg     rms          rms(c)
DAV:   1    -0.742364179590E+03   -0.14854E-03   -0.16827E-02 13888   0.209E-01    0.298E-02
RMM:   2    -0.742364212788E+03   -0.33198E-04   -0.34182E-04  8700   0.358E-02    0.500E-02
RMM:   3    -0.742364213964E+03   -0.11759E-05   -0.50170E-05  7144   0.164E-02    0.254E-02
RMM:   4    -0.742364258790E+03   -0.44826E-04   -0.15031E-05  7162   0.783E-03    0.840E-02
RMM:   5    -0.742364212335E+03    0.46455E-04   -0.66566E-06  6498   0.565E-03    0.260E-02
RMM:   6    -0.742364214767E+03   -0.24321E-05   -0.17648E-06  3736   0.326E-03    0.164E-02
RMM:   7    -0.742364215652E+03   -0.88540E-06   -0.11449E-06  3546   0.323E-03    0.166E-02
RMM:   8    -0.742364215778E+03   -0.12560E-06   -0.51972E-07  2400   0.296E-03
 123 F= -.74236422E+03 E0= -.74176366E+03  d E =-.689902E-03  mag=     0.0000
       N       E                     dE             d eps       ncg     rms          rms(c)
DAV:   1    -0.742364222866E+03   -0.72138E-05   -0.45029E-04 13056   0.342E-02    0.123E-02
RMM:   2    -0.742364227134E+03   -0.42673E-05   -0.10778E-05  7148   0.636E-03    0.252E-02
RMM:   3    -0.742364224706E+03    0.24279E-05   -0.26348E-06  5528   0.417E-03    0.178E-02
RMM:   4    -0.742364224688E+03    0.17921E-07   -0.25245E-08  1113   0.221E-03    0.180E-02
RMM:   5    -0.742364223217E+03    0.14706E-05    0.00000E+00   980   0.208E-03    0.878E-03
RMM:   6    -0.742364223501E+03   -0.28405E-06    0.00000E+00   829   0.205E-03    0.836E-03
RMM:   7    -0.742364223435E+03    0.66495E-07   -0.10294E-09   869   0.216E-03    0.592E-03
RMM:   8    -0.742364223419E+03    0.15963E-07   -0.34291E-09   890   0.225E-03
 124 F= -.74236422E+03 E0= -.74176366E+03  d E =-.697543E-03  mag=     0.0000
       N       E                     dE             d eps       ncg     rms          rms(c)
DAV:   1    -0.742364467309E+03   -0.24387E-03   -0.27892E-03 13312   0.862E-02    0.136E-02
RMM:   2    -0.742364477742E+03   -0.10433E-04   -0.65785E-05  7136   0.162E-02    0.446E-02
RMM:   3    -0.742364473198E+03    0.45438E-05   -0.93483E-06  7086   0.759E-03    0.203E-02
RMM:   4    -0.742364480237E+03   -0.70390E-05   -0.11384E-06  3445   0.329E-03    0.377E-02
RMM:   5    -0.742364471912E+03    0.83250E-05   -0.36293E-07  2307   0.297E-03    0.123E-02
RMM:   6    -0.742364473239E+03   -0.13265E-05   -0.61716E-08  1551   0.279E-03    0.133E-02
RMM:   7    -0.742364473410E+03   -0.17105E-06   -0.13607E-07  1548   0.288E-03    0.115E-02
RMM:   8    -0.742364473193E+03    0.21690E-06   -0.57653E-07  1828   0.299E-03
 125 F= -.74236447E+03 E0= -.74176392E+03  d E =-.249774E-03  mag=     0.0000
       N       E                     dE             d eps       ncg     rms          rms(c)
DAV:   1    -0.742364576970E+03   -0.10356E-03   -0.53578E-03 13552   0.120E-01    0.194E-02
RMM:   2    -0.742364594829E+03   -0.17859E-04   -0.12528E-04  7295   0.224E-02    0.560E-02
RMM:   3    -0.742364592249E+03    0.25798E-05   -0.18209E-05  7111   0.104E-02    0.382E-02
RMM:   4    -0.742364589332E+03    0.29175E-05   -0.61382E-06  6766   0.497E-03    0.262E-02
RMM:   5    -0.742364589090E+03    0.24179E-06   -0.17234E-06  4552   0.358E-03    0.261E-02
RMM:   6    -0.742364589071E+03    0.18772E-07   -0.46037E-08  1588   0.236E-03    0.257E-02
RMM:   7    -0.742364590139E+03   -0.10679E-05   -0.32918E-07  2240   0.255E-03    0.230E-02
RMM:   8    -0.742364589656E+03    0.48296E-06   -0.29319E-07  2008   0.265E-03
 126 F= -.74236459E+03 E0= -.74176404E+03  d E =-.366237E-03  mag=     0.0000
       N       E                     dE             d eps       ncg     rms          rms(c)
DAV:   1    -0.742364716976E+03   -0.12684E-03   -0.29122E-03 13056   0.862E-02    0.238E-02
RMM:   2    -0.742364733203E+03   -0.16227E-04   -0.69696E-05  7190   0.168E-02    0.523E-02
RMM:   3    -0.742364722842E+03    0.10360E-04   -0.10866E-05  7095   0.799E-03    0.194E-02
RMM:   4    -0.742364735840E+03   -0.12998E-04   -0.45810E-06  6260   0.427E-03    0.500E-02
RMM:   5    -0.742364723632E+03    0.12208E-04   -0.22189E-06  4966   0.385E-03    0.176E-02
RMM:   6    -0.742364724020E+03   -0.38798E-06   -0.19020E-07  1925   0.246E-03    0.118E-02
RMM:   7    -0.742364724419E+03   -0.39918E-06   -0.36340E-08  1577   0.223E-03    0.109E-02
RMM:   8    -0.742364724245E+03    0.17372E-06   -0.13052E-09  1135   0.216E-03
 127 F= -.74236472E+03 E0= -.74176417E+03  d E =-.134589E-03  mag=     0.0000
       N       E                     dE             d eps       ncg     rms          rms(c)
DAV:   1    -0.742364729746E+03   -0.53272E-05   -0.23115E-04 12032   0.245E-02    0.933E-03
RMM:   2    -0.742364739775E+03   -0.10029E-04   -0.89298E-06  7078   0.591E-03    0.363E-02
RMM:   3    -0.742364731171E+03    0.86044E-05   -0.16453E-06  4440   0.349E-03    0.209E-02
RMM:   4    -0.742364731304E+03   -0.13258E-06   -0.16461E-07  1598   0.245E-03    0.156E-02
RMM:   5    -0.742364731550E+03   -0.24668E-06   -0.32190E-09  1137   0.224E-03    0.168E-02
RMM:   6    -0.742364730893E+03    0.65754E-06    0.00000E+00  1038   0.227E-03    0.121E-02
RMM:   7    -0.742364730168E+03    0.72479E-06   -0.47524E-10   882   0.224E-03    0.376E-03
RMM:   8    -0.742364730500E+03   -0.33248E-06    0.00000E+00   836   0.223E-03
 128 F= -.74236473E+03 E0= -.74176418E+03  d E =-.140844E-03  mag=     0.0000
       N       E                     dE             d eps       ncg     rms          rms(c)
DAV:   1    -0.742364787764E+03   -0.57596E-04   -0.71748E-04 13344   0.405E-02    0.750E-03
RMM:   2    -0.742364790382E+03   -0.26175E-05   -0.15799E-05  7046   0.798E-03    0.207E-02
RMM:   3    -0.742364789336E+03    0.10458E-05   -0.25415E-06  5917   0.409E-03    0.117E-02
RMM:   4    -0.742364788727E+03    0.60853E-06   -0.43777E-09  1276   0.216E-03    0.446E-03
RMM:   5    -0.742364789279E+03   -0.55122E-06   -0.45823E-09  1208   0.222E-03    0.811E-03
RMM:   6    -0.742364789277E+03    0.11132E-08   -0.51269E-08  1136   0.226E-03    0.683E-03
RMM:   7    -0.742364788999E+03    0.27845E-06   -0.26852E-08   970   0.232E-03    0.259E-03
RMM:   8    -0.742364789091E+03   -0.92390E-07   -0.37862E-09   767   0.234E-03
 129 F= -.74236479E+03 E0= -.74176424E+03  d E =-.585910E-04  mag=     0.0000
       N       E                     dE             d eps       ncg     rms          rms(c)
DAV:   1    -0.742364851203E+03   -0.62204E-04   -0.49518E-03 13504   0.106E-01    0.183E-02
RMM:   2    -0.742364875191E+03   -0.23987E-04   -0.10656E-04  7242   0.204E-02    0.613E-02
RMM:   3    -0.742364859915E+03    0.15275E-04   -0.17740E-05  7106   0.101E-02    0.247E-02
RMM:   4    -0.742364868688E+03   -0.87722E-05   -0.52460E-06  6606   0.460E-03    0.423E-02
RMM:   5    -0.742364859926E+03    0.87617E-05   -0.22725E-06  5044   0.372E-03    0.204E-02
RMM:   6    -0.742364859909E+03    0.17200E-07   -0.40549E-07  2307   0.270E-03    0.131E-02
RMM:   7    -0.742364860709E+03   -0.80012E-06   -0.25941E-07  2053   0.265E-03    0.129E-02
RMM:   8    -0.742364860710E+03   -0.11714E-08   -0.30671E-07  1680   0.275E-03
 130 F= -.74236486E+03 E0= -.74176431E+03  d E =-.130210E-03  mag=     0.0000
       N       E                     dE             d eps       ncg     rms          rms(c)
DAV:   1    -0.742364902006E+03   -0.41298E-04   -0.98228E-04 13120   0.463E-02    0.103E-02
RMM:   2    -0.742364908217E+03   -0.62107E-05   -0.21347E-05  7162   0.937E-03    0.271E-02
RMM:   3    -0.742364905112E+03    0.31048E-05   -0.42557E-06  6942   0.485E-03    0.196E-02
RMM:   4    -0.742364903872E+03    0.12406E-05   -0.20008E-08  1752   0.240E-03    0.851E-03
RMM:   5    -0.742364905104E+03   -0.12320E-05   -0.60669E-09  1457   0.237E-03    0.139E-02
RMM:   6    -0.742364904365E+03    0.73883E-06   -0.14703E-08  1267   0.240E-03    0.994E-03
RMM:   7    -0.742364904039E+03    0.32614E-06   -0.10830E-08   958   0.246E-03    0.380E-03
RMM:   8    -0.742364904155E+03   -0.11634E-06   -0.13434E-08   880   0.249E-03
 131 F= -.74236490E+03 E0= -.74176437E+03  d E =-.434452E-04  mag=     0.0000
       N       E                     dE             d eps       ncg     rms          rms(c)
DAV:   1    -0.742364909861E+03   -0.58218E-05   -0.29115E-04 12416   0.251E-02    0.501E-03
RMM:   2    -0.742364910813E+03   -0.95288E-06   -0.85912E-06  6974   0.612E-03    0.879E-03
RMM:   3    -0.742364910542E+03    0.27130E-06   -0.45256E-07  2390   0.283E-03    0.635E-03
RMM:   4    -0.742364911105E+03   -0.56330E-06   -0.38307E-08  1207   0.257E-03    0.995E-03
RMM:   5    -0.742364910442E+03    0.66336E-06   -0.10533E-09   898   0.249E-03    0.482E-03
RMM:   6    -0.742364910651E+03   -0.20854E-06   -0.44041E-09   862   0.252E-03    0.301E-03
RMM:   7    -0.742364910662E+03   -0.11671E-07   -0.49568E-09   747   0.255E-03    0.190E-03
RMM:   8    -0.742364910659E+03    0.38126E-08    0.00000E+00   675   0.254E-03
 132 F= -.74236491E+03 E0= -.74176439E+03  d E =-.499486E-04  mag=     0.0000
       N       E                     dE             d eps       ncg     rms          rms(c)
DAV:   1    -0.742364938586E+03   -0.27924E-04   -0.48088E-04 13216   0.309E-02    0.542E-03
RMM:   2    -0.742364939614E+03   -0.10275E-05   -0.10078E-05  7006   0.635E-03    0.115E-02
RMM:   3    -0.742364939231E+03    0.38295E-06   -0.68449E-07  3128   0.321E-03    0.614E-03
RMM:   4    -0.742364940343E+03   -0.11118E-05   -0.35228E-09  1362   0.261E-03    0.147E-02
RMM:   5    -0.742364939111E+03    0.12319E-05   -0.21317E-09  1007   0.264E-03    0.678E-03
RMM:   6    -0.742364939357E+03   -0.24617E-06   -0.10373E-07  1155   0.272E-03    0.384E-03
RMM:   7    -0.742364939414E+03   -0.56665E-07   -0.78985E-08  1051   0.269E-03    0.236E-03
RMM:   8    -0.742364939444E+03   -0.30617E-07   -0.49891E-09   700   0.261E-03
 133 F= -.74236494E+03 E0= -.74176441E+03  d E =-.287858E-04  mag=     0.0000
       N       E                     dE             d eps       ncg     rms          rms(c)
DAV:   1    -0.742364956920E+03   -0.17507E-04   -0.15088E-03 12960   0.549E-02    0.100E-02
RMM:   2    -0.742364960177E+03   -0.32569E-05   -0.31541E-05  7126   0.114E-02    0.187E-02
RMM:   3    -0.742364959668E+03    0.50940E-06   -0.55598E-06  7032   0.561E-03    0.882E-03
RMM:   4    -0.742364965010E+03   -0.53416E-05   -0.44968E-07  2505   0.276E-03    0.301E-02
RMM:   5    -0.742364958998E+03    0.60114E-05   -0.57088E-08  1794   0.267E-03    0.887E-03
RMM:   6    -0.742364959868E+03   -0.86946E-06   -0.11410E-08  1266   0.266E-03    0.864E-03
RMM:   7    -0.742364959875E+03   -0.72323E-08   -0.59438E-08  1231   0.275E-03    0.651E-03
RMM:   8    -0.742364959771E+03    0.10343E-06   -0.13774E-07  1199   0.281E-03
 134 F= -.74236496E+03 E0= -.74176444E+03  d E =-.491129E-04  mag=     0.0000
       N       E                     dE             d eps       ncg     rms          rms(c)
DAV:   1    -0.742364985580E+03   -0.25705E-04   -0.42702E-04 12928   0.279E-02    0.607E-03
RMM:   2    -0.742364986418E+03   -0.83811E-06   -0.89501E-06  6980   0.629E-03    0.837E-03
RMM:   3    -0.742364986248E+03    0.17018E-06   -0.75633E-07  3190   0.315E-03    0.542E-03
RMM:   4    -0.742364986601E+03   -0.35303E-06   -0.78189E-11  1167   0.257E-03    0.755E-03
RMM:   5    -0.742364986241E+03    0.36017E-06   -0.17237E-09   980   0.256E-03    0.402E-03
RMM:   6    -0.742364986542E+03   -0.30077E-06   -0.45864E-08  1045   0.259E-03    0.522E-03
RMM:   7    -0.742364986401E+03    0.14046E-06   -0.26461E-08   908   0.255E-03    0.292E-03
RMM:   8    -0.742364986408E+03   -0.63592E-08   -0.14713E-09   742   0.253E-03
 135 F= -.74236499E+03 E0= -.74176447E+03  d E =-.266361E-04  mag=    -0.0000
