       N       E                     dE             d eps       ncg     rms          rms(c)
DAV:   1     0.916195150698E+04    0.91620E+04   -0.34869E+05 24848   0.114E+03
DAV:   2     0.811322061845E+03   -0.83506E+04   -0.75317E+04 31008   0.308E+02
DAV:   3    -0.916452637341E+03   -0.17278E+04   -0.17005E+04 29296   0.151E+02
DAV:   4    -0.100326123649E+04   -0.86809E+02   -0.86205E+02 33232   0.416E+01
DAV:   5    -0.100671181591E+04   -0.34506E+01   -0.34416E+01 39920   0.662E+00    0.174E+02
RMM:   6    -0.110417355404E+04   -0.97462E+02   -0.32061E+03 27538   0.100E+02    0.394E+02
RMM:   7    -0.892052668020E+03    0.21212E+03   -0.34758E+02 24487   0.293E+01    0.273E+02
RMM:   8    -0.790805272945E+03    0.10125E+03   -0.39972E+02 24537   0.327E+01    0.190E+02
RMM:   9    -0.664982633677E+03    0.12582E+03   -0.17778E+02 24761   0.180E+01    0.174E+02
RMM:  10    -0.514284598009E+03    0.15070E+03   -0.11855E+02 24375   0.190E+01    0.105E+02
RMM:  11    -0.517882843206E+03   -0.35982E+01   -0.66553E+01 24463   0.121E+01    0.136E+02
RMM:  12    -0.454982650262E+03    0.62900E+02   -0.45061E+01 24537   0.119E+01    0.853E+01
RMM:  13    -0.442337807500E+03    0.12645E+02   -0.20443E+01 24432   0.681E+00    0.856E+01
RMM:  14    -0.453542065168E+03   -0.11204E+02   -0.17738E+01 24662   0.648E+00    0.720E+01
RMM:  15    -0.468078437185E+03   -0.14536E+02   -0.13281E+01 24916   0.576E+00    0.659E+01
RMM:  16    -0.488222132212E+03   -0.20144E+02   -0.15504E+01 25576   0.639E+00    0.667E+01
RMM:  17    -0.486165434889E+03    0.20567E+01   -0.70567E+00 24912   0.423E+00    0.560E+01
RMM:  18    -0.499975409948E+03   -0.13810E+02   -0.87214E+00 25659   0.372E+00    0.522E+01
RMM:  19    -0.504153076362E+03   -0.41777E+01   -0.88140E+00 27426   0.403E+00    0.485E+01
RMM:  20    -0.508573298929E+03   -0.44202E+01   -0.44579E+00 25096   0.327E+00    0.487E+01
RMM:  21    -0.513593915413E+03   -0.50206E+01   -0.20522E+00 24531   0.231E+00    0.486E+01
RMM:  22    -0.518289601228E+03   -0.46957E+01   -0.10966E+00 24967   0.161E+00    0.490E+01
RMM:  23    -0.521643042419E+03   -0.33534E+01   -0.10799E+00 25238   0.163E+00    0.484E+01
RMM:  24    -0.523792254779E+03   -0.21492E+01   -0.15649E+00 26644   0.198E+00    0.451E+01
RMM:  25    -0.523319215393E+03    0.47304E+00   -0.73947E-01 24924   0.138E+00    0.427E+01
RMM:  26    -0.521967247799E+03    0.13520E+01   -0.34653E-01 24906   0.918E-01    0.407E+01
RMM:  27    -0.519836878408E+03    0.21304E+01   -0.27610E-01 24843   0.857E-01    0.382E+01
RMM:  28    -0.517958721013E+03    0.18782E+01   -0.28751E-01 25258   0.850E-01    0.353E+01
RMM:  29    -0.518102432259E+03   -0.14371E+00   -0.21262E-01 25313   0.701E-01    0.334E+01
RMM:  30    -0.517613659381E+03    0.48877E+00   -0.90966E-02 25557   0.453E-01    0.330E+01
RMM:  31    -0.518067260639E+03   -0.45360E+00   -0.23862E-01 28799   0.688E-01    0.324E+01
RMM:  32    -0.518638463943E+03   -0.57120E+00   -0.39637E-01 30797   0.849E-01    0.314E+01
RMM:  33    -0.519821319338E+03   -0.11829E+01   -0.33972E-01 30692   0.825E-01    0.307E+01
RMM:  34    -0.523491188590E+03   -0.36699E+01   -0.84000E-01 34753   0.130E+00    0.301E+01
RMM:  35    -0.530508681896E+03   -0.70175E+01   -0.13316E+00 36245   0.164E+00    0.291E+01
RMM:  36    -0.541034742966E+03   -0.10526E+02   -0.25709E+00 37534   0.219E+00    0.278E+01
RMM:  37    -0.553238266623E+03   -0.12204E+02   -0.45520E+00 38096   0.273E+00    0.266E+01
RMM:  38    -0.564923129798E+03   -0.11685E+02   -0.50439E+00 38741   0.283E+00    0.263E+01
RMM:  39    -0.572388536100E+03   -0.74654E+01   -0.27941E+00 37929   0.225E+00    0.264E+01
RMM:  40    -0.578713932334E+03   -0.63254E+01   -0.19718E+00 37001   0.192E+00    0.263E+01
RMM:  41    -0.587280198154E+03   -0.85663E+01   -0.26475E+00 37990   0.214E+00    0.259E+01
RMM:  42    -0.596972733451E+03   -0.96925E+01   -0.33327E+00 38138   0.231E+00    0.246E+01
RMM:  43    -0.609756637136E+03   -0.12784E+02   -0.46341E+00 39133   0.267E+00    0.223E+01
RMM:  44    -0.621822137651E+03   -0.12066E+02   -0.38344E+00 39662   0.255E+00    0.192E+01
RMM:  45    -0.628645461180E+03   -0.68233E+01   -0.14730E+00 37268   0.160E+00    0.174E+01
RMM:  46    -0.633745628664E+03   -0.51002E+01   -0.90849E-01 36264   0.125E+00    0.162E+01
RMM:  47    -0.638107126897E+03   -0.43615E+01   -0.11388E+00 36638   0.143E+00    0.148E+01
RMM:  48    -0.640445349742E+03   -0.23382E+01   -0.85590E-01 36015   0.121E+00    0.139E+01
RMM:  49    -0.640567798925E+03   -0.12245E+00   -0.68511E-01 35594   0.107E+00    0.138E+01
RMM:  50    -0.641998551290E+03   -0.14308E+01   -0.65999E-01 35563   0.103E+00    0.141E+01
RMM:  51    -0.646377990215E+03   -0.43794E+01   -0.87492E-01 36349   0.122E+00    0.127E+01
RMM:  52    -0.646921378947E+03   -0.54339E+00   -0.31933E-01 32908   0.807E-01    0.122E+01
RMM:  53    -0.646333999870E+03    0.58738E+00   -0.28523E-01 32672   0.746E-01    0.123E+01
RMM:  54    -0.646997624894E+03   -0.66363E+00   -0.24198E-01 31348   0.678E-01    0.112E+01
RMM:  55    -0.651015416724E+03   -0.40178E+01   -0.32256E-01 32539   0.769E-01    0.105E+01
RMM:  56    -0.654330318628E+03   -0.33149E+01   -0.48911E-01 34754   0.916E-01    0.104E+01
RMM:  57    -0.654707610209E+03   -0.37729E+00   -0.14094E-01 29736   0.510E-01    0.935E+00
RMM:  58    -0.655757261172E+03   -0.10497E+01   -0.19433E-01 31384   0.626E-01    0.928E+00
RMM:  59    -0.657950531605E+03   -0.21933E+01   -0.41409E-01 33518   0.793E-01    0.831E+00
RMM:  60    -0.660370988646E+03   -0.24205E+01   -0.57093E-01 34222   0.896E-01    0.811E+00
RMM:  61    -0.661604185569E+03   -0.12332E+01   -0.60938E-01 35050   0.105E+00    0.809E+00
RMM:  62    -0.662238051480E+03   -0.63387E+00   -0.63949E-01 34153   0.945E-01    0.644E+00
RMM:  63    -0.664927126753E+03   -0.26891E+01   -0.57091E-01 33985   0.845E-01    0.570E+00
RMM:  64    -0.667309843935E+03   -0.23827E+01   -0.69166E-01 33390   0.822E-01    0.433E+00
RMM:  65    -0.669395209456E+03   -0.20854E+01   -0.79841E-01 32376   0.675E-01    0.398E+00
RMM:  66    -0.669816005013E+03   -0.42080E+00   -0.13430E-01 30502   0.477E-01    0.364E+00
RMM:  67    -0.669966067043E+03   -0.15006E+00   -0.50900E-02 26497   0.361E-01    0.316E+00
RMM:  68    -0.670048700549E+03   -0.82634E-01   -0.10301E-01 29158   0.380E-01    0.294E+00
RMM:  69    -0.669692458433E+03    0.35624E+00   -0.31955E-02 26387   0.276E-01    0.258E+00
RMM:  70    -0.669692085750E+03    0.37268E-03   -0.21929E-02 25736   0.220E-01    0.232E+00
RMM:  71    -0.669862813332E+03   -0.17073E+00   -0.31473E-02 27259   0.271E-01    0.218E+00
RMM:  72    -0.669666700265E+03    0.19611E+00   -0.30684E-02 27658   0.265E-01    0.175E+00
RMM:  73    -0.669770322839E+03   -0.10362E+00   -0.17149E-02 26047   0.197E-01    0.156E+00
RMM:  74    -0.669980979401E+03   -0.21066E+00   -0.12849E-02 25652   0.157E-01    0.144E+00
RMM:  75    -0.670106305899E+03   -0.12533E+00   -0.11332E-02 25526   0.138E-01    0.129E+00
RMM:  76    -0.670138051268E+03   -0.31745E-01   -0.54433E-03 24569   0.103E-01    0.117E+00
RMM:  77    -0.670150864542E+03   -0.12813E-01   -0.54908E-03 25048   0.996E-02    0.112E+00
RMM:  78    -0.670188996988E+03   -0.38132E-01   -0.29026E-03 23574   0.810E-02    0.105E+00
RMM:  79    -0.670242700178E+03   -0.53703E-01   -0.21825E-03 23364   0.651E-02    0.102E+00
RMM:  80    -0.670307942420E+03   -0.65242E-01   -0.16250E-03 23116   0.549E-02
   1 F= -.67030794E+03 E0= -.66991522E+03  d E =-.670308E+03  mag=    91.9766
       N       E                     dE             d eps       ncg     rms          rms(c)
DAV:   1    -0.665795709597E+03    0.44470E+01   -0.85929E+02 28096   0.308E+01    0.169E+01
RMM:   2    -0.667176631428E+03   -0.13809E+01   -0.29242E+01 24320   0.724E+00    0.230E+01
RMM:   3    -0.667982621161E+03   -0.80599E+00   -0.65399E+00 24484   0.398E+00    0.102E+01
RMM:   4    -0.668305182945E+03   -0.32256E+00   -0.16495E+00 24676   0.202E+00    0.882E+00
RMM:   5    -0.669819658149E+03   -0.15145E+01   -0.71244E-01 24232   0.127E+00    0.470E+00
RMM:   6    -0.670038032989E+03   -0.21837E+00   -0.24944E-01 24256   0.718E-01    0.340E+00
RMM:   7    -0.670432812861E+03   -0.39478E+00   -0.95227E-02 25072   0.473E-01    0.229E+00
RMM:   8    -0.670482561187E+03   -0.49748E-01   -0.37995E-02 26384   0.255E-01    0.127E+00
RMM:   9    -0.670620411439E+03   -0.13785E+00   -0.11944E-02 26760   0.146E-01    0.104E+00
RMM:  10    -0.670679809942E+03   -0.59399E-01   -0.63595E-03 25517   0.113E-01    0.101E+00
RMM:  11    -0.670743862683E+03   -0.64053E-01   -0.37279E-03 24368   0.888E-02    0.901E-01
RMM:  12    -0.670755780859E+03   -0.11918E-01   -0.20795E-03 25869   0.610E-02    0.888E-01
RMM:  13    -0.670772809057E+03   -0.17028E-01   -0.10216E-03 24294   0.431E-02    0.853E-01
RMM:  14    -0.670800573739E+03   -0.27765E-01   -0.10893E-03 24113   0.413E-02    0.850E-01
RMM:  15    -0.670812692005E+03   -0.12118E-01   -0.93993E-04 23875   0.401E-02    0.823E-01
RMM:  16    -0.670828399455E+03   -0.15707E-01   -0.10748E-03 24782   0.418E-02    0.805E-01
RMM:  17    -0.670848294226E+03   -0.19895E-01   -0.19177E-03 26427   0.527E-02    0.767E-01
RMM:  18    -0.670851712639E+03   -0.34184E-02   -0.39061E-03 29289   0.684E-02    0.704E-01
RMM:  19    -0.670780393854E+03    0.71319E-01   -0.50306E-03 30043   0.768E-02    0.588E-01
RMM:  20    -0.670698203137E+03    0.82191E-01   -0.36948E-03 28060   0.698E-02    0.487E-01
RMM:  21    -0.670702363003E+03   -0.41599E-02   -0.20577E-03 26054   0.572E-02    0.381E-01
RMM:  22    -0.670712975183E+03   -0.10612E-01   -0.69177E-04 21363   0.354E-02    0.318E-01
RMM:  23    -0.670751627352E+03   -0.38652E-01   -0.35986E-04 19502   0.286E-02    0.303E-01
RMM:  24    -0.670809242149E+03   -0.57615E-01   -0.36921E-04 19286   0.275E-02    0.272E-01
RMM:  25    -0.670941169086E+03   -0.13193E+00   -0.11297E-03 21773   0.350E-02    0.246E-01
RMM:  26    -0.671039223450E+03   -0.98054E-01   -0.10155E-03 21320   0.303E-02    0.219E-01
RMM:  27    -0.671108297398E+03   -0.69074E-01   -0.70310E-04 19933   0.256E-02    0.188E-01
RMM:  28    -0.671166787064E+03   -0.58490E-01   -0.67759E-04 20276   0.248E-02    0.160E-01
RMM:  29    -0.671217983463E+03   -0.51196E-01   -0.46826E-04 18593   0.201E-02    0.133E-01
RMM:  30    -0.671251059843E+03   -0.33076E-01   -0.13631E-04 15892   0.147E-02    0.127E-01
RMM:  31    -0.671278881484E+03   -0.27822E-01   -0.59213E-05 14490   0.123E-02    0.110E-01
RMM:  32    -0.671311841418E+03   -0.32960E-01   -0.37738E-05 14614   0.102E-02    0.999E-02
RMM:  33    -0.671359263044E+03   -0.47422E-01   -0.52086E-05 14746   0.107E-02    0.994E-02
RMM:  34    -0.671396445467E+03   -0.37182E-01   -0.39820E-05 14045   0.103E-02    0.902E-02
RMM:  35    -0.671423650193E+03   -0.27205E-01   -0.25101E-05 13512   0.813E-03    0.834E-02
RMM:  36    -0.671451429505E+03   -0.27779E-01   -0.22138E-05 13862   0.736E-03    0.795E-02
RMM:  37    -0.671487308337E+03   -0.35879E-01   -0.35506E-05 14168   0.803E-03    0.748E-02
RMM:  38    -0.671530132669E+03   -0.42824E-01   -0.49507E-05 14595   0.911E-03    0.665E-02
RMM:  39    -0.671555313407E+03   -0.25181E-01   -0.37506E-05 13513   0.758E-03    0.593E-02
RMM:  40    -0.671572217242E+03   -0.16904E-01   -0.33426E-05 13556   0.641E-03    0.564E-02
RMM:  41    -0.671585257241E+03   -0.13040E-01   -0.35676E-05 13030   0.652E-03    0.554E-02
RMM:  42    -0.671596056472E+03   -0.10799E-01   -0.44237E-05 13159   0.691E-03    0.508E-02
RMM:  43    -0.671607924660E+03   -0.11868E-01   -0.81436E-05 13906   0.730E-03    0.467E-02
RMM:  44    -0.671615921939E+03   -0.79973E-02   -0.68749E-05 13653   0.655E-03    0.430E-02
RMM:  45    -0.671623420861E+03   -0.74989E-02   -0.79629E-05 13873   0.674E-03    0.403E-02
RMM:  46    -0.671627778340E+03   -0.43575E-02   -0.54315E-05 13404   0.638E-03    0.392E-02
RMM:  47    -0.671629682654E+03   -0.19043E-02   -0.28510E-05 12529   0.554E-03    0.369E-02
RMM:  48    -0.671631414237E+03   -0.17316E-02   -0.22571E-05 11712   0.477E-03    0.353E-02
RMM:  49    -0.671632951186E+03   -0.15369E-02   -0.15241E-05 11184   0.430E-03    0.342E-02
RMM:  50    -0.671634539213E+03   -0.15880E-02   -0.17693E-05 12057   0.443E-03    0.338E-02
RMM:  51    -0.671635177835E+03   -0.63862E-03   -0.21900E-05 12421   0.473E-03    0.319E-02
RMM:  52    -0.671635340698E+03   -0.16286E-03   -0.13828E-05 12148   0.480E-03    0.324E-02
RMM:  53    -0.671634632079E+03    0.70862E-03   -0.26380E-05 13498   0.539E-03    0.290E-02
RMM:  54    -0.671633763975E+03    0.86810E-03   -0.25600E-05 13180   0.527E-03    0.237E-02
RMM:  55    -0.671634940431E+03   -0.11765E-02   -0.17356E-05 12996   0.465E-03    0.196E-02
RMM:  56    -0.671637762590E+03   -0.28222E-02   -0.10952E-05 12685   0.431E-03    0.182E-02
RMM:  57    -0.671641029509E+03   -0.32669E-02   -0.85062E-06 12606   0.409E-03    0.156E-02
RMM:  58    -0.671644218786E+03   -0.31893E-02   -0.68234E-06 12415   0.386E-03    0.130E-02
RMM:  59    -0.671646045291E+03   -0.18265E-02   -0.36453E-06 10521   0.299E-03    0.817E-03
RMM:  60    -0.671647162510E+03   -0.11172E-02   -0.13413E-06  8220   0.251E-03    0.557E-03
RMM:  61    -0.671647642269E+03   -0.47976E-03   -0.42353E-07  6661   0.226E-03    0.458E-03
RMM:  62    -0.671647858439E+03   -0.21617E-03   -0.49948E-07  6455   0.224E-03    0.364E-03
RMM:  63    -0.671647977606E+03   -0.11917E-03   -0.62593E-07  6276   0.222E-03    0.339E-03
RMM:  64    -0.671648065751E+03   -0.88145E-04   -0.38610E-07  5747   0.212E-03
   2 F= -.67164807E+03 E0= -.67127117E+03  d E =-.134012E+01  mag=    86.2932
       N       E                     dE             d eps       ncg     rms          rms(c)
DAV:   1    -0.671622534889E+03    0.25443E-01   -0.54060E+01 27744   0.806E+00    0.526E+00
RMM:   2    -0.671774616030E+03   -0.15208E+00   -0.17066E+00 24181   0.185E+00    0.368E+00
RMM:   3    -0.671869610050E+03   -0.94994E-01   -0.25202E-01 23940   0.676E-01    0.262E+00
RMM:   4    -0.671874897361E+03   -0.52873E-02   -0.11540E-01 23916   0.534E-01    0.300E+00
RMM:   5    -0.671869652574E+03    0.52448E-02   -0.68398E-02 23730   0.413E-01    0.146E+00
RMM:   6    -0.671862509233E+03    0.71433E-02   -0.21914E-02 23914   0.224E-01    0.816E-01
RMM:   7    -0.671859492539E+03    0.30167E-02   -0.63724E-03 23349   0.123E-01    0.486E-01
RMM:   8    -0.671860028567E+03   -0.53603E-03   -0.20741E-03 22711   0.671E-02    0.241E-01
RMM:   9    -0.671861154550E+03   -0.11260E-02   -0.78731E-04 21828   0.353E-02    0.126E-01
RMM:  10    -0.671862507232E+03   -0.13527E-02   -0.35278E-04 18432   0.242E-02    0.119E-01
RMM:  11    -0.671863414208E+03   -0.90698E-03   -0.19017E-04 16085   0.202E-02    0.815E-02
RMM:  12    -0.671864156415E+03   -0.74221E-03   -0.11796E-04 14851   0.149E-02    0.664E-02
RMM:  13    -0.671864882870E+03   -0.72645E-03   -0.58270E-05 13569   0.112E-02    0.459E-02
RMM:  14    -0.671865387668E+03   -0.50480E-03   -0.25159E-05 12567   0.719E-03    0.391E-02
RMM:  15    -0.671866122793E+03   -0.73513E-03   -0.17636E-05 12241   0.545E-03    0.358E-02
RMM:  16    -0.671867438994E+03   -0.13162E-02   -0.22321E-05 12398   0.543E-03    0.343E-02
RMM:  17    -0.671868575270E+03   -0.11363E-02   -0.17641E-05 11838   0.481E-03    0.323E-02
RMM:  18    -0.671869557489E+03   -0.98222E-03   -0.11767E-05 11075   0.407E-03    0.307E-02
RMM:  19    -0.671870459867E+03   -0.90238E-03   -0.83555E-06 10890   0.363E-03    0.296E-02
RMM:  20    -0.671872743073E+03   -0.22832E-02   -0.25846E-05 11975   0.464E-03    0.282E-02
RMM:  21    -0.671875249629E+03   -0.25066E-02   -0.44210E-05 12576   0.521E-03    0.274E-02
RMM:  22    -0.671877188038E+03   -0.19384E-02   -0.51511E-05 12686   0.557E-03    0.250E-02
RMM:  23    -0.671878116221E+03   -0.92818E-03   -0.21130E-05 11256   0.423E-03    0.237E-02
RMM:  24    -0.671879182497E+03   -0.10663E-02   -0.12828E-05 10566   0.361E-03    0.216E-02
RMM:  25    -0.671880614976E+03   -0.14325E-02   -0.85293E-06 10465   0.319E-03    0.212E-02
RMM:  26    -0.671882349710E+03   -0.17347E-02   -0.63954E-06 10494   0.309E-03    0.192E-02
RMM:  27    -0.671883457547E+03   -0.11078E-02   -0.21223E-06  8295   0.261E-03    0.185E-02
RMM:  28    -0.671884729523E+03   -0.12720E-02   -0.10962E-06  7587   0.249E-03    0.173E-02
RMM:  29    -0.671886952657E+03   -0.22231E-02   -0.24501E-06  9375   0.279E-03    0.167E-02
RMM:  30    -0.671888712839E+03   -0.17602E-02   -0.32670E-06 10266   0.287E-03    0.151E-02
RMM:  31    -0.671889447585E+03   -0.73475E-03   -0.15752E-06  8475   0.255E-03    0.134E-02
RMM:  32    -0.671890261631E+03   -0.81405E-03   -0.21728E-06  8293   0.250E-03    0.127E-02
RMM:  33    -0.671891267532E+03   -0.10059E-02   -0.29594E-06  8981   0.259E-03    0.122E-02
RMM:  34    -0.671892142585E+03   -0.87505E-03   -0.23532E-06  8271   0.247E-03    0.108E-02
RMM:  35    -0.671892827423E+03   -0.68484E-03   -0.17999E-06  7636   0.238E-03    0.104E-02
RMM:  36    -0.671893469273E+03   -0.64185E-03   -0.18293E-06  7504   0.234E-03    0.967E-03
RMM:  37    -0.671894328387E+03   -0.85911E-03   -0.31031E-06  8105   0.250E-03    0.935E-03
RMM:  38    -0.671895154882E+03   -0.82650E-03   -0.40945E-06  8784   0.260E-03    0.844E-03
RMM:  39    -0.671895597735E+03   -0.44285E-03   -0.17502E-06  7152   0.236E-03    0.708E-03
RMM:  40    -0.671896123941E+03   -0.52621E-03   -0.15926E-06  6687   0.230E-03    0.641E-03
RMM:  41    -0.671896664196E+03   -0.54025E-03   -0.85519E-07  6153   0.226E-03    0.606E-03
RMM:  42    -0.671897278455E+03   -0.61426E-03   -0.10764E-06  6481   0.229E-03    0.548E-03
RMM:  43    -0.671897830191E+03   -0.55174E-03   -0.83614E-07  6071   0.222E-03    0.461E-03
RMM:  44    -0.671898459468E+03   -0.62928E-03   -0.10119E-06  6165   0.222E-03    0.404E-03
RMM:  45    -0.671899170191E+03   -0.71072E-03   -0.16582E-06  6557   0.229E-03    0.361E-03
RMM:  46    -0.671899656801E+03   -0.48661E-03   -0.15287E-06  6303   0.227E-03    0.274E-03
RMM:  47    -0.671899918471E+03   -0.26167E-03   -0.73369E-07  5594   0.217E-03    0.223E-03
RMM:  48    -0.671900082458E+03   -0.16399E-03   -0.55912E-07  5312   0.213E-03    0.197E-03
RMM:  49    -0.671900198421E+03   -0.11596E-03   -0.42123E-07  5214   0.212E-03    0.176E-03
RMM:  50    -0.671900258551E+03   -0.60130E-04   -0.16154E-07  5014   0.211E-03
   3 F= -.67190026E+03 E0= -.67152238E+03  d E =-.159232E+01  mag=    86.4156
       N       E                     dE             d eps       ncg     rms          rms(c)
DAV:   1    -0.670825005122E+03    0.10752E+01   -0.16161E+02 26048   0.147E+01    0.647E+00
RMM:   2    -0.671218388859E+03   -0.39338E+00   -0.41700E+00 24320   0.298E+00    0.620E+00
RMM:   3    -0.671426997676E+03   -0.20861E+00   -0.72948E-01 24392   0.134E+00    0.440E+00
RMM:   4    -0.671387964765E+03    0.39033E-01   -0.26878E-01 24846   0.845E-01    0.353E+00
RMM:   5    -0.671387557960E+03    0.40680E-03   -0.11571E-01 24254   0.510E-01    0.188E+00
RMM:   6    -0.671387857285E+03   -0.29933E-03   -0.48606E-02 24345   0.303E-01    0.165E+00
RMM:   7    -0.671378999921E+03    0.88574E-02   -0.17955E-02 24770   0.215E-01    0.983E-01
RMM:   8    -0.671377601451E+03    0.13985E-02   -0.62794E-03 26219   0.110E-01    0.308E-01
RMM:   9    -0.671380942168E+03   -0.33407E-02   -0.22453E-03 27582   0.569E-02    0.219E-01
RMM:  10    -0.671384067845E+03   -0.31257E-02   -0.10106E-03 25260   0.399E-02    0.174E-01
RMM:  11    -0.671387238751E+03   -0.31709E-02   -0.62466E-04 23805   0.310E-02    0.114E-01
RMM:  12    -0.671388900650E+03   -0.16619E-02   -0.35801E-04 21479   0.223E-02    0.986E-02
RMM:  13    -0.671390480717E+03   -0.15801E-02   -0.18274E-04 17352   0.160E-02    0.686E-02
RMM:  14    -0.671391711873E+03   -0.12312E-02   -0.95878E-05 14645   0.110E-02    0.651E-02
RMM:  15    -0.671393198648E+03   -0.14868E-02   -0.60581E-05 14110   0.906E-03    0.593E-02
RMM:  16    -0.671394584381E+03   -0.13857E-02   -0.46000E-05 13804   0.822E-03    0.582E-02
RMM:  17    -0.671396448442E+03   -0.18641E-02   -0.53118E-05 13858   0.835E-03    0.542E-02
RMM:  18    -0.671397857453E+03   -0.14090E-02   -0.39240E-05 13313   0.700E-03    0.513E-02
RMM:  19    -0.671399286660E+03   -0.14292E-02   -0.36932E-05 13431   0.683E-03    0.492E-02
RMM:  20    -0.671400872687E+03   -0.15860E-02   -0.40358E-05 13402   0.703E-03    0.462E-02
RMM:  21    -0.671403851938E+03   -0.29793E-02   -0.10409E-04 14559   0.930E-03    0.414E-02
RMM:  22    -0.671406436100E+03   -0.25842E-02   -0.75839E-05 14168   0.796E-03    0.391E-02
RMM:  23    -0.671408000504E+03   -0.15644E-02   -0.30489E-05 12799   0.625E-03    0.370E-02
RMM:  24    -0.671409291541E+03   -0.12910E-02   -0.15157E-05 11788   0.491E-03    0.340E-02
RMM:  25    -0.671411710069E+03   -0.24185E-02   -0.12440E-05 12351   0.436E-03    0.330E-02
RMM:  26    -0.671415349245E+03   -0.36392E-02   -0.12613E-05 12913   0.454E-03    0.306E-02
RMM:  27    -0.671417298433E+03   -0.19492E-02   -0.54066E-06 11694   0.365E-03    0.289E-02
RMM:  28    -0.671420076303E+03   -0.27779E-02   -0.44043E-06 11398   0.328E-03    0.272E-02
RMM:  29    -0.671424224407E+03   -0.41481E-02   -0.59478E-06 12033   0.346E-03    0.261E-02
RMM:  30    -0.671428214507E+03   -0.39901E-02   -0.67798E-06 12350   0.354E-03    0.238E-02
RMM:  31    -0.671430650050E+03   -0.24355E-02   -0.47932E-06 11457   0.318E-03    0.226E-02
RMM:  32    -0.671432278335E+03   -0.16283E-02   -0.30345E-06  9717   0.275E-03    0.207E-02
RMM:  33    -0.671434869099E+03   -0.25908E-02   -0.57411E-06 10385   0.290E-03    0.198E-02
RMM:  34    -0.671437694198E+03   -0.28251E-02   -0.80725E-06 11095   0.315E-03    0.188E-02
RMM:  35    -0.671440062290E+03   -0.23681E-02   -0.62679E-06 10872   0.322E-03    0.179E-02
RMM:  36    -0.671441612815E+03   -0.15505E-02   -0.36477E-06  9679   0.297E-03    0.161E-02
RMM:  37    -0.671443694202E+03   -0.20814E-02   -0.44196E-06 10004   0.293E-03    0.155E-02
RMM:  38    -0.671446146292E+03   -0.24521E-02   -0.47435E-06 10427   0.310E-03    0.145E-02
RMM:  39    -0.671448088978E+03   -0.19427E-02   -0.39064E-06 10717   0.305E-03    0.129E-02
RMM:  40    -0.671449706398E+03   -0.16174E-02   -0.19173E-06  8823   0.262E-03    0.108E-02
RMM:  41    -0.671451333446E+03   -0.16270E-02   -0.11634E-06  8014   0.243E-03    0.995E-03
RMM:  42    -0.671453264713E+03   -0.19313E-02   -0.15125E-06  8426   0.245E-03    0.902E-03
RMM:  43    -0.671454726418E+03   -0.14617E-02   -0.12548E-06  7418   0.233E-03    0.787E-03
RMM:  44    -0.671456026012E+03   -0.12996E-02   -0.15566E-06  7370   0.231E-03    0.657E-03
RMM:  45    -0.671457100585E+03   -0.10746E-02   -0.17835E-06  7409   0.233E-03    0.572E-03
RMM:  46    -0.671458099170E+03   -0.99858E-03   -0.20206E-06  7420   0.236E-03    0.453E-03
RMM:  47    -0.671458751336E+03   -0.65217E-03   -0.14498E-06  6953   0.229E-03    0.380E-03
RMM:  48    -0.671459080375E+03   -0.32904E-03   -0.71617E-07  6245   0.219E-03    0.309E-03
RMM:  49    -0.671459412249E+03   -0.33187E-03   -0.68058E-07  6176   0.216E-03    0.264E-03
RMM:  50    -0.671459619375E+03   -0.20713E-03   -0.63997E-07  6262   0.216E-03    0.231E-03
RMM:  51    -0.671459715830E+03   -0.96455E-04   -0.44199E-07  5987   0.213E-03
   4 F= -.67145972E+03 E0= -.67107697E+03  d E =0.440543E+00  mag=    86.2600
       N       E                     dE             d eps       ncg     rms          rms(c)
DAV:   1    -0.671684836571E+03   -0.22522E+00   -0.18842E+01 26912   0.505E+00    0.231E+00
RMM:   2    -0.671732343289E+03   -0.47507E-01   -0.47877E-01 24320   0.101E+00    0.170E+00
RMM:   3    -0.671750239517E+03   -0.17896E-01   -0.71865E-02 23969   0.400E-01    0.133E+00
RMM:   4    -0.671744535256E+03    0.57043E-02   -0.26959E-02 23751   0.267E-01    0.120E+00
RMM:   5    -0.671739413131E+03    0.51221E-02   -0.14808E-02 23555   0.181E-01    0.705E-01
RMM:   6    -0.671736231494E+03    0.31816E-02   -0.57719E-03 23240   0.113E-01    0.450E-01
RMM:   7    -0.671735187655E+03    0.10438E-02   -0.21086E-03 22998   0.716E-02    0.307E-01
RMM:   8    -0.671735118895E+03    0.68760E-04   -0.77191E-04 22543   0.392E-02
   5 F= -.67173512E+03 E0= -.67135573E+03  d E =0.165140E+00  mag=    86.2638
       N       E                     dE             d eps       ncg     rms          rms(c)
DAV:   1    -0.672006864807E+03   -0.27168E+00   -0.16848E+01 27040   0.478E+00    0.216E+00
RMM:   2    -0.672035892255E+03   -0.29027E-01   -0.42381E-01 24320   0.946E-01    0.157E+00
RMM:   3    -0.672056606798E+03   -0.20715E-01   -0.63312E-02 23925   0.377E-01    0.126E+00
RMM:   4    -0.672052071866E+03    0.45349E-02   -0.24350E-02 23886   0.254E-01    0.110E+00
RMM:   5    -0.672051703730E+03    0.36814E-03   -0.11800E-02 23674   0.163E-01    0.646E-01
RMM:   6    -0.672050731385E+03    0.97234E-03   -0.48392E-03 23778   0.101E-01    0.485E-01
RMM:   7    -0.672049011108E+03    0.17203E-02   -0.18004E-03 23726   0.633E-02    0.280E-01
RMM:   8    -0.672049252774E+03   -0.24167E-03   -0.64847E-04 22146   0.359E-02    0.104E-01
RMM:   9    -0.672049970505E+03   -0.71773E-03   -0.26559E-04 18185   0.193E-02    0.737E-02
RMM:  10    -0.672050689887E+03   -0.71938E-03   -0.12943E-04 15230   0.146E-02    0.653E-02
RMM:  11    -0.672051340210E+03   -0.65032E-03   -0.83594E-05 14262   0.119E-02    0.535E-02
RMM:  12    -0.672051699397E+03   -0.35919E-03   -0.44295E-05 13380   0.918E-03    0.496E-02
RMM:  13    -0.672052087257E+03   -0.38786E-03   -0.26692E-05 12793   0.748E-03    0.437E-02
RMM:  14    -0.672052482897E+03   -0.39564E-03   -0.15891E-05 11907   0.523E-03    0.407E-02
RMM:  15    -0.672053258926E+03   -0.77603E-03   -0.16673E-05 12162   0.480E-03    0.398E-02
RMM:  16    -0.672054591311E+03   -0.13324E-02   -0.33485E-05 12944   0.578E-03    0.377E-02
RMM:  17    -0.672056057492E+03   -0.14662E-02   -0.41656E-05 12735   0.578E-03    0.360E-02
RMM:  18    -0.672057529254E+03   -0.14718E-02   -0.36971E-05 12484   0.534E-03    0.332E-02
RMM:  19    -0.672059038636E+03   -0.15094E-02   -0.29928E-05 12310   0.477E-03    0.322E-02
RMM:  20    -0.672060968146E+03   -0.19295E-02   -0.39507E-05 12638   0.541E-03    0.311E-02
RMM:  21    -0.672062803009E+03   -0.18349E-02   -0.40574E-05 12482   0.542E-03    0.287E-02
RMM:  22    -0.672063946465E+03   -0.11435E-02   -0.22223E-05 11447   0.450E-03    0.255E-02
RMM:  23    -0.672065026541E+03   -0.10801E-02   -0.97091E-06 10279   0.348E-03    0.239E-02
RMM:  24    -0.672066427970E+03   -0.14014E-02   -0.47066E-06  9597   0.292E-03    0.224E-02
RMM:  25    -0.672069976700E+03   -0.35487E-02   -0.53171E-06 11619   0.326E-03    0.219E-02
RMM:  26    -0.672072809801E+03   -0.28331E-02   -0.32717E-06 10857   0.301E-03    0.196E-02
RMM:  27    -0.672074586655E+03   -0.17769E-02   -0.16608E-06  8771   0.259E-03    0.184E-02
RMM:  28    -0.672076623739E+03   -0.20371E-02   -0.22651E-06  9351   0.267E-03    0.178E-02
RMM:  29    -0.672079470961E+03   -0.28472E-02   -0.56786E-06 11132   0.315E-03    0.162E-02
RMM:  30    -0.672080702506E+03   -0.12315E-02   -0.35714E-06  9443   0.278E-03    0.150E-02
RMM:  31    -0.672081613844E+03   -0.91134E-03   -0.26601E-06  8639   0.258E-03    0.141E-02
RMM:  32    -0.672082883358E+03   -0.12695E-02   -0.31054E-06  9001   0.262E-03    0.139E-02
RMM:  33    -0.672084530628E+03   -0.16473E-02   -0.43769E-06  9555   0.276E-03    0.126E-02
RMM:  34    -0.672085800329E+03   -0.12697E-02   -0.35428E-06  8929   0.261E-03    0.117E-02
RMM:  35    -0.672086657076E+03   -0.85675E-03   -0.19033E-06  7564   0.242E-03    0.108E-02
RMM:  36    -0.672087596339E+03   -0.93926E-03   -0.23392E-06  7948   0.245E-03    0.101E-02
RMM:  37    -0.672089052596E+03   -0.14563E-02   -0.38712E-06  9092   0.266E-03    0.970E-03
RMM:  38    -0.672090224286E+03   -0.11717E-02   -0.27993E-06  8406   0.255E-03    0.810E-03
RMM:  39    -0.672091029103E+03   -0.80482E-03   -0.16961E-06  7451   0.237E-03    0.707E-03
RMM:  40    -0.672091877026E+03   -0.84792E-03   -0.11868E-06  6822   0.227E-03    0.633E-03
RMM:  41    -0.672092992755E+03   -0.11157E-02   -0.15986E-06  7048   0.230E-03    0.550E-03
RMM:  42    -0.672093802323E+03   -0.80957E-03   -0.12090E-06  6493   0.222E-03    0.475E-03
RMM:  43    -0.672094581046E+03   -0.77872E-03   -0.16857E-06  6780   0.225E-03    0.387E-03
RMM:  44    -0.672095102550E+03   -0.52150E-03   -0.10193E-06  6099   0.216E-03    0.326E-03
RMM:  45    -0.672095537773E+03   -0.43522E-03   -0.11623E-06  6089   0.217E-03    0.259E-03
RMM:  46    -0.672095778584E+03   -0.24081E-03   -0.63265E-07  5585   0.213E-03    0.221E-03
RMM:  47    -0.672095895813E+03   -0.11723E-03   -0.26382E-07  5156   0.208E-03    0.180E-03
RMM:  48    -0.672095979317E+03   -0.83504E-04   -0.24120E-07  5070   0.207E-03
   6 F= -.67209598E+03 E0= -.67171783E+03  d E =-.195721E+00  mag=    86.3749
       N       E                     dE             d eps       ncg     rms          rms(c)
DAV:   1    -0.672077130879E+03    0.18765E-01   -0.28504E+00 27568   0.195E+00    0.865E-01
RMM:   2    -0.672083897219E+03   -0.67663E-02   -0.70784E-02 23975   0.387E-01    0.672E-01
RMM:   3    -0.672087360280E+03   -0.34631E-02   -0.11308E-02 23115   0.161E-01    0.541E-01
RMM:   4    -0.672086595320E+03    0.76496E-03   -0.43176E-03 22227   0.107E-01    0.425E-01
RMM:   5    -0.672086251334E+03    0.34399E-03   -0.19435E-03 21259   0.654E-02    0.233E-01
RMM:   6    -0.672086081740E+03    0.16959E-03   -0.78896E-04 19960   0.410E-02    0.149E-01
RMM:   7    -0.672086046222E+03    0.35519E-04   -0.32144E-04 17505   0.282E-02    0.103E-01
RMM:   8    -0.672086088504E+03   -0.42282E-04   -0.11489E-04 14296   0.166E-02
   7 F= -.67208609E+03 E0= -.67170819E+03  d E =-.185830E+00  mag=    86.3763
       N       E                     dE             d eps       ncg     rms          rms(c)
DAV:   1    -0.672102772057E+03   -0.16726E-01   -0.80234E-01 28304   0.103E+00    0.455E-01
RMM:   2    -0.672105664288E+03   -0.28922E-02   -0.19792E-02 23370   0.205E-01    0.381E-01
RMM:   3    -0.672106934490E+03   -0.12702E-02   -0.32726E-03 22027   0.875E-02    0.301E-01
RMM:   4    -0.672106984782E+03   -0.50292E-04   -0.12284E-03 20148   0.572E-02    0.225E-01
RMM:   5    -0.672107128145E+03   -0.14336E-03   -0.53829E-04 18940   0.346E-02    0.137E-01
RMM:   6    -0.672107257557E+03   -0.12941E-03   -0.23589E-04 16648   0.224E-02    0.101E-01
RMM:   7    -0.672107290350E+03   -0.32793E-04   -0.94251E-05 14181   0.163E-02    0.710E-02
RMM:   8    -0.672107301182E+03   -0.10832E-04   -0.28183E-05 12645   0.925E-03
   8 F= -.67210730E+03 E0= -.67172927E+03  d E =-.207043E+00  mag=    86.3771
       N       E                     dE             d eps       ncg     rms          rms(c)
DAV:   1    -0.672044275617E+03    0.63015E-01   -0.23866E+01 24752   0.576E+00    0.160E+00
RMM:   2    -0.672097553262E+03   -0.53278E-01   -0.59030E-01 24240   0.110E+00    0.116E+00
RMM:   3    -0.672121469723E+03   -0.23916E-01   -0.85714E-02 23997   0.424E-01    0.901E-01
RMM:   4    -0.672121318913E+03    0.15081E-03   -0.19050E-02 24523   0.219E-01    0.767E-01
RMM:   5    -0.672120843335E+03    0.47558E-03   -0.66259E-03 24547   0.119E-01    0.510E-01
RMM:   6    -0.672120614988E+03    0.22835E-03   -0.28216E-03 23943   0.709E-02    0.322E-01
RMM:   7    -0.672121297921E+03   -0.68293E-03   -0.16961E-03 23224   0.599E-02    0.332E-01
RMM:   8    -0.672121281451E+03    0.16470E-04   -0.78967E-04 21684   0.423E-02
   9 F= -.67212128E+03 E0= -.67174442E+03  d E =-.139803E-01  mag=    86.3771
       N       E                     dE             d eps       ncg     rms          rms(c)
DAV:   1    -0.672202093644E+03   -0.80796E-01   -0.69307E+00 25248   0.311E+00    0.878E-01
RMM:   2    -0.672217386186E+03   -0.15293E-01   -0.16989E-01 24070   0.593E-01    0.634E-01
RMM:   3    -0.672225769545E+03   -0.83834E-02   -0.25402E-02 23514   0.233E-01    0.571E-01
RMM:   4    -0.672225543444E+03    0.22610E-03   -0.58914E-03 23102   0.124E-01    0.384E-01
RMM:   5    -0.672225757154E+03   -0.21371E-03   -0.21221E-03 21800   0.683E-02    0.275E-01
RMM:   6    -0.672225937794E+03   -0.18064E-03   -0.79037E-04 20230   0.387E-02    0.135E-01
RMM:   7    -0.672226389372E+03   -0.45158E-03   -0.51844E-04 19900   0.337E-02    0.178E-01
RMM:   8    -0.672226434031E+03   -0.44659E-04   -0.21583E-04 16580   0.237E-02
  10 F= -.67222643E+03 E0= -.67184900E+03  d E =-.119133E+00  mag=    86.3774
       N       E                     dE             d eps       ncg     rms          rms(c)
DAV:   1    -0.672237140873E+03   -0.10752E-01   -0.11627E+01 26192   0.402E+00    0.127E+00
RMM:   2    -0.672261733961E+03   -0.24593E-01   -0.31162E-01 24320   0.776E-01    0.105E+00
RMM:   3    -0.672273474517E+03   -0.11741E-01   -0.43281E-02 24064   0.309E-01    0.735E-01
RMM:   4    -0.672272784227E+03    0.69029E-03   -0.10376E-02 23919   0.169E-01    0.620E-01
RMM:   5    -0.672272036002E+03    0.74822E-03   -0.34610E-03 23257   0.894E-02    0.394E-01
RMM:   6    -0.672271620193E+03    0.41581E-03   -0.15244E-03 22280   0.589E-02    0.300E-01
RMM:   7    -0.672271668220E+03   -0.48027E-04   -0.96674E-04 21611   0.469E-02    0.236E-01
RMM:   8    -0.672272139132E+03   -0.47091E-03   -0.43577E-04 19216   0.305E-02    0.860E-02
RMM:   9    -0.672272823757E+03   -0.68462E-03   -0.17204E-04 15741   0.158E-02    0.577E-02
RMM:  10    -0.672273292596E+03   -0.46884E-03   -0.61614E-05 13397   0.115E-02    0.428E-02
RMM:  11    -0.672273767088E+03   -0.47449E-03   -0.30222E-05 12755   0.813E-03    0.276E-02
RMM:  12    -0.672274355653E+03   -0.58857E-03   -0.20316E-05 12503   0.622E-03    0.259E-02
RMM:  13    -0.672275048657E+03   -0.69300E-03   -0.18508E-05 12538   0.595E-03    0.197E-02
RMM:  14    -0.672275350299E+03   -0.30164E-03   -0.96154E-06 11657   0.460E-03    0.148E-02
RMM:  15    -0.672275521497E+03   -0.17120E-03   -0.44299E-06 10300   0.356E-03    0.115E-02
RMM:  16    -0.672275695432E+03   -0.17393E-03   -0.22746E-06  8821   0.283E-03    0.106E-02
RMM:  17    -0.672275939755E+03   -0.24432E-03   -0.16455E-06  8319   0.267E-03    0.920E-03
RMM:  18    -0.672276364031E+03   -0.42428E-03   -0.34380E-06  9413   0.280E-03    0.872E-03
RMM:  19    -0.672276818389E+03   -0.45436E-03   -0.58329E-06  9943   0.292E-03    0.743E-03
RMM:  20    -0.672276999839E+03   -0.18145E-03   -0.15197E-06  6891   0.239E-03    0.636E-03
RMM:  21    -0.672277276223E+03   -0.27638E-03   -0.27033E-06  7714   0.247E-03    0.583E-03
RMM:  22    -0.672277604098E+03   -0.32788E-03   -0.44277E-06  8902   0.264E-03    0.579E-03
RMM:  23    -0.672277762683E+03   -0.15858E-03   -0.33338E-06  8574   0.255E-03    0.485E-03
RMM:  24    -0.672277851898E+03   -0.89215E-04   -0.12971E-06  7164   0.236E-03
  11 F= -.67227785E+03 E0= -.67190168E+03  d E =-.514179E-01  mag=    86.3793
       N       E                     dE             d eps       ncg     rms          rms(c)
DAV:   1    -0.672297595396E+03   -0.19833E-01   -0.14279E+00 27392   0.141E+00    0.445E-01
RMM:   2    -0.672299580500E+03   -0.19851E-02   -0.37251E-02 24116   0.269E-01    0.348E-01
RMM:   3    -0.672301487377E+03   -0.19069E-02   -0.52232E-03 22733   0.107E-01    0.247E-01
RMM:   4    -0.672301484752E+03    0.26254E-05   -0.12063E-03 21513   0.571E-02    0.207E-01
RMM:   5    -0.672301584614E+03   -0.99862E-04   -0.42921E-04 18961   0.325E-02    0.128E-01
RMM:   6    -0.672301740476E+03   -0.15586E-03   -0.19685E-04 16259   0.217E-02    0.981E-02
RMM:   7    -0.672301935684E+03   -0.19521E-03   -0.11103E-04 14481   0.170E-02    0.817E-02
RMM:   8    -0.672302106193E+03   -0.17051E-03   -0.51772E-05 13420   0.118E-02    0.307E-02
RMM:   9    -0.672302270347E+03   -0.16415E-03   -0.16660E-05 12185   0.600E-03    0.188E-02
RMM:  10    -0.672302390808E+03   -0.12046E-03   -0.73163E-06 11417   0.441E-03    0.121E-02
RMM:  11    -0.672302531951E+03   -0.14114E-03   -0.39979E-06 10154   0.336E-03    0.987E-03
RMM:  12    -0.672302708696E+03   -0.17674E-03   -0.26923E-06  9378   0.298E-03    0.798E-03
RMM:  13    -0.672302930249E+03   -0.22155E-03   -0.23261E-06  8949   0.273E-03    0.632E-03
RMM:  14    -0.672303046309E+03   -0.11606E-03   -0.10191E-06  7406   0.248E-03    0.371E-03
RMM:  15    -0.672303118743E+03   -0.72434E-04   -0.25043E-07  5932   0.229E-03
  12 F= -.67230312E+03 E0= -.67192651E+03  d E =-.766847E-01  mag=    86.3797
       N       E                     dE             d eps       ncg     rms          rms(c)
DAV:   1    -0.672331710415E+03   -0.28664E-01   -0.57925E+00 25952   0.283E+00    0.933E-01
RMM:   2    -0.672345173469E+03   -0.13463E-01   -0.15474E-01 24320   0.551E-01    0.749E-01
RMM:   3    -0.672351331919E+03   -0.61584E-02   -0.21390E-02 23984   0.213E-01    0.542E-01
RMM:   4    -0.672352016514E+03   -0.68460E-03   -0.56303E-03 23399   0.122E-01    0.573E-01
RMM:   5    -0.672351109775E+03    0.90674E-03   -0.21123E-03 22382   0.740E-02    0.353E-01
RMM:   6    -0.672350920091E+03    0.18968E-03   -0.95804E-04 21670   0.474E-02    0.200E-01
RMM:   7    -0.672351046539E+03   -0.12645E-03   -0.51168E-04 20142   0.351E-02    0.156E-01
RMM:   8    -0.672351221383E+03   -0.17484E-03   -0.22506E-04 16806   0.230E-02    0.704E-02
RMM:   9    -0.672351449912E+03   -0.22853E-03   -0.77233E-05 14037   0.126E-02    0.410E-02
RMM:  10    -0.672351592860E+03   -0.14295E-03   -0.33826E-05 12824   0.876E-03    0.323E-02
RMM:  11    -0.672351750573E+03   -0.15771E-03   -0.17191E-05 12185   0.639E-03    0.184E-02
RMM:  12    -0.672351937689E+03   -0.18712E-03   -0.11916E-05 11909   0.504E-03    0.196E-02
RMM:  13    -0.672352119403E+03   -0.18171E-03   -0.93265E-06 11762   0.472E-03    0.130E-02
RMM:  14    -0.672352197023E+03   -0.77620E-04   -0.44175E-06 10499   0.361E-03
  13 F= -.67235220E+03 E0= -.67197626E+03  d E =-.490783E-01  mag=    86.3811
       N       E                     dE             d eps       ncg     rms          rms(c)
DAV:   1    -0.672354504074E+03   -0.23847E-02   -0.18350E-01 26224   0.502E-01    0.165E-01
RMM:   2    -0.672355191022E+03   -0.68695E-03   -0.47900E-03 22362   0.975E-02    0.133E-01
RMM:   3    -0.672355579787E+03   -0.38876E-03   -0.66975E-04 19594   0.383E-02    0.954E-02
RMM:   4    -0.672355682752E+03   -0.10297E-03   -0.17628E-04 15730   0.224E-02    0.104E-01
RMM:   5    -0.672355744259E+03   -0.61506E-04   -0.70317E-05 13559   0.148E-02    0.614E-02
RMM:   6    -0.672355823994E+03   -0.79735E-04   -0.30157E-05 12646   0.903E-03    0.353E-02
RMM:   7    -0.672355891442E+03   -0.67448E-04   -0.14640E-05 11900   0.675E-03    0.257E-02
RMM:   8    -0.672355916036E+03   -0.24594E-04   -0.59512E-06 11050   0.446E-03
  14 F= -.67235592E+03 E0= -.67197986E+03  d E =-.527973E-01  mag=    86.3816
       N       E                     dE             d eps       ncg     rms          rms(c)
DAV:   1    -0.672387360890E+03   -0.31469E-01   -0.21622E+00 25136   0.178E+00    0.421E-01
RMM:   2    -0.672391653160E+03   -0.42923E-02   -0.50295E-02 24228   0.332E-01    0.322E-01
RMM:   3    -0.672393762309E+03   -0.21091E-02   -0.77898E-03 23378   0.130E-01    0.326E-01
RMM:   4    -0.672393569040E+03    0.19327E-03   -0.18058E-03 23476   0.656E-02    0.210E-01
RMM:   5    -0.672393492526E+03    0.76514E-04   -0.58548E-04 20769   0.347E-02    0.134E-01
RMM:   6    -0.672393494369E+03   -0.18431E-05   -0.25615E-04 17601   0.230E-02    0.941E-02
RMM:   7    -0.672393576735E+03   -0.82365E-04   -0.15572E-04 15656   0.197E-02    0.741E-02
RMM:   8    -0.672393615094E+03   -0.38359E-04   -0.74768E-05 13752   0.148E-02
  15 F= -.67239362E+03 E0= -.67201849E+03  d E =-.376991E-01  mag=    86.3818
       N       E                     dE             d eps       ncg     rms          rms(c)
DAV:   1    -0.672394784568E+03   -0.12078E-02   -0.46409E-02 27504   0.263E-01    0.661E-02
RMM:   2    -0.672394937666E+03   -0.15310E-03   -0.10825E-03 20672   0.495E-02    0.640E-02
RMM:   3    -0.672395015437E+03   -0.77771E-04   -0.17713E-04 15306   0.208E-02    0.542E-02
RMM:   4    -0.672395043124E+03   -0.27686E-04   -0.45385E-05 13038   0.124E-02    0.333E-02
RMM:   5    -0.672395076171E+03   -0.33048E-04   -0.13055E-05 11655   0.592E-03    0.206E-02
RMM:   6    -0.672395131800E+03   -0.55629E-04   -0.58948E-06 10908   0.400E-03    0.126E-02
RMM:   7    -0.672395172845E+03   -0.41044E-04   -0.34922E-06 10550   0.356E-03    0.139E-02
RMM:   8    -0.672395195571E+03   -0.22726E-04   -0.11232E-06  8421   0.272E-03
  16 F= -.67239520E+03 E0= -.67201994E+03  d E =-.392795E-01  mag=    86.3820
       N       E                     dE             d eps       ncg     rms          rms(c)
DAV:   1    -0.672414256115E+03   -0.19083E-01   -0.74676E-01 25824   0.103E+00    0.262E-01
RMM:   2    -0.672416315254E+03   -0.20591E-02   -0.17034E-02 23987   0.186E-01    0.212E-01
RMM:   3    -0.672416818635E+03   -0.50338E-03   -0.26277E-03 22459   0.774E-02    0.216E-01
RMM:   4    -0.672416693065E+03    0.12557E-03   -0.63346E-04 20421   0.410E-02    0.108E-01
RMM:   5    -0.672416677568E+03    0.15497E-04   -0.20400E-04 15977   0.206E-02    0.701E-02
RMM:   6    -0.672416674564E+03    0.30044E-05   -0.66599E-05 13547   0.132E-02    0.514E-02
RMM:   7    -0.672416686055E+03   -0.11492E-04   -0.54908E-05 13386   0.115E-02    0.514E-02
RMM:   8    -0.672416685331E+03    0.72457E-06   -0.30975E-05 12823   0.975E-03
  17 F= -.67241669E+03 E0= -.67204235E+03  d E =-.214898E-01  mag=    86.3815
       N       E                     dE             d eps       ncg     rms          rms(c)
DAV:   1    -0.672418628107E+03   -0.19421E-02   -0.13238E-01 26656   0.432E-01    0.112E-01
RMM:   2    -0.672418996260E+03   -0.36815E-03   -0.30607E-03 22421   0.790E-02    0.948E-02
RMM:   3    -0.672419105258E+03   -0.10900E-03   -0.49024E-04 19015   0.335E-02    0.103E-01
RMM:   4    -0.672419051501E+03    0.53757E-04   -0.12044E-04 14607   0.187E-02    0.489E-02
RMM:   5    -0.672419041777E+03    0.97239E-05   -0.36877E-05 12878   0.102E-02    0.313E-02
RMM:   6    -0.672419029234E+03    0.12543E-04   -0.14579E-05 12093   0.627E-03    0.256E-02
RMM:   7    -0.672419004921E+03    0.24313E-04   -0.12376E-05 12045   0.557E-03    0.275E-02
RMM:   8    -0.672418974156E+03    0.30765E-04   -0.70952E-06 11367   0.461E-03
  18 F= -.67241897E+03 E0= -.67204503E+03  d E =-.237786E-01  mag=    86.3806
       N       E                     dE             d eps       ncg     rms          rms(c)
DAV:   1    -0.672431862133E+03   -0.12857E-01   -0.28228E-01 27280   0.613E-01    0.164E-01
RMM:   2    -0.672432453432E+03   -0.59130E-03   -0.55692E-03 22827   0.105E-01    0.128E-01
RMM:   3    -0.672432612419E+03   -0.15899E-03   -0.92689E-04 20471   0.445E-02    0.127E-01
RMM:   4    -0.672432537118E+03    0.75301E-04   -0.26169E-04 16933   0.252E-02    0.783E-02
RMM:   5    -0.672432502315E+03    0.34803E-04   -0.79872E-05 13686   0.140E-02    0.496E-02
RMM:   6    -0.672432471192E+03    0.31124E-04   -0.38225E-05 12792   0.101E-02    0.438E-02
RMM:   7    -0.672432404950E+03    0.66241E-04   -0.25382E-05 12557   0.826E-03    0.302E-02
RMM:   8    -0.672432371004E+03    0.33946E-04   -0.10647E-05 11780   0.545E-03
  19 F= -.67243237E+03 E0= -.67205891E+03  d E =-.133968E-01  mag=    86.3793
       N       E                     dE             d eps       ncg     rms          rms(c)
DAV:   1    -0.672438033340E+03   -0.56284E-02   -0.16884E+00 26112   0.150E+00    0.401E-01
RMM:   2    -0.672441857961E+03   -0.38246E-02   -0.33438E-02 24160   0.258E-01    0.313E-01
RMM:   3    -0.672442774014E+03   -0.91605E-03   -0.55389E-03 23134   0.109E-01    0.303E-01
RMM:   4    -0.672442475590E+03    0.29842E-03   -0.15059E-03 23030   0.603E-02    0.189E-01
RMM:   5    -0.672442369711E+03    0.10588E-03   -0.51000E-04 20938   0.305E-02    0.119E-01
RMM:   6    -0.672442295568E+03    0.74143E-04   -0.22270E-04 17428   0.218E-02    0.109E-01
RMM:   7    -0.672442105679E+03    0.18989E-03   -0.15265E-04 15674   0.186E-02    0.798E-02
RMM:   8    -0.672441990515E+03    0.11516E-03   -0.62975E-05 13613   0.122E-02    0.304E-02
RMM:   9    -0.672441914828E+03    0.75688E-04   -0.20100E-05 12457   0.657E-03
  20 F= -.67244191E+03 E0= -.67206961E+03  d E =-.229407E-01  mag=    86.3769
       N       E                     dE             d eps       ncg     rms          rms(c)
DAV:   1    -0.672456292668E+03   -0.14302E-01   -0.59815E-01 27232   0.900E-01    0.256E-01
RMM:   2    -0.672457145126E+03   -0.85246E-03   -0.11057E-02 23919   0.146E-01    0.185E-01
RMM:   3    -0.672457487769E+03   -0.34264E-03   -0.17209E-03 22075   0.617E-02    0.169E-01
RMM:   4    -0.672457313788E+03    0.17398E-03   -0.52204E-04 19896   0.355E-02    0.125E-01
RMM:   5    -0.672457208560E+03    0.10523E-03   -0.17975E-04 15922   0.192E-02    0.684E-02
RMM:   6    -0.672457145258E+03    0.63302E-04   -0.10460E-04 14458   0.148E-02    0.828E-02
RMM:   7    -0.672457020075E+03    0.12518E-03   -0.56455E-05 13548   0.128E-02    0.462E-02
RMM:   8    -0.672456980141E+03    0.39934E-04   -0.20343E-05 12455   0.696E-03
  21 F= -.67245698E+03 E0= -.67208476E+03  d E =-.150653E-01  mag=    86.3746
       N       E                     dE             d eps       ncg     rms          rms(c)
DAV:   1    -0.672457193479E+03   -0.17340E-03   -0.26866E-02 27888   0.191E-01    0.568E-02
RMM:   2    -0.672457157861E+03    0.35618E-04   -0.51621E-04 18433   0.315E-02    0.476E-02
RMM:   3    -0.672457172683E+03   -0.14822E-04   -0.90601E-05 13956   0.146E-02    0.489E-02
RMM:   4    -0.672457137773E+03    0.34911E-04   -0.28259E-05 12571   0.951E-03    0.307E-02
RMM:   5    -0.672457114296E+03    0.23477E-04   -0.95052E-06 11671   0.492E-03    0.228E-02
RMM:   6    -0.672457099652E+03    0.14644E-04   -0.67972E-06 11339   0.463E-03    0.200E-02
RMM:   7    -0.672457074251E+03    0.25401E-04   -0.36979E-06 10483   0.347E-03    0.153E-02
RMM:   8    -0.672457067567E+03    0.66841E-05   -0.14351E-06  7757   0.266E-03
  22 F= -.67245707E+03 E0= -.67208486E+03  d E =-.151527E-01  mag=    86.3724
       N       E                     dE             d eps       ncg     rms          rms(c)
DAV:   1    -0.672477813587E+03   -0.20739E-01   -0.27687E-01 26176   0.624E-01    0.156E-01
RMM:   2    -0.672478369989E+03   -0.55640E-03   -0.61628E-03 23115   0.111E-01    0.104E-01
RMM:   3    -0.672478568816E+03   -0.19883E-03   -0.89235E-04 20362   0.440E-02    0.873E-02
RMM:   4    -0.672478549260E+03    0.19556E-04   -0.18244E-04 15570   0.217E-02    0.678E-02
RMM:   5    -0.672478574150E+03   -0.24891E-04   -0.59756E-05 13404   0.132E-02    0.442E-02
RMM:   6    -0.672478604329E+03   -0.30179E-04   -0.28325E-05 12501   0.819E-03    0.322E-02
RMM:   7    -0.672478658888E+03   -0.54559E-04   -0.15828E-05 12422   0.669E-03    0.259E-02
RMM:   8    -0.672478695932E+03   -0.37044E-04   -0.74022E-06 11678   0.498E-03
  23 F= -.67247870E+03 E0= -.67210608E+03  d E =-.216284E-01  mag=    86.3705
       N       E                     dE             d eps       ncg     rms          rms(c)
DAV:   1    -0.672485841078E+03   -0.71822E-02   -0.19782E+00 25712   0.167E+00    0.417E-01
RMM:   2    -0.672490540950E+03   -0.46999E-02   -0.43912E-02 24060   0.295E-01    0.274E-01
RMM:   3    -0.672491904930E+03   -0.13640E-02   -0.63475E-03 23245   0.116E-01    0.231E-01
RMM:   4    -0.672491855632E+03    0.49299E-04   -0.13203E-03 22353   0.561E-02    0.173E-01
RMM:   5    -0.672491882217E+03   -0.26586E-04   -0.41475E-04 19007   0.305E-02    0.116E-01
RMM:   6    -0.672491958722E+03   -0.76504E-04   -0.18523E-04 16009   0.199E-02    0.833E-02
RMM:   7    -0.672492092541E+03   -0.13382E-03   -0.11445E-04 14716   0.171E-02    0.822E-02
RMM:   8    -0.672492181255E+03   -0.88713E-04   -0.57210E-05 13643   0.130E-02
  24 F= -.67249218E+03 E0= -.67211846E+03  d E =-.351137E-01  mag=    86.3693
       N       E                     dE             d eps       ncg     rms          rms(c)
DAV:   1    -0.672494573039E+03   -0.24805E-02   -0.13909E-01 27280   0.442E-01    0.111E-01
RMM:   2    -0.672495117902E+03   -0.54486E-03   -0.30384E-03 22569   0.782E-02    0.808E-02
RMM:   3    -0.672495223734E+03   -0.10583E-03   -0.44046E-04 18169   0.312E-02    0.655E-02
RMM:   4    -0.672495274398E+03   -0.50664E-04   -0.90316E-05 14073   0.165E-02    0.491E-02
RMM:   5    -0.672495314259E+03   -0.39862E-04   -0.29384E-05 12651   0.942E-03    0.305E-02
RMM:   6    -0.672495390662E+03   -0.76403E-04   -0.14166E-05 12071   0.578E-03    0.211E-02
RMM:   7    -0.672495486134E+03   -0.95472E-04   -0.68011E-06 11991   0.441E-03    0.194E-02
RMM:   8    -0.672495506525E+03   -0.20391E-04   -0.23345E-06 10646   0.322E-03
  25 F= -.67249551E+03 E0= -.67212207E+03  d E =-.384390E-01  mag=    86.3680
       N       E                     dE             d eps       ncg     rms          rms(c)
DAV:   1    -0.672510173336E+03   -0.14687E-01   -0.28722E-01 26624   0.635E-01    0.156E-01
RMM:   2    -0.672510697599E+03   -0.52426E-03   -0.60787E-03 23006   0.113E-01    0.119E-01
RMM:   3    -0.672511007619E+03   -0.31002E-03   -0.10166E-03 20493   0.448E-02    0.953E-02
RMM:   4    -0.672511006031E+03    0.15879E-05   -0.21540E-04 16159   0.235E-02    0.666E-02
RMM:   5    -0.672511048540E+03   -0.42509E-04   -0.68418E-05 13299   0.133E-02    0.428E-02
RMM:   6    -0.672511096501E+03   -0.47960E-04   -0.32377E-05 12557   0.857E-03    0.293E-02
RMM:   7    -0.672511180011E+03   -0.83510E-04   -0.18477E-05 12513   0.663E-03    0.266E-02
RMM:   8    -0.672511223830E+03   -0.43820E-04   -0.89167E-06 11724   0.537E-03
  26 F= -.67251122E+03 E0= -.67213730E+03  d E =-.157173E-01  mag=    86.3670
       N       E                     dE             d eps       ncg     rms          rms(c)
DAV:   1    -0.672499846176E+03    0.11334E-01   -0.17234E+00 25280   0.155E+00    0.379E-01
RMM:   2    -0.672503239729E+03   -0.33936E-02   -0.36505E-02 24099   0.275E-01    0.272E-01
RMM:   3    -0.672504699037E+03   -0.14593E-02   -0.60455E-03 23066   0.108E-01    0.221E-01
RMM:   4    -0.672504641060E+03    0.57978E-04   -0.13296E-03 22248   0.552E-02    0.157E-01
RMM:   5    -0.672504697178E+03   -0.56118E-04   -0.40583E-04 18643   0.277E-02    0.958E-02
RMM:   6    -0.672504754290E+03   -0.57112E-04   -0.17707E-04 15660   0.179E-02    0.703E-02
RMM:   7    -0.672504879795E+03   -0.12551E-03   -0.10364E-04 14635   0.148E-02    0.608E-02
RMM:   8    -0.672504944677E+03   -0.64882E-04   -0.47935E-05 13229   0.116E-02
  27 F= -.67250494E+03 E0= -.67212984E+03  d E =-.943815E-02  mag=    86.3667
       N       E                     dE             d eps       ncg     rms          rms(c)
DAV:   1    -0.672516061535E+03   -0.11182E-01   -0.55843E-01 26448   0.883E-01    0.216E-01
RMM:   2    -0.672517270932E+03   -0.12094E-02   -0.11786E-02 23665   0.157E-01    0.160E-01
RMM:   3    -0.672517769227E+03   -0.49829E-03   -0.19200E-03 21755   0.620E-02    0.130E-01
RMM:   4    -0.672517782004E+03   -0.12777E-04   -0.41781E-04 18567   0.322E-02    0.887E-02
RMM:   5    -0.672517800824E+03   -0.18820E-04   -0.12567E-04 14480   0.170E-02    0.553E-02
RMM:   6    -0.672517833160E+03   -0.32336E-04   -0.58230E-05 13100   0.113E-02    0.405E-02
RMM:   7    -0.672517894785E+03   -0.61625E-04   -0.32346E-05 13012   0.859E-03    0.325E-02
RMM:   8    -0.672517910949E+03   -0.16164E-04   -0.14723E-05 12166   0.670E-03
  28 F= -.67251791E+03 E0= -.67214347E+03  d E =-.224044E-01  mag=    86.3661
       N       E                     dE             d eps       ncg     rms          rms(c)
DAV:   1    -0.672529391676E+03   -0.11497E-01   -0.14595E-01 26752   0.459E-01    0.117E-01
RMM:   2    -0.672529793554E+03   -0.40188E-03   -0.32310E-03 22951   0.825E-02    0.821E-02
RMM:   3    -0.672529927121E+03   -0.13357E-03   -0.47842E-04 18717   0.327E-02    0.697E-02
RMM:   4    -0.672529931156E+03   -0.40354E-05   -0.10300E-04 14431   0.172E-02    0.470E-02
RMM:   5    -0.672529958379E+03   -0.27223E-04   -0.34257E-05 12691   0.101E-02    0.334E-02
RMM:   6    -0.672529990590E+03   -0.32212E-04   -0.13809E-05 12105   0.592E-03    0.188E-02
RMM:   7    -0.672530047578E+03   -0.56988E-04   -0.97192E-06 12201   0.512E-03    0.199E-02
RMM:   8    -0.672530069336E+03   -0.21758E-04   -0.42892E-06 11137   0.405E-03
  29 F= -.67253007E+03 E0= -.67215543E+03  d E =-.121584E-01  mag=    86.3656
       N       E                     dE             d eps       ncg     rms          rms(c)
DAV:   1    -0.672538416373E+03   -0.83688E-02   -0.18924E-01 26064   0.523E-01    0.132E-01
RMM:   2    -0.672538924278E+03   -0.50791E-03   -0.42085E-03 23214   0.938E-02    0.909E-02
RMM:   3    -0.672539094268E+03   -0.16999E-03   -0.63025E-04 19729   0.372E-02    0.811E-02
RMM:   4    -0.672539092763E+03    0.15050E-05   -0.13463E-04 15119   0.191E-02    0.545E-02
RMM:   5    -0.672539114733E+03   -0.21970E-04   -0.44884E-05 13312   0.115E-02    0.385E-02
RMM:   6    -0.672539139293E+03   -0.24560E-04   -0.19018E-05 12557   0.694E-03    0.223E-02
RMM:   7    -0.672539184596E+03   -0.45303E-04   -0.13765E-05 12711   0.595E-03    0.236E-02
RMM:   8    -0.672539201156E+03   -0.16560E-04   -0.66443E-06 11761   0.486E-03
  30 F= -.67253920E+03 E0= -.67216433E+03  d E =-.212902E-01  mag=    86.3653
       N       E                     dE             d eps       ncg     rms          rms(c)
DAV:   1    -0.672535005736E+03    0.41789E-02   -0.75805E-01 26160   0.105E+00    0.263E-01
RMM:   2    -0.672536938169E+03   -0.19324E-02   -0.16879E-02 24080   0.187E-01    0.183E-01
RMM:   3    -0.672537466213E+03   -0.52804E-03   -0.25046E-03 22712   0.742E-02    0.158E-01
RMM:   4    -0.672537425634E+03    0.40580E-04   -0.56107E-04 20429   0.369E-02    0.102E-01
RMM:   5    -0.672537436304E+03   -0.10670E-04   -0.17250E-04 15975   0.202E-02    0.741E-02
RMM:   6    -0.672537440025E+03   -0.37216E-05   -0.73803E-05 14133   0.132E-02    0.472E-02
RMM:   7    -0.672537469856E+03   -0.29831E-04   -0.48602E-05 13900   0.108E-02    0.506E-02
RMM:   8    -0.672537476707E+03   -0.68508E-05   -0.23924E-05 12783   0.880E-03
  31 F= -.67253748E+03 E0= -.67216214E+03  d E =-.195658E-01  mag=    86.3652
       N       E                     dE             d eps       ncg     rms          rms(c)
DAV:   1    -0.672541430684E+03   -0.39608E-02   -0.26432E-01 26832   0.618E-01    0.156E-01
RMM:   2    -0.672542078868E+03   -0.64818E-03   -0.58415E-03 23432   0.111E-01    0.112E-01
RMM:   3    -0.672542257630E+03   -0.17876E-03   -0.85391E-04 20516   0.438E-02    0.942E-02
RMM:   4    -0.672542251504E+03    0.61262E-05   -0.18186E-04 15837   0.223E-02    0.624E-02
RMM:   5    -0.672542255000E+03   -0.34962E-05   -0.60254E-05 13353   0.134E-02    0.446E-02
RMM:   6    -0.672542265211E+03   -0.10211E-04   -0.24630E-05 12562   0.779E-03    0.244E-02
RMM:   7    -0.672542291773E+03   -0.26562E-04   -0.16185E-05 12724   0.609E-03    0.233E-02
RMM:   8    -0.672542300154E+03   -0.83810E-05   -0.66303E-06 11554   0.490E-03
  32 F= -.67254230E+03 E0= -.67216724E+03  d E =-.243892E-01  mag=    86.3650
       N       E                     dE             d eps       ncg     rms          rms(c)
DAV:   1    -0.672551330447E+03   -0.90387E-02   -0.19514E-01 25392   0.529E-01    0.135E-01
RMM:   2    -0.672551743136E+03   -0.41269E-03   -0.39179E-03 23109   0.927E-02    0.941E-02
RMM:   3    -0.672551939023E+03   -0.19589E-03   -0.65989E-04 19749   0.377E-02    0.101E-01
RMM:   4    -0.672551924719E+03    0.14303E-04   -0.15288E-04 15358   0.209E-02    0.522E-02
RMM:   5    -0.672551942260E+03   -0.17541E-04   -0.53473E-05 13197   0.121E-02    0.442E-02
RMM:   6    -0.672551957968E+03   -0.15708E-04   -0.24367E-05 12490   0.713E-03    0.218E-02
RMM:   7    -0.672551988808E+03   -0.30840E-04   -0.14962E-05 12288   0.654E-03    0.284E-02
RMM:   8    -0.672551998675E+03   -0.98674E-05   -0.62587E-06 11126   0.464E-03
  33 F= -.67255200E+03 E0= -.67217670E+03  d E =-.969852E-02  mag=    86.3650
       N       E                     dE             d eps       ncg     rms          rms(c)
DAV:   1    -0.672553916194E+03   -0.19274E-02   -0.59829E-02 26448   0.293E-01    0.753E-02
RMM:   2    -0.672554054007E+03   -0.13781E-03   -0.12223E-03 21341   0.515E-02    0.542E-02
RMM:   3    -0.672554131228E+03   -0.77222E-04   -0.21580E-04 15927   0.217E-02    0.653E-02
RMM:   4    -0.672554128314E+03    0.29141E-05   -0.51838E-05 13190   0.130E-02    0.269E-02
RMM:   5    -0.672554147085E+03   -0.18771E-04   -0.17276E-05 12242   0.662E-03    0.268E-02
RMM:   6    -0.672554163864E+03   -0.16779E-04   -0.85315E-06 11494   0.469E-03    0.136E-02
RMM:   7    -0.672554189163E+03   -0.25299E-04   -0.58260E-06 11216   0.435E-03    0.181E-02
RMM:   8    -0.672554200170E+03   -0.11006E-04   -0.23133E-06  9439   0.319E-03
  34 F= -.67255420E+03 E0= -.67217877E+03  d E =-.119000E-01  mag=    86.3651
       N       E                     dE             d eps       ncg     rms          rms(c)
DAV:   1    -0.672562799245E+03   -0.86101E-02   -0.15957E-01 25840   0.471E-01    0.125E-01
RMM:   2    -0.672563153096E+03   -0.35385E-03   -0.31525E-03 22810   0.826E-02    0.914E-02
RMM:   3    -0.672563290496E+03   -0.13740E-03   -0.57126E-04 19379   0.340E-02    0.978E-02
RMM:   4    -0.672563269285E+03    0.21211E-04   -0.12918E-04 14899   0.192E-02    0.459E-02
RMM:   5    -0.672563284673E+03   -0.15387E-04   -0.48687E-05 13107   0.113E-02    0.423E-02
RMM:   6    -0.672563297679E+03   -0.13006E-04   -0.20359E-05 12331   0.672E-03    0.165E-02
RMM:   7    -0.672563325744E+03   -0.28065E-04   -0.12084E-05 12208   0.569E-03    0.260E-02
RMM:   8    -0.672563334063E+03   -0.83186E-05   -0.56170E-06 11090   0.445E-03
  35 F= -.67256333E+03 E0= -.67218768E+03  d E =-.913389E-02  mag=    86.3655
       N       E                     dE             d eps       ncg     rms          rms(c)
DAV:   1    -0.672564239511E+03   -0.91377E-03   -0.25201E-01 26848   0.592E-01    0.157E-01
RMM:   2    -0.672564809513E+03   -0.57000E-03   -0.50072E-03 23392   0.104E-01    0.117E-01
RMM:   3    -0.672565018407E+03   -0.20889E-03   -0.91823E-04 21074   0.433E-02    0.126E-01
RMM:   4    -0.672564974525E+03    0.43882E-04   -0.20953E-04 16321   0.238E-02    0.553E-02
RMM:   5    -0.672564982645E+03   -0.81202E-05   -0.76876E-05 13730   0.139E-02    0.523E-02
RMM:   6    -0.672564981263E+03    0.13821E-05   -0.33455E-05 12927   0.845E-03    0.219E-02
RMM:   7    -0.672564991225E+03   -0.99614E-05   -0.19150E-05 12799   0.707E-03    0.326E-02
RMM:   8    -0.672564991284E+03   -0.59605E-07   -0.89995E-06 11770   0.546E-03
  36 F= -.67256499E+03 E0= -.67218906E+03  d E =-.107911E-01  mag=    86.3660
       N       E                     dE             d eps       ncg     rms          rms(c)
DAV:   1    -0.672565793297E+03   -0.80207E-03   -0.33417E-02 26576   0.216E-01    0.567E-02
RMM:   2    -0.672565865341E+03   -0.72043E-04   -0.65220E-04 19467   0.375E-02    0.410E-02
RMM:   3    -0.672565902635E+03   -0.37294E-04   -0.10915E-04 14189   0.153E-02    0.382E-02
RMM:   4    -0.672565907229E+03   -0.45942E-05   -0.24732E-05 12383   0.899E-03    0.246E-02
RMM:   5    -0.672565919397E+03   -0.12169E-04   -0.92206E-06 11478   0.520E-03    0.180E-02
RMM:   6    -0.672565936008E+03   -0.16611E-04   -0.35951E-06  9614   0.328E-03    0.727E-03
RMM:   7    -0.672565959032E+03   -0.23023E-04   -0.17319E-06  8366   0.276E-03    0.771E-03
RMM:   8    -0.672565967564E+03   -0.85328E-05   -0.47634E-07  6125   0.237E-03
  37 F= -.67256597E+03 E0= -.67219013E+03  d E =-.117674E-01  mag=    86.3665
       N       E                     dE             d eps       ncg     rms          rms(c)
DAV:   1    -0.672570708573E+03   -0.47495E-02   -0.10360E-01 26288   0.386E-01    0.110E-01
RMM:   2    -0.672570968823E+03   -0.26025E-03   -0.19777E-03 22706   0.663E-02    0.734E-02
RMM:   3    -0.672571079776E+03   -0.11095E-03   -0.32260E-04 17219   0.276E-02    0.725E-02
RMM:   4    -0.672571074422E+03    0.53542E-05   -0.82958E-05 13884   0.164E-02    0.393E-02
RMM:   5    -0.672571081308E+03   -0.68862E-05   -0.26442E-05 12604   0.862E-03    0.279E-02
RMM:   6    -0.672571088686E+03   -0.73779E-05   -0.11692E-05 12077   0.549E-03    0.163E-02
RMM:   7    -0.672571101503E+03   -0.12817E-04   -0.83764E-06 11958   0.500E-03    0.204E-02
RMM:   8    -0.672571106323E+03   -0.48205E-05   -0.35635E-06 10670   0.370E-03
  38 F= -.67257111E+03 E0= -.67219537E+03  d E =-.513876E-02  mag=    86.3669
       N       E                     dE             d eps       ncg     rms          rms(c)
DAV:   1    -0.672571549983E+03   -0.44848E-03   -0.26154E-02 27040   0.194E-01    0.560E-02
RMM:   2    -0.672571619358E+03   -0.69375E-04   -0.51091E-04 19061   0.335E-02    0.382E-02
RMM:   3    -0.672571653511E+03   -0.34153E-04   -0.84615E-05 13877   0.148E-02    0.407E-02
RMM:   4    -0.672571653358E+03    0.15367E-06   -0.23893E-05 12432   0.914E-03    0.188E-02
RMM:   5    -0.672571658714E+03   -0.53560E-05   -0.72810E-06 11235   0.446E-03    0.148E-02
RMM:   6    -0.672571664262E+03   -0.55479E-05   -0.31142E-06  9366   0.327E-03    0.895E-03
RMM:   7    -0.672571672271E+03   -0.80094E-05   -0.22860E-06  9304   0.301E-03    0.999E-03
RMM:   8    -0.672571676899E+03   -0.46277E-05   -0.69357E-07  6488   0.247E-03
  39 F= -.67257168E+03 E0= -.67219598E+03  d E =-.570933E-02  mag=    86.3673
       N       E                     dE             d eps       ncg     rms          rms(c)
DAV:   1    -0.672573594248E+03   -0.19220E-02   -0.34233E-02 26768   0.221E-01    0.974E-02
RMM:   2    -0.672573724587E+03   -0.13034E-03   -0.70323E-04 21574   0.437E-02    0.599E-02
RMM:   3    -0.672573783143E+03   -0.58557E-04   -0.11881E-04 14486   0.176E-02    0.472E-02
RMM:   4    -0.672573781596E+03    0.15479E-05   -0.39233E-05 13087   0.121E-02    0.317E-02
RMM:   5    -0.672573783543E+03   -0.19474E-05   -0.12073E-05 12233   0.614E-03    0.183E-02
RMM:   6    -0.672573785516E+03   -0.19725E-05   -0.61549E-06 11780   0.438E-03    0.155E-02
RMM:   7    -0.672573787618E+03   -0.21029E-05   -0.35566E-06 11107   0.373E-03    0.106E-02
RMM:   8    -0.672573789180E+03   -0.15618E-05   -0.83540E-07  7592   0.255E-03
  40 F= -.67257379E+03 E0= -.67219826E+03  d E =-.211228E-02  mag=    86.3676
       N       E                     dE             d eps       ncg     rms          rms(c)
DAV:   1    -0.672574687725E+03   -0.90011E-03   -0.87282E-02 26624   0.353E-01    0.155E-01
RMM:   2    -0.672575012527E+03   -0.32480E-03   -0.17934E-03 22995   0.699E-02    0.959E-02
RMM:   3    -0.672575144816E+03   -0.13229E-03   -0.30940E-04 17924   0.282E-02    0.740E-02
RMM:   4    -0.672575133948E+03    0.10869E-04   -0.93532E-05 14310   0.180E-02    0.499E-02
RMM:   5    -0.672575127437E+03    0.65109E-05   -0.32628E-05 13135   0.101E-02    0.285E-02
RMM:   6    -0.672575121145E+03    0.62920E-05   -0.15677E-05 12673   0.641E-03    0.233E-02
RMM:   7    -0.672575111227E+03    0.99177E-05   -0.90318E-06 12251   0.552E-03    0.172E-02
RMM:   8    -0.672575105919E+03    0.53085E-05   -0.32005E-06 10746   0.357E-03
  41 F= -.67257511E+03 E0= -.67219983E+03  d E =-.342902E-02  mag=    86.3677
       N       E                     dE             d eps       ncg     rms          rms(c)
DAV:   1    -0.672576668383E+03   -0.15572E-02   -0.16639E-02 26512   0.149E-01    0.780E-02
RMM:   2    -0.672576726377E+03   -0.57994E-04   -0.31562E-04 18054   0.292E-02    0.471E-02
RMM:   3    -0.672576752958E+03   -0.26581E-04   -0.52339E-05 13916   0.129E-02    0.382E-02
RMM:   4    -0.672576744719E+03    0.82385E-05   -0.19551E-05 12563   0.856E-03    0.223E-02
RMM:   5    -0.672576731297E+03    0.13422E-04   -0.62504E-06 11706   0.456E-03    0.155E-02
RMM:   6    -0.672576718849E+03    0.12448E-04   -0.32541E-06 10869   0.346E-03    0.102E-02
RMM:   7    -0.672576709653E+03    0.91959E-05   -0.14489E-06  9337   0.280E-03    0.682E-03
RMM:   8    -0.672576705090E+03    0.45635E-05   -0.16380E-08  4627   0.210E-03
  42 F= -.67257671E+03 E0= -.67220147E+03  d E =-.159917E-02  mag=    86.3679
       N       E                     dE             d eps       ncg     rms          rms(c)
DAV:   1    -0.672579497226E+03   -0.27876E-02   -0.14975E-01 26608   0.447E-01    0.233E-01
RMM:   2    -0.672580143896E+03   -0.64667E-03   -0.28018E-03 23650   0.877E-02    0.142E-01
RMM:   3    -0.672580381829E+03   -0.23793E-03   -0.47824E-04 20698   0.371E-02    0.111E-01
RMM:   4    -0.672580339647E+03    0.42182E-04   -0.16182E-04 15823   0.229E-02    0.659E-02
RMM:   5    -0.672580311035E+03    0.28612E-04   -0.59270E-05 13810   0.136E-02    0.428E-02
RMM:   6    -0.672580285031E+03    0.26003E-04   -0.30614E-05 13448   0.881E-03    0.275E-02
RMM:   7    -0.672580265887E+03    0.19144E-04   -0.14563E-05 12721   0.690E-03    0.213E-02
RMM:   8    -0.672580256979E+03    0.89081E-05   -0.49166E-06 11337   0.429E-03
  43 F= -.67258026E+03 E0= -.67220512E+03  d E =-.515106E-02  mag=    86.3680
       N       E                     dE             d eps       ncg     rms          rms(c)
DAV:   1    -0.672578672438E+03    0.15934E-02   -0.59911E-01 26000   0.894E-01    0.466E-01
RMM:   2    -0.672581408111E+03   -0.27357E-02   -0.11200E-02 24106   0.175E-01    0.286E-01
RMM:   3    -0.672582264822E+03   -0.85671E-03   -0.19201E-03 23577   0.745E-02    0.223E-01
RMM:   4    -0.672582116565E+03    0.14826E-03   -0.67316E-04 21134   0.451E-02    0.124E-01
RMM:   5    -0.672582047940E+03    0.68625E-04   -0.22964E-04 17273   0.238E-02    0.826E-02
RMM:   6    -0.672581983240E+03    0.64700E-04   -0.11934E-04 14935   0.172E-02    0.580E-02
RMM:   7    -0.672581943057E+03    0.40184E-04   -0.59176E-05 14031   0.134E-02    0.414E-02
RMM:   8    -0.672581922477E+03    0.20579E-04   -0.19048E-05 12972   0.772E-03
  44 F= -.67258192E+03 E0= -.67220700E+03  d E =-.681656E-02  mag=    86.3682
       N       E                     dE             d eps       ncg     rms          rms(c)
DAV:   1    -0.672583283769E+03   -0.13407E-02   -0.17489E-02 27616   0.150E-01    0.832E-02
RMM:   2    -0.672583341300E+03   -0.57531E-04   -0.33229E-04 18327   0.300E-02    0.522E-02
RMM:   3    -0.672583361506E+03   -0.20206E-04   -0.59865E-05 13970   0.139E-02    0.443E-02
RMM:   4    -0.672583348386E+03    0.13120E-04   -0.24394E-05 12575   0.955E-03    0.231E-02
RMM:   5    -0.672583329380E+03    0.19006E-04   -0.76522E-06 11664   0.486E-03    0.171E-02
RMM:   6    -0.672583309352E+03    0.20027E-04   -0.42156E-06 10853   0.383E-03    0.118E-02
RMM:   7    -0.672583297332E+03    0.12021E-04   -0.20588E-06  9702   0.306E-03    0.801E-03
RMM:   8    -0.672583291505E+03    0.58273E-05   -0.24903E-07  5588   0.230E-03
  45 F= -.67258329E+03 E0= -.67220835E+03  d E =-.136903E-02  mag=    86.3684
       N       E                     dE             d eps       ncg     rms          rms(c)
DAV:   1    -0.672586350046E+03   -0.30527E-02   -0.15727E-01 25664   0.450E-01    0.247E-01
RMM:   2    -0.672587071291E+03   -0.72125E-03   -0.28748E-03 23785   0.888E-02    0.150E-01
RMM:   3    -0.672587325207E+03   -0.25392E-03   -0.49396E-04 20831   0.379E-02    0.116E-01
RMM:   4    -0.672587275897E+03    0.49310E-04   -0.17159E-04 16044   0.236E-02    0.673E-02
RMM:   5    -0.672587250506E+03    0.25392E-04   -0.64136E-05 13908   0.141E-02    0.461E-02
RMM:   6    -0.672587224340E+03    0.26166E-04   -0.33672E-05 13521   0.925E-03    0.281E-02
RMM:   7    -0.672587211434E+03    0.12906E-04   -0.15244E-05 12690   0.698E-03    0.222E-02
RMM:   8    -0.672587205066E+03    0.63675E-05   -0.54725E-06 11322   0.450E-03
  46 F= -.67258721E+03 E0= -.67221223E+03  d E =-.528259E-02  mag=    86.3688
       N       E                     dE             d eps       ncg     rms          rms(c)
DAV:   1    -0.672589886860E+03   -0.26754E-02   -0.62910E-01 25280   0.901E-01    0.495E-01
RMM:   2    -0.672592911851E+03   -0.30250E-02   -0.11478E-02 24169   0.177E-01    0.304E-01
RMM:   3    -0.672593849608E+03   -0.93776E-03   -0.20056E-03 23576   0.769E-02    0.238E-01
RMM:   4    -0.672593679656E+03    0.16995E-03   -0.72468E-04 21381   0.471E-02    0.126E-01
RMM:   5    -0.672593620828E+03    0.58828E-04   -0.25014E-04 17650   0.247E-02    0.904E-02
RMM:   6    -0.672593555274E+03    0.65554E-04   -0.12774E-04 15112   0.181E-02    0.581E-02
RMM:   7    -0.672593528018E+03    0.27256E-04   -0.63339E-05 14149   0.137E-02    0.430E-02
RMM:   8    -0.672593513254E+03    0.14764E-04   -0.21295E-05 13146   0.823E-03
  47 F= -.67259351E+03 E0= -.67221848E+03  d E =-.115908E-01  mag=    86.3694
       N       E                     dE             d eps       ncg     rms          rms(c)
DAV:   1    -0.672584284506E+03    0.92435E-02   -0.25173E+00 24960   0.180E+00    0.989E-01
RMM:   2    -0.672596815397E+03   -0.12531E-01   -0.46012E-02 24374   0.357E-01    0.629E-01
RMM:   3    -0.672600253475E+03   -0.34381E-02   -0.83101E-03 24302   0.159E-01    0.496E-01
RMM:   4    -0.672599605142E+03    0.64833E-03   -0.31287E-03 23991   0.983E-02    0.254E-01
RMM:   5    -0.672599438181E+03    0.16696E-03   -0.10777E-03 22835   0.498E-02    0.187E-01
RMM:   6    -0.672599212320E+03    0.22586E-03   -0.49680E-04 20289   0.347E-02    0.110E-01
RMM:   7    -0.672599123478E+03    0.88842E-04   -0.25881E-04 18148   0.254E-02    0.812E-02
RMM:   8    -0.672599068543E+03    0.54935E-04   -0.85407E-05 14639   0.158E-02
  48 F= -.67259907E+03 E0= -.67222390E+03  d E =-.171461E-01  mag=    86.3705
       N       E                     dE             d eps       ncg     rms          rms(c)
DAV:   1    -0.672602188282E+03   -0.30648E-02   -0.27439E-01 27168   0.610E-01    0.296E-01
RMM:   2    -0.672603277931E+03   -0.10896E-02   -0.49798E-03 24033   0.114E-01    0.176E-01
RMM:   3    -0.672603594967E+03   -0.31704E-03   -0.81347E-04 22444   0.479E-02    0.127E-01
RMM:   4    -0.672603543445E+03    0.51523E-04   -0.26119E-04 17796   0.280E-02    0.782E-02
RMM:   5    -0.672603476781E+03    0.66663E-04   -0.92862E-05 14720   0.165E-02    0.528E-02
RMM:   6    -0.672603420352E+03    0.56430E-04   -0.51026E-05 14013   0.117E-02    0.409E-02
RMM:   7    -0.672603382646E+03    0.37706E-04   -0.27088E-05 13471   0.897E-03    0.265E-02
RMM:   8    -0.672603372190E+03    0.10456E-04   -0.99443E-06 12203   0.546E-03
  49 F= -.67260337E+03 E0= -.67222825E+03  d E =-.430365E-02  mag=    86.3718
       N       E                     dE             d eps       ncg     rms          rms(c)
DAV:   1    -0.672603493568E+03   -0.11092E-03   -0.78960E-02 26912   0.327E-01    0.159E-01
RMM:   2    -0.672603799433E+03   -0.30586E-03   -0.14281E-03 22871   0.610E-02    0.917E-02
RMM:   3    -0.672603894571E+03   -0.95138E-04   -0.22879E-04 16622   0.247E-02    0.643E-02
RMM:   4    -0.672603882193E+03    0.12378E-04   -0.72136E-05 14170   0.162E-02    0.439E-02
RMM:   5    -0.672603865768E+03    0.16425E-04   -0.26457E-05 13178   0.892E-03    0.279E-02
RMM:   6    -0.672603853527E+03    0.12240E-04   -0.14695E-05 12768   0.632E-03    0.200E-02
RMM:   7    -0.672603851549E+03    0.19781E-05   -0.71904E-06 12118   0.480E-03    0.143E-02
RMM:   8    -0.672603856350E+03   -0.48010E-05   -0.25896E-06 10249   0.325E-03
  50 F= -.67260386E+03 E0= -.67222877E+03  d E =-.478781E-02  mag=    86.3731
       N       E                     dE             d eps       ncg     rms          rms(c)
DAV:   1    -0.672608586556E+03   -0.47350E-02   -0.30084E-02 26752   0.211E-01    0.755E-02
RMM:   2    -0.672608664405E+03   -0.77848E-04   -0.68622E-04 21045   0.418E-02    0.571E-02
RMM:   3    -0.672608706675E+03   -0.42271E-04   -0.12106E-04 14554   0.170E-02    0.450E-02
RMM:   4    -0.672608709297E+03   -0.26217E-05   -0.37587E-05 12990   0.116E-02    0.378E-02
RMM:   5    -0.672608726853E+03   -0.17555E-04   -0.12443E-05 12062   0.621E-03    0.194E-02
RMM:   6    -0.672608750631E+03   -0.23779E-04   -0.67563E-06 11873   0.433E-03    0.170E-02
RMM:   7    -0.672608774601E+03   -0.23969E-04   -0.34928E-06 11251   0.367E-03    0.107E-02
RMM:   8    -0.672608791617E+03   -0.17016E-04   -0.73549E-07  7309   0.245E-03
  51 F= -.67260879E+03 E0= -.67223379E+03  d E =-.493527E-02  mag=    86.3743
       N       E                     dE             d eps       ncg     rms          rms(c)
DAV:   1    -0.672613869341E+03   -0.50947E-02   -0.27046E-01 26000   0.633E-01    0.226E-01
RMM:   2    -0.672614637253E+03   -0.76791E-03   -0.61518E-03 23866   0.125E-01    0.164E-01
RMM:   3    -0.672614900813E+03   -0.26356E-03   -0.10713E-03 22276   0.492E-02    0.123E-01
RMM:   4    -0.672614887471E+03    0.13342E-04   -0.28141E-04 17932   0.287E-02    0.106E-01
RMM:   5    -0.672614895822E+03   -0.83502E-05   -0.11012E-04 14737   0.181E-02    0.578E-02
RMM:   6    -0.672614926243E+03   -0.30422E-04   -0.58670E-05 13804   0.122E-02    0.502E-02
RMM:   7    -0.672614955358E+03   -0.29115E-04   -0.29287E-05 13358   0.957E-03    0.273E-02
RMM:   8    -0.672614978303E+03   -0.22945E-04   -0.99020E-06 12092   0.561E-03
  52 F= -.67261498E+03 E0= -.67224027E+03  d E =-.111220E-01  mag=    86.3756
       N       E                     dE             d eps       ncg     rms          rms(c)
DAV:   1    -0.672619175449E+03   -0.42201E-02   -0.64085E-02 27152   0.306E-01    0.143E-01
RMM:   2    -0.672619427853E+03   -0.25240E-03   -0.14349E-03 22790   0.615E-02    0.102E-01
RMM:   3    -0.672619518196E+03   -0.90343E-04   -0.23334E-04 16945   0.249E-02    0.768E-02
RMM:   4    -0.672619515572E+03    0.26245E-05   -0.94320E-05 14262   0.183E-02    0.661E-02
RMM:   5    -0.672619529403E+03   -0.13831E-04   -0.35584E-05 13282   0.106E-02    0.330E-02
RMM:   6    -0.672619551436E+03   -0.22033E-04   -0.19806E-05 13021   0.712E-03    0.281E-02
RMM:   7    -0.672619568271E+03   -0.16835E-04   -0.89328E-06 12106   0.555E-03    0.152E-02
RMM:   8    -0.672619580994E+03   -0.12724E-04   -0.25482E-06 10464   0.321E-03
  53 F= -.67261958E+03 E0= -.67224477E+03  d E =-.460269E-02  mag=    86.3769
       N       E                     dE             d eps       ncg     rms          rms(c)
DAV:   1    -0.672621879902E+03   -0.23116E-02   -0.57597E-01 25376   0.918E-01    0.429E-01
RMM:   2    -0.672624126056E+03   -0.22462E-02   -0.12854E-02 24214   0.183E-01    0.302E-01
RMM:   3    -0.672624736197E+03   -0.61014E-03   -0.20536E-03 23537   0.737E-02    0.217E-01
RMM:   4    -0.672624645684E+03    0.90513E-04   -0.74980E-04 21327   0.476E-02    0.184E-01
RMM:   5    -0.672624560976E+03    0.84708E-04   -0.30357E-04 18590   0.288E-02    0.914E-02
RMM:   6    -0.672624553465E+03    0.75111E-05   -0.17136E-04 15855   0.199E-02    0.740E-02
RMM:   7    -0.672624540013E+03    0.13452E-04   -0.73177E-05 14216   0.152E-02    0.417E-02
RMM:   8    -0.672624547374E+03   -0.73612E-05   -0.22589E-05 13062   0.821E-03
  54 F= -.67262455E+03 E0= -.67224942E+03  d E =-.956907E-02  mag=    86.3787
       N       E                     dE             d eps       ncg     rms          rms(c)
DAV:   1    -0.672627271769E+03   -0.27318E-02   -0.13559E-01 27520   0.453E-01    0.188E-01
RMM:   2    -0.672627817429E+03   -0.54566E-03   -0.28912E-03 23981   0.879E-02    0.128E-01
RMM:   3    -0.672628014278E+03   -0.19685E-03   -0.51441E-04 21105   0.372E-02    0.112E-01
RMM:   4    -0.672627985287E+03    0.28991E-04   -0.14603E-04 15592   0.219E-02    0.606E-02
RMM:   5    -0.672627999481E+03   -0.14194E-04   -0.52890E-05 14095   0.128E-02    0.416E-02
RMM:   6    -0.672628013910E+03   -0.14429E-04   -0.25970E-05 13518   0.843E-03    0.296E-02
RMM:   7    -0.672628034029E+03   -0.20119E-04   -0.16283E-05 13101   0.714E-03    0.226E-02
RMM:   8    -0.672628041987E+03   -0.79582E-05   -0.65870E-06 11771   0.478E-03
  55 F= -.67262804E+03 E0= -.67225280E+03  d E =-.349461E-02  mag=    86.3805
       N       E                     dE             d eps       ncg     rms          rms(c)
DAV:   1    -0.672628155672E+03   -0.12164E-03   -0.98861E-03 27040   0.123E-01    0.518E-02
RMM:   2    -0.672628208701E+03   -0.53029E-04   -0.22295E-04 16241   0.241E-02    0.393E-02
RMM:   3    -0.672628233885E+03   -0.25185E-04   -0.43028E-05 13931   0.123E-02    0.399E-02
RMM:   4    -0.672628233735E+03    0.14994E-06   -0.13731E-05 12195   0.718E-03    0.157E-02
RMM:   5    -0.672628248828E+03   -0.15093E-04   -0.38577E-06 10908   0.359E-03    0.136E-02
RMM:   6    -0.672628261895E+03   -0.13066E-04   -0.18820E-06  9660   0.291E-03    0.980E-03
RMM:   7    -0.672628279368E+03   -0.17473E-04   -0.89452E-07  7795   0.258E-03    0.761E-03
RMM:   8    -0.672628290081E+03   -0.10713E-04   -0.13474E-07  4857   0.222E-03
  56 F= -.67262829E+03 E0= -.67225301E+03  d E =-.374271E-02  mag=    86.3823
       N       E                     dE             d eps       ncg     rms          rms(c)
DAV:   1    -0.672631126605E+03   -0.28472E-02   -0.96716E-02 26096   0.386E-01    0.158E-01
RMM:   2    -0.672631490080E+03   -0.36347E-03   -0.21205E-03 23883   0.750E-02    0.104E-01
RMM:   3    -0.672631672788E+03   -0.18271E-03   -0.32748E-04 18408   0.296E-02    0.769E-02
RMM:   4    -0.672631683593E+03   -0.10804E-04   -0.99482E-05 14541   0.188E-02    0.614E-02
RMM:   5    -0.672631701226E+03   -0.17634E-04   -0.37432E-05 13734   0.110E-02    0.365E-02
RMM:   6    -0.672631721848E+03   -0.20621E-04   -0.18173E-05 13087   0.723E-03    0.273E-02
RMM:   7    -0.672631740377E+03   -0.18530E-04   -0.10370E-05 12441   0.589E-03    0.174E-02
RMM:   8    -0.672631750723E+03   -0.10346E-04   -0.35316E-06 11308   0.370E-03
  57 F= -.67263175E+03 E0= -.67225656E+03  d E =-.346064E-02  mag=    86.3840
       N       E                     dE             d eps       ncg     rms          rms(c)
DAV:   1    -0.672632136126E+03   -0.39575E-03   -0.30687E-02 27056   0.218E-01    0.891E-02
RMM:   2    -0.672632264211E+03   -0.12808E-03   -0.68208E-04 21702   0.425E-02    0.577E-02
RMM:   3    -0.672632338212E+03   -0.74001E-04   -0.10373E-04 14557   0.168E-02    0.425E-02
RMM:   4    -0.672632348743E+03   -0.10531E-04   -0.35392E-05 13641   0.117E-02    0.344E-02
RMM:   5    -0.672632368332E+03   -0.19589E-04   -0.11757E-05 12370   0.612E-03    0.201E-02
RMM:   6    -0.672632388652E+03   -0.20321E-04   -0.61726E-06 11879   0.445E-03    0.151E-02
RMM:   7    -0.672632406438E+03   -0.17785E-04   -0.35511E-06 11244   0.364E-03    0.107E-02
RMM:   8    -0.672632416192E+03   -0.97537E-05   -0.79091E-07  7548   0.252E-03
  58 F= -.67263242E+03 E0= -.67225727E+03  d E =-.412611E-02  mag=    86.3855
       N       E                     dE             d eps       ncg     rms          rms(c)
DAV:   1    -0.672634890090E+03   -0.24837E-02   -0.10400E-01 26960   0.392E-01    0.194E-01
RMM:   2    -0.672635334669E+03   -0.44458E-03   -0.23722E-03 23945   0.818E-02    0.124E-01
RMM:   3    -0.672635548170E+03   -0.21350E-03   -0.37002E-04 19419   0.322E-02    0.842E-02
RMM:   4    -0.672635554318E+03   -0.61486E-05   -0.12376E-04 15178   0.208E-02    0.706E-02
RMM:   5    -0.672635563374E+03   -0.90562E-05   -0.53547E-05 13941   0.134E-02    0.413E-02
RMM:   6    -0.672635577862E+03   -0.14488E-04   -0.24343E-05 13515   0.802E-03    0.270E-02
RMM:   7    -0.672635591155E+03   -0.13293E-04   -0.12687E-05 12456   0.653E-03    0.196E-02
RMM:   8    -0.672635599408E+03   -0.82534E-05   -0.40135E-06 11229   0.398E-03
  59 F= -.67263560E+03 E0= -.67226068E+03  d E =-.318322E-02  mag=    86.3869
       N       E                     dE             d eps       ncg     rms          rms(c)
DAV:   1    -0.672636100641E+03   -0.50949E-03   -0.23082E-01 26784   0.585E-01    0.289E-01
RMM:   2    -0.672637090657E+03   -0.99002E-03   -0.52709E-03 24200   0.122E-01    0.187E-01
RMM:   3    -0.672637518631E+03   -0.42797E-03   -0.83037E-04 22539   0.485E-02    0.129E-01
RMM:   4    -0.672637512209E+03    0.64224E-05   -0.27133E-04 18225   0.299E-02    0.101E-01
RMM:   5    -0.672637512321E+03   -0.11176E-06   -0.11316E-04 15026   0.191E-02    0.625E-02
[...]
RMM:   8    -0.672715361213E+03   -0.96690E-05   -0.23391E-06 10575   0.322E-03
 119 F= -.67271536E+03 E0= -.67234544E+03  d E =-.140829E-02  mag=    86.4499
       N       E                     dE             d eps       ncg     rms          rms(c)
DAV:   1    -0.672713561192E+03    0.17904E-02   -0.34402E-01 25552   0.637E-01    0.399E-01
RMM:   2    -0.672715477596E+03   -0.19164E-02   -0.61005E-03 24209   0.127E-01    0.235E-01
RMM:   3    -0.672716083122E+03   -0.60553E-03   -0.92441E-04 22703   0.540E-02    0.167E-01
RMM:   4    -0.672716035406E+03    0.47716E-04   -0.34482E-04 18621   0.333E-02    0.116E-01
RMM:   5    -0.672716032970E+03    0.24363E-05   -0.13110E-04 15122   0.193E-02    0.752E-02
RMM:   6    -0.672716028552E+03    0.44182E-05   -0.66259E-05 14317   0.139E-02    0.467E-02
RMM:   7    -0.672716039945E+03   -0.11394E-04   -0.30709E-05 13704   0.966E-03    0.301E-02
RMM:   8    -0.672716048146E+03   -0.82003E-05   -0.93768E-06 12280   0.570E-03
 120 F= -.67271605E+03 E0= -.67234614E+03  d E =-.209522E-02  mag=    86.4508
       N       E                     dE             d eps       ncg     rms          rms(c)
DAV:   1    -0.672715958089E+03    0.81857E-04   -0.30071E-02 27632   0.189E-01    0.118E-01
RMM:   2    -0.672716137543E+03   -0.17945E-03   -0.53477E-04 19895   0.376E-02    0.724E-02
RMM:   3    -0.672716215789E+03   -0.78246E-04   -0.83062E-05 14382   0.164E-02    0.650E-02
RMM:   4    -0.672716207460E+03    0.83297E-05   -0.31870E-05 13664   0.111E-02    0.326E-02
RMM:   5    -0.672716226163E+03   -0.18704E-04   -0.11638E-05 12309   0.594E-03    0.241E-02
RMM:   6    -0.672716242008E+03   -0.15845E-04   -0.66410E-06 11586   0.485E-03    0.123E-02
RMM:   7    -0.672716257089E+03   -0.15081E-04   -0.29488E-06 10656   0.332E-03    0.927E-03
RMM:   8    -0.672716266567E+03   -0.94781E-05   -0.28176E-07  5879   0.227E-03
 121 F= -.67271627E+03 E0= -.67234636E+03  d E =-.231364E-02  mag=    86.4516
       N       E                     dE             d eps       ncg     rms          rms(c)
DAV:   1    -0.672716653285E+03   -0.39620E-03   -0.10724E-01 26848   0.382E-01    0.207E-01
RMM:   2    -0.672717180384E+03   -0.52710E-03   -0.20218E-03 23961   0.761E-02    0.121E-01
RMM:   3    -0.672717356860E+03   -0.17648E-03   -0.32210E-04 18080   0.310E-02    0.824E-02
RMM:   4    -0.672717346760E+03    0.10099E-04   -0.10287E-04 14535   0.195E-02    0.603E-02
RMM:   5    -0.672717349024E+03   -0.22631E-05   -0.39650E-05 13788   0.112E-02    0.332E-02
RMM:   6    -0.672717353935E+03   -0.49118E-05   -0.19578E-05 13016   0.735E-03    0.261E-02
RMM:   7    -0.672717361201E+03   -0.72652E-05   -0.88167E-06 12069   0.559E-03    0.171E-02
RMM:   8    -0.672717366832E+03   -0.56317E-05   -0.26771E-06 10815   0.339E-03
 122 F= -.67271737E+03 E0= -.67234736E+03  d E =-.110027E-02  mag=    86.4524
       N       E                     dE             d eps       ncg     rms          rms(c)
DAV:   1    -0.672717373753E+03   -0.12552E-04   -0.16655E-04 22528   0.158E-02    0.112E-02
RMM:   2    -0.672717385679E+03   -0.11926E-04   -0.78710E-06 12406   0.522E-03    0.134E-02
RMM:   3    -0.672717390256E+03   -0.45775E-05   -0.20330E-06  9531   0.311E-03    0.824E-03
RMM:   4    -0.672717395653E+03   -0.53970E-05   -0.23643E-07  4919   0.211E-03    0.377E-03
RMM:   5    -0.672717403824E+03   -0.81705E-05   -0.86851E-09  3558   0.192E-03    0.339E-03
RMM:   6    -0.672717417708E+03   -0.13884E-04   -0.13320E-08  3715   0.189E-03    0.317E-03
RMM:   7    -0.672717431081E+03   -0.13373E-04   -0.40119E-08  3921   0.199E-03    0.270E-03
RMM:   8    -0.672717443721E+03   -0.12641E-04   -0.31094E-08  3986   0.200E-03
 123 F= -.67271744E+03 E0= -.67234744E+03  d E =-.117715E-02  mag=    86.4533
       N       E                     dE             d eps       ncg     rms          rms(c)
DAV:   1    -0.672717815328E+03   -0.38425E-03   -0.18116E-02 26608   0.170E-01    0.787E-02
RMM:   2    -0.672717900994E+03   -0.85666E-04   -0.41630E-04 20021   0.351E-02    0.484E-02
RMM:   3    -0.672717936957E+03   -0.35963E-04   -0.63448E-05 14106   0.145E-02    0.358E-02
RMM:   4    -0.672717940293E+03   -0.33360E-05   -0.21654E-05 13628   0.944E-03    0.255E-02
RMM:   5    -0.672717952865E+03   -0.12572E-04   -0.71423E-06 11917   0.505E-03    0.149E-02
RMM:   6    -0.672717966233E+03   -0.13368E-04   -0.37348E-06 11287   0.366E-03    0.120E-02
RMM:   7    -0.672717977094E+03   -0.10861E-04   -0.19018E-06 10115   0.306E-03    0.766E-03
RMM:   8    -0.672717984705E+03   -0.76108E-05   -0.83737E-08  5001   0.218E-03
 124 F= -.67271798E+03 E0= -.67234794E+03  d E =-.540984E-03  mag=    86.4540
       N       E                     dE             d eps       ncg     rms          rms(c)
DAV:   1    -0.672718018437E+03   -0.41342E-04   -0.40579E-03 26256   0.808E-02    0.376E-02
RMM:   2    -0.672718044951E+03   -0.26514E-04   -0.10011E-04 14220   0.172E-02    0.246E-02
RMM:   3    -0.672718057991E+03   -0.13040E-04   -0.15964E-05 13689   0.818E-03    0.224E-02
RMM:   4    -0.672718060738E+03   -0.27474E-05   -0.53603E-06 11445   0.465E-03    0.113E-02
RMM:   5    -0.672718073004E+03   -0.12266E-04   -0.12314E-06  8579   0.275E-03    0.710E-03
RMM:   6    -0.672718083909E+03   -0.10905E-04   -0.22124E-07  5137   0.226E-03    0.485E-03
RMM:   7    -0.672718093165E+03   -0.92564E-05   -0.12979E-07  4560   0.208E-03    0.355E-03
RMM:   8    -0.672718101919E+03   -0.87535E-05   -0.32051E-08  3858   0.204E-03
 125 F= -.67271810E+03 E0= -.67234803E+03  d E =-.658197E-03  mag=    86.4548
       N       E                     dE             d eps       ncg     rms          rms(c)
DAV:   1    -0.672718401513E+03   -0.30835E-03   -0.17124E-02 26432   0.167E-01    0.798E-02
RMM:   2    -0.672718484151E+03   -0.82638E-04   -0.43958E-04 20222   0.348E-02    0.513E-02
RMM:   3    -0.672718518595E+03   -0.34444E-04   -0.65518E-05 14253   0.148E-02    0.403E-02
RMM:   4    -0.672718520237E+03   -0.16419E-05   -0.22227E-05 13861   0.964E-03    0.259E-02
RMM:   5    -0.672718530438E+03   -0.10201E-04   -0.78157E-06 12316   0.518E-03    0.167E-02
RMM:   6    -0.672718542387E+03   -0.11949E-04   -0.42006E-06 11738   0.383E-03    0.113E-02
RMM:   7    -0.672718553173E+03   -0.10787E-04   -0.17202E-06 10036   0.291E-03    0.813E-03
RMM:   8    -0.672718559493E+03   -0.63200E-05   -0.91292E-08  5361   0.224E-03
 126 F= -.67271856E+03 E0= -.67234849E+03  d E =-.457575E-03  mag=    86.4555
       N       E                     dE             d eps       ncg     rms          rms(c)
DAV:   1    -0.672718586338E+03   -0.33164E-04   -0.42205E-03 26768   0.830E-02    0.399E-02
RMM:   2    -0.672718613713E+03   -0.27375E-04   -0.11458E-04 14453   0.176E-02    0.276E-02
RMM:   3    -0.672718627158E+03   -0.13445E-04   -0.17168E-05 13935   0.838E-03    0.251E-02
RMM:   4    -0.672718629730E+03   -0.25723E-05   -0.54566E-06 11835   0.477E-03    0.131E-02
RMM:   5    -0.672718640475E+03   -0.10745E-04   -0.15108E-06  9499   0.284E-03    0.857E-03
RMM:   6    -0.672718651156E+03   -0.10681E-04   -0.20580E-07  5611   0.236E-03    0.552E-03
RMM:   7    -0.672718661083E+03   -0.99270E-05   -0.13679E-07  4797   0.229E-03    0.411E-03
RMM:   8    -0.672718667668E+03   -0.65854E-05   -0.66314E-08  4198   0.218E-03
 127 F= -.67271867E+03 E0= -.67234860E+03  d E =-.565750E-03  mag=    86.4561
       N       E                     dE             d eps       ncg     rms          rms(c)
DAV:   1    -0.672718915557E+03   -0.25447E-03   -0.17759E-02 26624   0.174E-01    0.785E-02
RMM:   2    -0.672719004110E+03   -0.88553E-04   -0.50575E-04 20531   0.371E-02    0.526E-02
RMM:   3    -0.672719043636E+03   -0.39525E-04   -0.79041E-05 14389   0.160E-02    0.484E-02
RMM:   4    -0.672719044698E+03   -0.10626E-05   -0.25776E-05 14073   0.105E-02    0.253E-02
RMM:   5    -0.672719058867E+03   -0.14168E-04   -0.93218E-06 12915   0.537E-03    0.194E-02
RMM:   6    -0.672719073476E+03   -0.14610E-04   -0.48360E-06 12161   0.417E-03    0.124E-02
RMM:   7    -0.672719086065E+03   -0.12589E-04   -0.24216E-06 11063   0.320E-03    0.110E-02
RMM:   8    -0.672719092697E+03   -0.66319E-05   -0.44606E-07  7088   0.247E-03
 128 F= -.67271909E+03 E0= -.67234901E+03  d E =-.425029E-03  mag=    86.4566
       N       E                     dE             d eps       ncg     rms          rms(c)
DAV:   1    -0.672719107154E+03   -0.21089E-04   -0.24819E-03 26960   0.653E-02    0.296E-02
RMM:   2    -0.672719128160E+03   -0.21006E-04   -0.76648E-05 14233   0.145E-02    0.206E-02
RMM:   3    -0.672719139202E+03   -0.11042E-04   -0.11593E-05 13824   0.685E-03    0.203E-02
RMM:   4    -0.672719142527E+03   -0.33258E-05   -0.35248E-06 11284   0.395E-03    0.954E-03
RMM:   5    -0.672719152676E+03   -0.10149E-04   -0.52988E-07  6684   0.246E-03    0.703E-03
RMM:   6    -0.672719163571E+03   -0.10895E-04   -0.10690E-07  4746   0.221E-03    0.459E-03
RMM:   7    -0.672719172898E+03   -0.93272E-05   -0.54547E-08  4226   0.220E-03    0.339E-03
RMM:   8    -0.672719179139E+03   -0.62417E-05   -0.34284E-08  3934   0.217E-03
 129 F= -.67271918E+03 E0= -.67234910E+03  d E =-.511471E-03  mag=    86.4571
       N       E                     dE             d eps       ncg     rms          rms(c)
DAV:   1    -0.672719407900E+03   -0.23500E-03   -0.16948E-02 25760   0.170E-01    0.756E-02
RMM:   2    -0.672719494731E+03   -0.86831E-04   -0.51980E-04 19626   0.364E-02    0.542E-02
RMM:   3    -0.672719530829E+03   -0.36098E-04   -0.84970E-05 14474   0.165E-02    0.536E-02
RMM:   4    -0.672719527422E+03    0.34068E-05   -0.26452E-05 14120   0.107E-02    0.248E-02
RMM:   5    -0.672719538936E+03   -0.11514E-04   -0.97273E-06 13146   0.544E-03    0.206E-02
RMM:   6    -0.672719548831E+03   -0.98944E-05   -0.50179E-06 12297   0.431E-03    0.123E-02
RMM:   7    -0.672719557607E+03   -0.87759E-05   -0.26304E-06 11151   0.330E-03    0.118E-02
RMM:   8    -0.672719561681E+03   -0.40745E-05   -0.59775E-07  7650   0.252E-03
 130 F= -.67271956E+03 E0= -.67234945E+03  d E =-.382542E-03  mag=    86.4576
       N       E                     dE             d eps       ncg     rms          rms(c)
DAV:   1    -0.672719579221E+03   -0.21614E-04   -0.40357E-03 27056   0.833E-02    0.373E-02
RMM:   2    -0.672719606497E+03   -0.27277E-04   -0.13149E-04 14944   0.182E-02    0.280E-02
RMM:   3    -0.672719619034E+03   -0.12537E-04   -0.20776E-05 14078   0.881E-03    0.290E-02
RMM:   4    -0.672719619518E+03   -0.48429E-06   -0.62298E-06 12795   0.518E-03    0.125E-02
RMM:   5    -0.672719626592E+03   -0.70734E-05   -0.20339E-06 10369   0.295E-03    0.109E-02
RMM:   6    -0.672719634071E+03   -0.74795E-05   -0.55503E-07  7118   0.248E-03    0.595E-03
RMM:   7    -0.672719641078E+03   -0.70073E-05   -0.12199E-07  5358   0.229E-03    0.462E-03
RMM:   8    -0.672719645475E+03   -0.43968E-05   -0.18115E-08  4132   0.214E-03
 131 F= -.67271965E+03 E0= -.67234952E+03  d E =-.466336E-03  mag=    86.4580
       N       E                     dE             d eps       ncg     rms          rms(c)
DAV:   1    -0.672719870482E+03   -0.22940E-03   -0.13935E-02 26176   0.154E-01    0.688E-02
RMM:   2    -0.672719943472E+03   -0.72991E-04   -0.43170E-04 18394   0.326E-02    0.553E-02
RMM:   3    -0.672719970238E+03   -0.26766E-04   -0.75587E-05 14437   0.156E-02    0.541E-02
RMM:   4    -0.672719964804E+03    0.54343E-05   -0.22984E-05 14112   0.996E-03    0.234E-02
RMM:   5    -0.672719972886E+03   -0.80820E-05   -0.81730E-06 12771   0.499E-03    0.198E-02
RMM:   6    -0.672719981721E+03   -0.88345E-05   -0.41384E-06 12191   0.397E-03    0.120E-02
RMM:   7    -0.672719989409E+03   -0.76881E-05   -0.23283E-06 10870   0.313E-03    0.106E-02
RMM:   8    -0.672719994143E+03   -0.47339E-05   -0.30511E-07  6474   0.239E-03
 132 F= -.67271999E+03 E0= -.67234986E+03  d E =-.348668E-03  mag=    86.4583
       N       E                     dE             d eps       ncg     rms          rms(c)
DAV:   1    -0.672720022650E+03   -0.33242E-04   -0.57557E-03 27168   0.990E-02    0.444E-02
RMM:   2    -0.672720057015E+03   -0.34365E-04   -0.18332E-04 15667   0.212E-02    0.359E-02
RMM:   3    -0.672720071064E+03   -0.14049E-04   -0.31331E-05 14252   0.105E-02    0.358E-02
RMM:   4    -0.672720069910E+03    0.11539E-05   -0.93471E-06 13739   0.635E-03    0.156E-02
RMM:   5    -0.672720076051E+03   -0.61402E-05   -0.31437E-06 11231   0.336E-03    0.131E-02
RMM:   6    -0.672720083393E+03   -0.73425E-05   -0.13600E-06  9566   0.275E-03    0.792E-03
RMM:   7    -0.672720089923E+03   -0.65295E-05   -0.35052E-07  6485   0.242E-03    0.484E-03
RMM:   8    -0.672720094447E+03   -0.45244E-05   -0.45443E-08  4458   0.207E-03
 133 F= -.67272009E+03 E0= -.67234996E+03  d E =-.448972E-03  mag=    86.4586
       N       E                     dE             d eps       ncg     rms          rms(c)
DAV:   1    -0.672720236775E+03   -0.14685E-03   -0.15449E-02 26192   0.163E-01    0.707E-02
RMM:   2    -0.672720307822E+03   -0.71048E-04   -0.46991E-04 19316   0.347E-02    0.561E-02
RMM:   3    -0.672720335792E+03   -0.27969E-04   -0.82711E-05 14495   0.164E-02    0.554E-02
RMM:   4    -0.672720328848E+03    0.69439E-05   -0.25730E-05 14221   0.106E-02    0.234E-02
RMM:   5    -0.672720335829E+03   -0.69812E-05   -0.89066E-06 13007   0.517E-03    0.195E-02
RMM:   6    -0.672720342816E+03   -0.69868E-05   -0.44978E-06 12329   0.409E-03    0.120E-02
RMM:   7    -0.672720350273E+03   -0.74571E-05   -0.25470E-06 11077   0.326E-03    0.111E-02
RMM:   8    -0.672720354647E+03   -0.43744E-05   -0.56991E-07  7432   0.251E-03
 134 F= -.67272035E+03 E0= -.67235020E+03  d E =-.260200E-03  mag=    86.4589
       N       E                     dE             d eps       ncg     rms          rms(c)
DAV:   1    -0.672720361121E+03   -0.10848E-04   -0.10127E-03 26176   0.421E-02    0.184E-02
RMM:   2    -0.672720370661E+03   -0.95395E-05   -0.34938E-05 14083   0.955E-03    0.153E-02
RMM:   3    -0.672720375307E+03   -0.46464E-05   -0.58161E-06 13452   0.477E-03    0.151E-02
RMM:   4    -0.672720376756E+03   -0.14491E-05   -0.14201E-06  9185   0.289E-03    0.604E-03
RMM:   5    -0.672720381197E+03   -0.44405E-05   -0.34791E-08  4311   0.201E-03    0.478E-03
RMM:   6    -0.672720386878E+03   -0.56811E-05   -0.16829E-08  4061   0.183E-03    0.348E-03
RMM:   7    -0.672720391735E+03   -0.48568E-05   -0.46547E-09  4050   0.189E-03    0.217E-03
RMM:   8    -0.672720395215E+03   -0.34804E-05   -0.70166E-10  4133   0.195E-03
 135 F= -.67272040E+03 E0= -.67235023E+03  d E =-.300768E-03  mag=    86.4591
       N       E                     dE             d eps       ncg     rms          rms(c)
DAV:   1    -0.672720492297E+03   -0.10056E-03   -0.12676E-02 26032   0.148E-01    0.626E-02
RMM:   2    -0.672720543087E+03   -0.50791E-04   -0.36961E-04 18179   0.307E-02    0.514E-02
RMM:   3    -0.672720565290E+03   -0.22203E-04   -0.64425E-05 14409   0.148E-02    0.488E-02
RMM:   4    -0.672720559130E+03    0.61598E-05   -0.19431E-05 14071   0.909E-03    0.209E-02
RMM:   5    -0.672720561991E+03   -0.28601E-05   -0.66262E-06 12380   0.452E-03    0.167E-02
RMM:   6    -0.672720565050E+03   -0.30594E-05   -0.34326E-06 11791   0.357E-03    0.101E-02
RMM:   7    -0.672720569665E+03   -0.46147E-05   -0.17674E-06 10140   0.294E-03    0.920E-03
RMM:   8    -0.672720572653E+03   -0.29886E-05   -0.21688E-07  6026   0.232E-03
 136 F= -.67272057E+03 E0= -.67235035E+03  d E =-.177438E-03  mag=    86.4592
       N       E                     dE             d eps       ncg     rms          rms(c)
DAV:   1    -0.672720576768E+03   -0.71032E-05   -0.14533E-03 26064   0.504E-02    0.215E-02
RMM:   2    -0.672720585525E+03   -0.87572E-05   -0.47285E-05 14084   0.111E-02    0.196E-02
RMM:   3    -0.672720589404E+03   -0.38790E-05   -0.80655E-06 13622   0.563E-03    0.178E-02
RMM:   4    -0.672720589818E+03   -0.41351E-06   -0.22945E-06 10368   0.336E-03    0.798E-03
RMM:   5    -0.672720592547E+03   -0.27297E-05   -0.77035E-08  4699   0.212E-03    0.602E-03
RMM:   6    -0.672720596216E+03   -0.36685E-05   -0.19113E-08  4108   0.196E-03    0.430E-03
RMM:   7    -0.672720599770E+03   -0.35539E-05   -0.92559E-09  3952   0.201E-03    0.274E-03
RMM:   8    -0.672720602570E+03   -0.28005E-05   -0.13631E-08  4060   0.210E-03
 137 F= -.67272060E+03 E0= -.67235036E+03  d E =-.207355E-03  mag=    86.4594
       N       E                     dE             d eps       ncg     rms          rms(c)
DAV:   1    -0.672720704174E+03   -0.10440E-03   -0.14189E-02 26128   0.158E-01    0.607E-02
RMM:   2    -0.672720751645E+03   -0.47471E-04   -0.38969E-04 18716   0.323E-02    0.502E-02
RMM:   3    -0.672720776036E+03   -0.24391E-04   -0.66739E-05 14391   0.150E-02    0.466E-02
RMM:   4    -0.672720769819E+03    0.62175E-05   -0.19855E-05 14090   0.915E-03    0.210E-02
RMM:   5    -0.672720770423E+03   -0.60443E-06   -0.65819E-06 12339   0.451E-03    0.162E-02
RMM:   6    -0.672720770665E+03   -0.24121E-06   -0.34372E-06 11770   0.355E-03    0.106E-02
RMM:   7    -0.672720772662E+03   -0.19977E-05   -0.18892E-06 10543   0.297E-03    0.920E-03
RMM:   8    -0.672720774028E+03   -0.13663E-05   -0.24472E-07  6263   0.232E-03
 138 F= -.67272077E+03 E0= -.67235045E+03  d E =-.171458E-03  mag=    86.4596
       N       E                     dE             d eps       ncg     rms          rms(c)
DAV:   1    -0.672720773511E+03   -0.84843E-06   -0.81577E-04 25616   0.382E-02    0.149E-02
RMM:   2    -0.672720778211E+03   -0.47004E-05   -0.25707E-05 14011   0.835E-03    0.140E-02
RMM:   3    -0.672720780277E+03   -0.20657E-05   -0.42012E-06 12840   0.421E-03    0.127E-02
RMM:   4    -0.672720780386E+03   -0.10896E-06   -0.84211E-07  8000   0.254E-03    0.506E-03
RMM:   5    -0.672720781826E+03   -0.14408E-05   -0.56604E-09  4053   0.192E-03    0.416E-03
RMM:   6    -0.672720783751E+03   -0.19241E-05   -0.88562E-09  4050   0.188E-03    0.293E-03
RMM:   7    -0.672720785843E+03   -0.20927E-05   -0.91143E-09  4040   0.189E-03    0.184E-03
RMM:   8    -0.672720787536E+03   -0.16931E-05   -0.24224E-09  4022   0.195E-03
 139 F= -.67272079E+03 E0= -.67235044E+03  d E =-.184966E-03  mag=    86.4597
       N       E                     dE             d eps       ncg     rms          rms(c)
DAV:   1    -0.672720815159E+03   -0.29316E-04   -0.10329E-02 26560   0.134E-01    0.481E-02
RMM:   2    -0.672720847183E+03   -0.32024E-04   -0.25916E-04 16392   0.262E-02    0.401E-02
RMM:   3    -0.672720863726E+03   -0.16543E-04   -0.45013E-05 14192   0.128E-02    0.393E-02
RMM:   4    -0.672720859140E+03    0.45858E-05   -0.12738E-05 13566   0.725E-03    0.152E-02
RMM:   5    -0.672720858634E+03    0.50664E-06   -0.38710E-06 11447   0.365E-03    0.124E-02
RMM:   6    -0.672720857841E+03    0.79256E-06   -0.17537E-06  9615   0.287E-03    0.778E-03
RMM:   7    -0.672720858540E+03   -0.69942E-06   -0.10408E-06  8024   0.265E-03    0.695E-03
RMM:   8    -0.672720859025E+03   -0.48429E-06   -0.12262E-07  5075   0.223E-03
 140 F= -.67272086E+03 E0= -.67235047E+03  d E =-.714883E-04  mag=    86.4598
       N       E                     dE             d eps       ncg     rms          rms(c)
DAV:   1    -0.672720861712E+03   -0.31721E-05   -0.20801E-04 24016   0.190E-02    0.705E-03
RMM:   2    -0.672720864045E+03   -0.23330E-05   -0.63378E-06 13061   0.439E-03    0.794E-03
RMM:   3    -0.672720865053E+03   -0.10077E-05   -0.51167E-07  6577   0.231E-03    0.469E-03
RMM:   4    -0.672720866056E+03   -0.10030E-05   -0.15493E-08  3965   0.177E-03    0.254E-03
RMM:   5    -0.672720867876E+03   -0.18198E-05   -0.82577E-10  3876   0.177E-03    0.234E-03
RMM:   6    -0.672720869640E+03   -0.17639E-05   -0.84476E-11  3945   0.179E-03    0.151E-03
RMM:   7    -0.672720872102E+03   -0.24624E-05   -0.11234E-09  4018   0.183E-03    0.911E-04
RMM:   8    -0.672720873278E+03   -0.11753E-05   -0.80029E-10  3932   0.183E-03
 141 F= -.67272087E+03 E0= -.67235049E+03  d E =-.857413E-04  mag=    86.4599
