       N       E                     dE             d eps       ncg     rms          rms(c)
DAV:   1     0.781525698884E+04    0.78153E+04   -0.31241E+05 13648   0.127E+03
DAV:   2     0.585073479441E+03   -0.72302E+04   -0.65404E+04 14480   0.374E+02
DAV:   3    -0.808480024386E+03   -0.13936E+04   -0.13376E+04 16704   0.165E+02
DAV:   4    -0.885959520907E+03   -0.77479E+02   -0.75661E+02 18576   0.435E+01
DAV:   5    -0.887620027408E+03   -0.16605E+01   -0.16395E+01 17456   0.592E+00    0.190E+02
RMM:   6    -0.745900920036E+03    0.14172E+03   -0.67257E+02 13494   0.409E+01    0.194E+02
RMM:   7    -0.105894344584E+04   -0.31304E+03   -0.21801E+02 14203   0.229E+01    0.353E+02
RMM:   8    -0.894154029621E+03    0.16479E+03   -0.55125E+01 16220   0.857E+00    0.293E+02
RMM:   9    -0.110108325322E+04   -0.20693E+03   -0.16361E+02 16914   0.174E+01    0.337E+02
RMM:  10    -0.808688138763E+03    0.29240E+03   -0.14167E+02 17110   0.159E+01    0.124E+02
RMM:  11    -0.652874641412E+03    0.15581E+03   -0.71303E+01 14381   0.141E+01    0.706E+01
RMM:  12    -0.671800621051E+03   -0.18926E+02   -0.24621E+01 13600   0.807E+00    0.738E+01
RMM:  13    -0.663146133355E+03    0.86545E+01   -0.25297E+01 13857   0.834E+00    0.347E+01
RMM:  14    -0.669344152197E+03   -0.61980E+01   -0.79976E+00 14090   0.406E+00    0.357E+01
RMM:  15    -0.675570857279E+03   -0.62267E+01   -0.48338E+00 13635   0.356E+00    0.230E+01
RMM:  16    -0.687505090290E+03   -0.11934E+02   -0.10398E+01 15379   0.422E+00    0.196E+01
RMM:  17    -0.704811350359E+03   -0.17306E+02   -0.90882E+00 15000   0.402E+00    0.187E+01
RMM:  18    -0.711712444260E+03   -0.69011E+01   -0.49040E+00 14522   0.300E+00    0.170E+01
RMM:  19    -0.713799674953E+03   -0.20872E+01   -0.17751E+00 13685   0.191E+00    0.126E+01
RMM:  20    -0.717304747704E+03   -0.35051E+01   -0.11655E+00 13831   0.165E+00    0.105E+01
RMM:  21    -0.720141322968E+03   -0.28366E+01   -0.95409E-01 14063   0.138E+00    0.973E+00
RMM:  22    -0.723952040884E+03   -0.38107E+01   -0.11584E+00 15050   0.141E+00    0.781E+00
RMM:  23    -0.730596731359E+03   -0.66447E+01   -0.25112E+00 17028   0.187E+00    0.756E+00
RMM:  24    -0.733693102896E+03   -0.30964E+01   -0.93054E-01 14893   0.117E+00    0.673E+00
RMM:  25    -0.734803835136E+03   -0.11107E+01   -0.32672E-01 14085   0.764E-01    0.662E+00
RMM:  26    -0.735336880807E+03   -0.53305E+00   -0.17314E-01 14072   0.519E-01    0.600E+00
RMM:  27    -0.736483621149E+03   -0.11467E+01   -0.14728E-01 14382   0.454E-01    0.534E+00
RMM:  28    -0.737789921019E+03   -0.13063E+01   -0.20746E-01 15341   0.526E-01    0.436E+00
RMM:  29    -0.738533913411E+03   -0.74399E+00   -0.95963E-02 14241   0.386E-01    0.355E+00
RMM:  30    -0.739046277822E+03   -0.51236E+00   -0.84024E-02 14737   0.356E-01    0.275E+00
RMM:  31    -0.739515708905E+03   -0.46943E+00   -0.73114E-02 14730   0.319E-01    0.199E+00
RMM:  32    -0.739881930164E+03   -0.36622E+00   -0.64185E-02 15186   0.287E-01    0.152E+00
RMM:  33    -0.739996473417E+03   -0.11454E+00   -0.37741E-02 14629   0.223E-01    0.129E+00
RMM:  34    -0.740081743211E+03   -0.85270E-01   -0.25631E-02 14581   0.175E-01    0.137E+00
RMM:  35    -0.740220401127E+03   -0.13866E+00   -0.94840E-03 14024   0.124E-01    0.141E+00
RMM:  36    -0.740329075230E+03   -0.10867E+00   -0.39179E-03 14422   0.850E-02    0.134E+00
RMM:  37    -0.740412645732E+03   -0.83571E-01   -0.17679E-03 13548   0.643E-02    0.122E+00
RMM:  38    -0.740501688852E+03   -0.89043E-01   -0.15408E-03 13644   0.565E-02    0.100E+00
RMM:  39    -0.740572798153E+03   -0.71109E-01   -0.69472E-04 12137   0.403E-02    0.821E-01
RMM:  40    -0.740628633898E+03   -0.55836E-01   -0.50479E-04 11430   0.339E-02    0.651E-01
RMM:  41    -0.740664631646E+03   -0.35998E-01   -0.43475E-04 11097   0.293E-02    0.491E-01
RMM:  42    -0.740679724553E+03   -0.15093E-01   -0.23610E-04  9087   0.229E-02    0.384E-01
RMM:  43    -0.740697742696E+03   -0.18018E-01   -0.35473E-04  9638   0.254E-02    0.267E-01
RMM:  44    -0.740704662155E+03   -0.69195E-02   -0.18717E-04  8481   0.210E-02    0.181E-01
RMM:  45    -0.740711599377E+03   -0.69372E-02   -0.21015E-04  8853   0.200E-02    0.116E-01
RMM:  46    -0.740713716191E+03   -0.21168E-02   -0.77119E-05  8191   0.150E-02    0.865E-02
RMM:  47    -0.740714345699E+03   -0.62951E-03   -0.31491E-05  8018   0.103E-02    0.827E-02
RMM:  48    -0.740715260678E+03   -0.91498E-03   -0.26593E-05  7835   0.771E-03    0.659E-02
RMM:  49    -0.740715610223E+03   -0.34954E-03   -0.11772E-05  7172   0.600E-03    0.622E-02
RMM:  50    -0.740715813962E+03   -0.20374E-03   -0.57613E-06  5147   0.394E-03    0.534E-02
RMM:  51    -0.740715528712E+03    0.28525E-03   -0.29705E-05  8028   0.697E-03    0.447E-02
RMM:  52    -0.740715919753E+03   -0.39104E-03   -0.80168E-06  6390   0.521E-03    0.238E-02
RMM:  53    -0.740716274957E+03   -0.35520E-03   -0.41211E-06  4477   0.350E-03    0.208E-02
RMM:  54    -0.740716363699E+03   -0.88742E-04   -0.19177E-06  3752   0.308E-03
   1 F= -.74071636E+03 E0= -.74012285E+03  d E =-.740716E+03  mag=    -0.0011
       N       E                     dE             d eps       ncg     rms          rms(c)
DAV:   1    -0.732621131885E+03    0.80951E+01   -0.16195E+03 13808   0.627E+01    0.117E+01
RMM:   2    -0.738965959439E+03   -0.63448E+01   -0.57069E+01 13440   0.129E+01    0.218E+01
RMM:   3    -0.739275742997E+03   -0.30978E+00   -0.91655E+00 14143   0.515E+00    0.159E+01
RMM:   4    -0.739230527573E+03    0.45215E-01   -0.22294E+00 14131   0.264E+00    0.169E+01
RMM:   5    -0.738149658741E+03    0.10809E+01   -0.62120E-01 13537   0.152E+00    0.114E+01
RMM:   6    -0.738360633550E+03   -0.21097E+00   -0.81783E-01 14040   0.132E+00    0.113E+01
RMM:   7    -0.737704289802E+03    0.65634E+00   -0.39891E-01 13620   0.105E+00    0.551E+00
RMM:   8    -0.737577094018E+03    0.12720E+00   -0.15303E-01 13578   0.689E-01    0.269E+00
RMM:   9    -0.737559867266E+03    0.17227E-01   -0.47265E-02 13965   0.371E-01    0.159E+00
RMM:  10    -0.737554419029E+03    0.54482E-02   -0.15392E-02 14381   0.196E-01    0.142E+00
RMM:  11    -0.737550541062E+03    0.38780E-02   -0.81537E-03 13498   0.138E-01    0.113E+00
RMM:  12    -0.737546203105E+03    0.43380E-02   -0.10254E-02 13852   0.138E-01    0.595E-01
RMM:  13    -0.737545123049E+03    0.10801E-02   -0.34994E-03 14528   0.838E-02    0.236E-01
RMM:  14    -0.737545301337E+03   -0.17829E-03   -0.76549E-04 12137   0.389E-02    0.187E-01
RMM:  15    -0.737545564325E+03   -0.26299E-03   -0.19417E-04  8584   0.220E-02    0.156E-01
RMM:  16    -0.737546125102E+03   -0.56078E-03   -0.23358E-04  8983   0.230E-02    0.103E-01
RMM:  17    -0.737546413641E+03   -0.28854E-03   -0.89443E-05  8177   0.167E-02    0.569E-02
RMM:  18    -0.737546516708E+03   -0.10307E-03   -0.32659E-05  7827   0.982E-03    0.403E-02
RMM:  19    -0.737546585254E+03   -0.68546E-04   -0.14320E-05  7152   0.614E-03
   2 F= -.73754659E+03 E0= -.73696079E+03  d E =0.316978E+01  mag=    -0.0005
       N       E                     dE             d eps       ncg     rms          rms(c)
DAV:   1    -0.741711511940E+03   -0.41650E+01   -0.59089E+02 13856   0.391E+01    0.894E+00
RMM:   2    -0.749933080705E+03   -0.82216E+01   -0.21366E+01 13442   0.789E+00    0.319E+01
RMM:   3    -0.744304526337E+03    0.56286E+01   -0.32551E+00 13985   0.335E+00    0.113E+01
RMM:   4    -0.743889294930E+03    0.41523E+00   -0.10428E+00 13443   0.184E+00    0.127E+01
RMM:   5    -0.742855139330E+03    0.10342E+01   -0.61463E-01 13926   0.128E+00    0.661E+00
RMM:   6    -0.742754455560E+03    0.10068E+00   -0.94019E-01 14855   0.116E+00    0.466E+00
RMM:   7    -0.742662492496E+03    0.91963E-01   -0.15332E-01 13497   0.678E-01    0.263E+00
RMM:   8    -0.742695744953E+03   -0.33252E-01   -0.13895E-01 13749   0.564E-01    0.378E+00
RMM:   9    -0.742605374309E+03    0.90371E-01   -0.22357E-02 13497   0.299E-01    0.846E-01
RMM:  10    -0.742600879467E+03    0.44948E-02   -0.82033E-03 14721   0.134E-01    0.630E-01
RMM:  11    -0.742600012702E+03    0.86676E-03   -0.27866E-03 12987   0.776E-02    0.372E-01
RMM:  12    -0.742600411875E+03   -0.39917E-03   -0.18136E-03 12845   0.578E-02    0.321E-01
RMM:  13    -0.742600039529E+03    0.37235E-03   -0.67565E-04 11848   0.374E-02    0.196E-01
RMM:  14    -0.742599983521E+03    0.56008E-04   -0.21941E-04  8760   0.240E-02
   3 F= -.74259998E+03 E0= -.74201044E+03  d E =-.188362E+01  mag=    -0.0003
       N       E                     dE             d eps       ncg     rms          rms(c)
DAV:   1    -0.742625908347E+03   -0.25869E-01   -0.26395E+00 13840   0.255E+00    0.502E-01
RMM:   2    -0.742651138528E+03   -0.25230E-01   -0.67758E-02 13440   0.485E-01    0.192E+00
RMM:   3    -0.742632394735E+03    0.18744E-01   -0.10484E-02 13807   0.187E-01    0.533E-01
RMM:   4    -0.742633245239E+03   -0.85050E-03   -0.32238E-03 13493   0.102E-01    0.706E-01
RMM:   5    -0.742631597830E+03    0.16474E-02   -0.13625E-03 13023   0.660E-02    0.506E-01
RMM:   6    -0.742631473459E+03    0.12437E-03   -0.97868E-04 12609   0.502E-02    0.375E-01
RMM:   7    -0.742631116939E+03    0.35652E-03   -0.70136E-04 12426   0.443E-02    0.218E-01
RMM:   8    -0.742630886367E+03    0.23057E-03   -0.27775E-04  9641   0.297E-02    0.629E-02
RMM:   9    -0.742630911062E+03   -0.24695E-04   -0.79715E-05  7631   0.164E-02
   4 F= -.74263091E+03 E0= -.74204180E+03  d E =-.191455E+01  mag=    -0.0002
       N       E                     dE             d eps       ncg     rms          rms(c)
DAV:   1    -0.735884141877E+03    0.67467E+01   -0.16567E+03 13440   0.644E+01    0.115E+01
RMM:   2    -0.745556123106E+03   -0.96720E+01   -0.50922E+01 13440   0.130E+01    0.369E+01
RMM:   3    -0.741527014709E+03    0.40291E+01   -0.95126E+00 14826   0.534E+00    0.112E+01
RMM:   4    -0.742274934149E+03   -0.74792E+00   -0.16867E+00 13744   0.249E+00    0.161E+01
RMM:   5    -0.740988885746E+03    0.12860E+01   -0.75954E-01 13452   0.169E+00    0.814E+00
RMM:   6    -0.740868312525E+03    0.12057E+00   -0.42855E-01 13455   0.116E+00    0.785E+00
RMM:   7    -0.740692674037E+03    0.17564E+00   -0.26923E-01 13540   0.869E-01    0.313E+00
RMM:   8    -0.740686411317E+03    0.62627E-02   -0.16253E-01 13829   0.620E-01    0.231E+00
RMM:   9    -0.740677926390E+03    0.84849E-02   -0.34566E-02 13616   0.354E-01    0.182E+00
RMM:  10    -0.740675615510E+03    0.23109E-02   -0.15184E-02 14430   0.168E-01    0.196E+00
RMM:  11    -0.740664915884E+03    0.10700E-01   -0.15320E-02 13697   0.166E-01    0.105E+00
RMM:  12    -0.740663566847E+03    0.13490E-02   -0.59203E-03 14324   0.118E-01    0.755E-01
RMM:  13    -0.740663995696E+03   -0.42885E-03   -0.18173E-03 14595   0.564E-02    0.709E-01
RMM:  14    -0.740664036870E+03   -0.41174E-04   -0.41542E-04 11185   0.320E-02
   5 F= -.74066404E+03 E0= -.74005253E+03  d E =0.196687E+01  mag=    -0.0002
       N       E                     dE             d eps       ncg     rms          rms(c)
DAV:   1    -0.740731527116E+03   -0.67531E-01   -0.89121E+02 13440   0.473E+01    0.765E+00
RMM:   2    -0.745766065976E+03   -0.50345E+01   -0.20967E+01 13440   0.837E+00    0.240E+01
RMM:   3    -0.743627929241E+03    0.21381E+01   -0.37799E+00 13900   0.357E+00    0.120E+01
RMM:   4    -0.742973042526E+03    0.65489E+00   -0.92057E-01 14724   0.173E+00    0.611E+00
RMM:   5    -0.743011231473E+03   -0.38189E-01   -0.24112E-01 13881   0.874E-01    0.743E+00
RMM:   6    -0.743150887574E+03   -0.13966E+00   -0.18482E-01 13591   0.712E-01    0.816E+00
RMM:   7    -0.742996230848E+03    0.15466E+00   -0.29191E-01 14939   0.841E-01    0.487E+00
RMM:   8    -0.742828173495E+03    0.16806E+00   -0.10918E-01 13600   0.535E-01    0.162E+00
RMM:   9    -0.742821493857E+03    0.66796E-02   -0.26807E-02 13805   0.276E-01    0.116E+00
RMM:  10    -0.742819305952E+03    0.21879E-02   -0.73156E-03 14838   0.136E-01    0.946E-01
RMM:  11    -0.742814950350E+03    0.43556E-02   -0.58663E-03 13442   0.118E-01    0.694E-01
RMM:  12    -0.742812004510E+03    0.29458E-02   -0.91552E-03 14157   0.131E-01    0.352E-01
RMM:  13    -0.742811427042E+03    0.57747E-03   -0.18088E-03 13530   0.737E-02    0.203E-01
RMM:  14    -0.742811455734E+03   -0.28692E-04   -0.68239E-04 11876   0.370E-02
   6 F= -.74281146E+03 E0= -.74221719E+03  d E =-.180545E+00  mag=    -0.0001
       N       E                     dE             d eps       ncg     rms          rms(c)
DAV:   1    -0.742861049051E+03   -0.49622E-01   -0.12750E+01 13888   0.566E+00    0.922E-01
RMM:   2    -0.742906573963E+03   -0.45525E-01   -0.24777E-01 13440   0.974E-01    0.216E+00
RMM:   3    -0.742898843995E+03    0.77300E-02   -0.44468E-02 13735   0.390E-01    0.161E+00
RMM:   4    -0.742886700309E+03    0.12144E-01   -0.11961E-02 14731   0.192E-01    0.637E-01
RMM:   5    -0.742887280364E+03   -0.58006E-03   -0.35182E-03 13346   0.106E-01    0.703E-01
RMM:   6    -0.742887493699E+03   -0.21333E-03   -0.38101E-03 13580   0.994E-02    0.703E-01
RMM:   7    -0.742885378291E+03    0.21154E-02   -0.24433E-03 13150   0.872E-02    0.257E-01
RMM:   8    -0.742884946357E+03    0.43193E-03   -0.63852E-04 12000   0.427E-02    0.120E-01
RMM:   9    -0.742884973142E+03   -0.26786E-04   -0.20758E-04  8836   0.237E-02
   7 F= -.74288497E+03 E0= -.74229269E+03  d E =-.254062E+00  mag=    -0.0001
       N       E                     dE             d eps       ncg     rms          rms(c)
DAV:   1    -0.742897772989E+03   -0.12827E-01   -0.96898E-01 13888   0.156E+00    0.227E-01
RMM:   2    -0.742899574047E+03   -0.18011E-02   -0.18557E-02 13436   0.267E-01    0.339E-01
RMM:   3    -0.742899673309E+03   -0.99262E-04   -0.30741E-03 13782   0.102E-01    0.170E-01
RMM:   4    -0.742901220454E+03   -0.15471E-02   -0.79845E-04 12932   0.494E-02    0.494E-01
RMM:   5    -0.742899839930E+03    0.13805E-02   -0.29895E-04  9621   0.323E-02    0.213E-01
RMM:   6    -0.742899826747E+03    0.13183E-04   -0.24071E-04  8843   0.259E-02    0.113E-01
RMM:   7    -0.742899870830E+03   -0.44083E-04   -0.11620E-04  7746   0.208E-02    0.967E-02
RMM:   8    -0.742899869374E+03    0.14556E-05   -0.44524E-05  7347   0.138E-02
   8 F= -.74289987E+03 E0= -.74230708E+03  d E =-.268958E+00  mag=    -0.0001
       N       E                     dE             d eps       ncg     rms          rms(c)
DAV:   1    -0.739489113848E+03    0.34108E+01   -0.79147E+02 13488   0.445E+01    0.922E+00
RMM:   2    -0.752054109469E+03   -0.12565E+02   -0.25179E+01 13446   0.902E+00    0.468E+01
RMM:   3    -0.742455723066E+03    0.95984E+01   -0.43270E+00 13993   0.400E+00    0.115E+01
RMM:   4    -0.742304088554E+03    0.15163E+00   -0.12784E+00 13715   0.201E+00    0.141E+01
RMM:   5    -0.741228161969E+03    0.10759E+01   -0.56740E-01 13934   0.134E+00    0.603E+00
RMM:   6    -0.741320878615E+03   -0.92717E-01   -0.29968E-01 14513   0.805E-01    0.726E+00
RMM:   7    -0.741207777284E+03    0.11310E+00   -0.16102E-01 13659   0.667E-01    0.514E+00
RMM:   8    -0.741143913427E+03    0.63864E-01   -0.93911E-02 13607   0.502E-01    0.199E+00
RMM:   9    -0.741132167629E+03    0.11746E-01   -0.25488E-02 14055   0.263E-01    0.222E+00
RMM:  10    -0.741134431159E+03   -0.22635E-02   -0.82737E-03 14518   0.142E-01    0.220E+00
RMM:  11    -0.741126156475E+03    0.82747E-02   -0.64790E-03 13939   0.109E-01    0.136E+00
RMM:  12    -0.741124091203E+03    0.20653E-02   -0.16223E-03 13418   0.608E-02    0.119E+00
RMM:  13    -0.741121482929E+03    0.26083E-02   -0.27239E-03 13720   0.680E-02    0.821E-01
RMM:  14    -0.741120931841E+03    0.55109E-03   -0.98997E-04 13078   0.464E-02    0.619E-01
RMM:  15    -0.741120775103E+03    0.15674E-03   -0.24602E-04  8948   0.240E-02    0.475E-01
RMM:  16    -0.741120632221E+03    0.14288E-03   -0.11769E-04  8164   0.195E-02    0.366E-01
RMM:  17    -0.741120435232E+03    0.19699E-03   -0.21920E-04  8688   0.211E-02    0.167E-01
RMM:  18    -0.741120402791E+03    0.32441E-04   -0.10002E-04  8116   0.168E-02
   9 F= -.74112040E+03 E0= -.74051198E+03  d E =0.177947E+01  mag=    -0.0000
       N       E                     dE             d eps       ncg     rms          rms(c)
DAV:   1    -0.742140853791E+03   -0.10204E+01   -0.44821E+02 13440   0.337E+01    0.612E+00
RMM:   2    -0.746788725410E+03   -0.46479E+01   -0.11119E+01 13440   0.617E+00    0.256E+01
RMM:   3    -0.743393413402E+03    0.33953E+01   -0.21056E+00 13947   0.269E+00    0.695E+00
RMM:   4    -0.743398953959E+03   -0.55406E-02   -0.57647E-01 14067   0.140E+00    0.792E+00
RMM:   5    -0.743262877550E+03    0.13608E+00   -0.15372E-01 13852   0.747E-01    0.668E+00
RMM:   6    -0.743282709799E+03   -0.19832E-01   -0.76756E-02 14285   0.425E-01    0.646E+00
RMM:   7    -0.743187503437E+03    0.95206E-01   -0.95495E-02 14324   0.481E-01    0.441E+00
RMM:   8    -0.743071888734E+03    0.11561E+00   -0.73983E-02 14246   0.415E-01    0.153E+00
RMM:   9    -0.743064482683E+03    0.74061E-02   -0.17014E-02 13715   0.212E-01    0.824E-01
RMM:  10    -0.743063008196E+03    0.14745E-02   -0.53492E-03 14392   0.121E-01    0.664E-01
RMM:  11    -0.743062031412E+03    0.97678E-03   -0.13597E-03 13721   0.493E-02    0.578E-01
RMM:  12    -0.743060308372E+03    0.17230E-02   -0.41314E-03 14259   0.863E-02    0.431E-01
RMM:  13    -0.743059401616E+03    0.90676E-03   -0.83653E-04 12800   0.498E-02    0.196E-01
RMM:  14    -0.743059193777E+03    0.20784E-03   -0.31391E-04  9463   0.275E-02    0.101E-01
RMM:  15    -0.743059180759E+03    0.13018E-04   -0.68723E-05  8137   0.171E-02
  10 F= -.74305918E+03 E0= -.74246356E+03  d E =-.159311E+00  mag=    -0.0000
       N       E                     dE             d eps       ncg     rms          rms(c)
DAV:   1    -0.743041491086E+03    0.17703E-01   -0.31157E+00 13920   0.280E+00    0.518E-01
RMM:   2    -0.743075422719E+03   -0.33932E-01   -0.73692E-02 13442   0.515E-01    0.229E+00
RMM:   3    -0.743048872831E+03    0.26550E-01   -0.12990E-02 13745   0.217E-01    0.526E-01
RMM:   4    -0.743048828300E+03    0.44531E-04   -0.37884E-03 13649   0.113E-01    0.643E-01
RMM:   5    -0.743047474568E+03    0.13537E-02   -0.14898E-03 13468   0.683E-02    0.468E-01
RMM:   6    -0.743047394802E+03    0.79766E-04   -0.53861E-04 12045   0.398E-02    0.393E-01
RMM:   7    -0.743047018320E+03    0.37648E-03   -0.50235E-04 11811   0.381E-02    0.246E-01
RMM:   8    -0.743046701254E+03    0.31707E-03   -0.23348E-04  9076   0.286E-02    0.585E-02
RMM:   9    -0.743046727847E+03   -0.26593E-04   -0.60966E-05  7884   0.150E-02
  11 F= -.74304673E+03 E0= -.74245055E+03  d E =-.146858E+00  mag=    -0.0000
       N       E                     dE             d eps       ncg     rms          rms(c)
DAV:   1    -0.743061265571E+03   -0.14564E-01   -0.13331E+00 13824   0.183E+00    0.368E-01
RMM:   2    -0.743084620372E+03   -0.23355E-01   -0.31306E-02 13442   0.335E-01    0.191E+00
RMM:   3    -0.743064332477E+03    0.20288E-01   -0.56333E-03 13545   0.149E-01    0.400E-01
RMM:   4    -0.743063806926E+03    0.52555E-03   -0.17549E-03 13596   0.768E-02    0.333E-01
RMM:   5    -0.743063364798E+03    0.44213E-03   -0.60670E-04 12250   0.438E-02    0.230E-01
RMM:   6    -0.743063476173E+03   -0.11137E-03   -0.25807E-04  9157   0.269E-02    0.237E-01
RMM:   7    -0.743063336339E+03    0.13983E-03   -0.21496E-04  8828   0.267E-02    0.156E-01
RMM:   8    -0.743063217876E+03    0.11846E-03   -0.10644E-04  7962   0.204E-02    0.391E-02
RMM:   9    -0.743063225989E+03   -0.81130E-05   -0.28586E-05  7380   0.106E-02
  12 F= -.74306323E+03 E0= -.74246751E+03  d E =-.163357E+00  mag=    -0.0000
       N       E                     dE             d eps       ncg     rms          rms(c)
DAV:   1    -0.741657990413E+03    0.14052E+01   -0.22047E+02 13440   0.238E+01    0.403E+00
RMM:   2    -0.743322359180E+03   -0.16644E+01   -0.56336E+00 13440   0.458E+00    0.168E+01
RMM:   3    -0.742305310709E+03    0.10170E+01   -0.10924E+00 14969   0.184E+00    0.608E+00
RMM:   4    -0.742561730737E+03   -0.25642E+00   -0.24933E-01 13570   0.895E-01    0.994E+00
RMM:   5    -0.742226977987E+03    0.33475E+00   -0.12370E-01 13916   0.620E-01    0.650E+00
RMM:   6    -0.742132134363E+03    0.94844E-01   -0.10690E-01 13961   0.470E-01    0.401E+00
RMM:   7    -0.742109240808E+03    0.22894E-01   -0.49667E-02 13740   0.371E-01    0.330E+00
RMM:   8    -0.742115021153E+03   -0.57803E-02   -0.21314E-02 13671   0.249E-01    0.308E+00
RMM:   9    -0.742079101148E+03    0.35920E-01   -0.11014E-02 14843   0.148E-01    0.144E+00
RMM:  10    -0.742076125201E+03    0.29759E-02   -0.24390E-03 13327   0.804E-02    0.110E+00
RMM:  11    -0.742075496838E+03    0.62836E-03   -0.29353E-03 13301   0.735E-02    0.100E+00
RMM:  12    -0.742073782798E+03    0.17140E-02   -0.22657E-03 13883   0.632E-02    0.663E-01
RMM:  13    -0.742072935068E+03    0.84773E-03   -0.55058E-04 11711   0.395E-02    0.414E-01
RMM:  14    -0.742072870518E+03    0.64549E-04   -0.29412E-04  9494   0.238E-02
  13 F= -.74207287E+03 E0= -.74146992E+03  d E =0.990355E+00  mag=    -0.0000
       N       E                     dE             d eps       ncg     rms          rms(c)
DAV:   1    -0.742851889170E+03   -0.77895E+00   -0.14511E+02 13440   0.193E+01    0.328E+00
RMM:   2    -0.743722819137E+03   -0.87093E+00   -0.34129E+00 13440   0.363E+00    0.113E+01
RMM:   3    -0.743195514611E+03    0.52730E+00   -0.65126E-01 14742   0.144E+00    0.367E+00
RMM:   4    -0.743450005138E+03   -0.25449E+00   -0.14820E-01 13692   0.716E-01    0.775E+00
RMM:   5    -0.743310821194E+03    0.13918E+00   -0.56880E-02 13507   0.469E-01    0.603E+00
RMM:   6    -0.743214088076E+03    0.96733E-01   -0.36903E-02 13452   0.322E-01    0.406E+00
RMM:   7    -0.743149324527E+03    0.64764E-01   -0.49832E-02 14475   0.334E-01    0.169E+00
RMM:   8    -0.743133709280E+03    0.15615E-01   -0.21032E-02 13863   0.232E-01    0.950E-01
RMM:   9    -0.743134143100E+03   -0.43382E-03   -0.62850E-03 15628   0.106E-01    0.793E-01
RMM:  10    -0.743134150017E+03   -0.69166E-05   -0.77236E-04 12584   0.402E-02
  14 F= -.74313415E+03 E0= -.74253572E+03  d E =-.709240E-01  mag=    -0.0000
       N       E                     dE             d eps       ncg     rms          rms(c)
DAV:   1    -0.743142222986E+03   -0.80799E-02   -0.56422E-01 14112   0.122E+00    0.589E-01
RMM:   2    -0.743240941477E+03   -0.98718E-01   -0.27733E-02 13440   0.292E-01    0.382E+00
RMM:   3    -0.743145331630E+03    0.95610E-01   -0.78686E-03 13440   0.193E-01    0.712E-01
RMM:   4    -0.743143610620E+03    0.17210E-02   -0.17782E-03 13155   0.757E-02    0.466E-01
RMM:   5    -0.743143094298E+03    0.51632E-03   -0.53656E-04 12036   0.417E-02    0.331E-01
RMM:   6    -0.743142854273E+03    0.24002E-03   -0.35930E-04 10389   0.347E-02    0.179E-01
RMM:   7    -0.743142843249E+03    0.11024E-04   -0.20083E-04  8828   0.276E-02    0.124E-01
RMM:   8    -0.743142822562E+03    0.20687E-04   -0.57599E-05  8028   0.154E-02
  15 F= -.74314282E+03 E0= -.74254617E+03  d E =-.795966E-01  mag=    -0.0000
       N       E                     dE             d eps       ncg     rms          rms(c)
DAV:   1    -0.742611552734E+03    0.53129E+00   -0.10118E+02 13440   0.158E+01    0.270E+00
RMM:   2    -0.743024504359E+03   -0.41295E+00   -0.21378E+00 13440   0.283E+00    0.705E+00
RMM:   3    -0.742873038811E+03    0.15147E+00   -0.41464E-01 14579   0.116E+00    0.330E+00
RMM:   4    -0.742862134574E+03    0.10904E-01   -0.90226E-02 14639   0.536E-01    0.276E+00
RMM:   5    -0.742856485657E+03    0.56489E-02   -0.38926E-02 13456   0.362E-01    0.291E+00
RMM:   6    -0.742848066403E+03    0.84193E-02   -0.27825E-02 13525   0.299E-01    0.224E+00
RMM:   7    -0.742827423889E+03    0.20643E-01   -0.20982E-02 13750   0.245E-01    0.848E-01
RMM:   8    -0.742823068116E+03    0.43558E-02   -0.85112E-03 13716   0.150E-01    0.392E-01
RMM:   9    -0.742822820246E+03    0.24787E-03   -0.26581E-03 14864   0.767E-02    0.294E-01
RMM:  10    -0.742822645956E+03    0.17429E-03   -0.40292E-04 10367   0.298E-02    0.287E-01
RMM:  11    -0.742822276115E+03    0.36984E-03   -0.90623E-04 12791   0.441E-02    0.207E-01
RMM:  12    -0.742822151033E+03    0.12508E-03   -0.68607E-04 12578   0.399E-02    0.941E-02
RMM:  13    -0.742822130667E+03    0.20366E-04   -0.12583E-04  8156   0.220E-02
  16 F= -.74282213E+03 E0= -.74222289E+03  d E =0.320692E+00  mag=    -0.0000
       N       E                     dE             d eps       ncg     rms          rms(c)
DAV:   1    -0.743154420138E+03   -0.33227E+00   -0.45974E+01 13568   0.106E+01    0.211E+00
RMM:   2    -0.743366262129E+03   -0.21184E+00   -0.99839E-01 13440   0.194E+00    0.515E+00
RMM:   3    -0.743299968266E+03    0.66294E-01   -0.18693E-01 14043   0.804E-01    0.289E+00
RMM:   4    -0.743270659310E+03    0.29309E-01   -0.48309E-02 13986   0.415E-01    0.177E+00
RMM:   5    -0.743266702785E+03    0.39565E-02   -0.22786E-02 13472   0.283E-01    0.175E+00
RMM:   6    -0.743259951507E+03    0.67513E-02   -0.12157E-02 13450   0.204E-01    0.128E+00
RMM:   7    -0.743252821039E+03    0.71305E-02   -0.72416E-03 13561   0.148E-01    0.419E-01
RMM:   8    -0.743251796256E+03    0.10248E-02   -0.30369E-03 13818   0.877E-02    0.242E-01
RMM:   9    -0.743251553748E+03    0.24251E-03   -0.88334E-04 12705   0.471E-02    0.114E-01
RMM:  10    -0.743251558717E+03   -0.49690E-05   -0.20961E-04  8828   0.220E-02
  17 F= -.74325156E+03 E0= -.74265435E+03  d E =-.108736E+00  mag=     0.0000
       N       E                     dE             d eps       ncg     rms          rms(c)
DAV:   1    -0.742608193460E+03    0.64336E+00   -0.81797E+01 13440   0.144E+01    0.255E+00
RMM:   2    -0.743101068865E+03   -0.49288E+00   -0.17803E+00 13440   0.251E+00    0.846E+00
RMM:   3    -0.742814384792E+03    0.28668E+00   -0.30023E-01 13945   0.106E+00    0.365E+00
RMM:   4    -0.742785239013E+03    0.29146E-01   -0.84852E-02 15551   0.495E-01    0.251E+00
RMM:   5    -0.742812139567E+03   -0.26901E-01   -0.27004E-02 13452   0.294E-01    0.345E+00
RMM:   6    -0.742806775124E+03    0.53644E-02   -0.23246E-02 13508   0.279E-01    0.297E+00
RMM:   7    -0.742778338602E+03    0.28437E-01   -0.29813E-02 14390   0.277E-01    0.115E+00
RMM:   8    -0.742767096017E+03    0.11243E-01   -0.10388E-02 13532   0.162E-01    0.458E-01
RMM:   9    -0.742767251837E+03   -0.15582E-03   -0.32452E-03 15610   0.804E-02    0.378E-01
RMM:  10    -0.742767025968E+03    0.22587E-03   -0.29844E-04  9246   0.254E-02    0.356E-01
RMM:  11    -0.742766421599E+03    0.60437E-03   -0.71710E-04 12451   0.394E-02    0.264E-01
RMM:  12    -0.742766128252E+03    0.29335E-03   -0.17779E-03 13520   0.559E-02    0.136E-01
RMM:  13    -0.742766049160E+03    0.79092E-04   -0.15420E-04  8160   0.249E-02
  18 F= -.74276605E+03 E0= -.74216585E+03  d E =0.485510E+00  mag=    -0.0000
       N       E                     dE             d eps       ncg     rms          rms(c)
DAV:   1    -0.743200433028E+03   -0.43430E+00   -0.52160E+01 13440   0.115E+01    0.225E+00
RMM:   2    -0.743496382405E+03   -0.29595E+00   -0.12053E+00 13440   0.206E+00    0.664E+00
RMM:   3    -0.743340140515E+03    0.15624E+00   -0.19959E-01 13947   0.866E-01    0.289E+00
RMM:   4    -0.743325413893E+03    0.14727E-01   -0.55228E-02 14899   0.418E-01    0.210E+00
RMM:   5    -0.743335593866E+03   -0.10180E-01   -0.29221E-02 13460   0.291E-01    0.258E+00
RMM:   6    -0.743318299094E+03    0.17295E-01   -0.15495E-02 13443   0.238E-01    0.191E+00
RMM:   7    -0.743307540264E+03    0.10759E-01   -0.11619E-02 13618   0.187E-01    0.668E-01
RMM:   8    -0.743305679763E+03    0.18605E-02   -0.46213E-03 13794   0.105E-01    0.374E-01
RMM:   9    -0.743305294259E+03    0.38550E-03   -0.11583E-03 13083   0.565E-02    0.251E-01
RMM:  10    -0.743305190667E+03    0.10359E-03   -0.30396E-04  9656   0.256E-02    0.261E-01
RMM:  11    -0.743304908872E+03    0.28179E-03   -0.72522E-04 12250   0.372E-02    0.158E-01
RMM:  12    -0.743304868481E+03    0.40391E-04   -0.17945E-04  8161   0.235E-02
  19 F= -.74330487E+03 E0= -.74270690E+03  d E =-.533098E-01  mag=     0.0000
       N       E                     dE             d eps       ncg     rms          rms(c)
DAV:   1    -0.743001334086E+03    0.30357E+00   -0.38835E+01 13440   0.991E+00    0.162E+00
RMM:   2    -0.743080980026E+03   -0.79646E-01   -0.74491E-01 13440   0.163E+00    0.310E+00
RMM:   3    -0.743093479184E+03   -0.12499E-01   -0.13111E-01 14747   0.649E-01    0.271E+00
RMM:   4    -0.743079810410E+03    0.13669E-01   -0.24752E-02 13534   0.313E-01    0.150E+00
RMM:   5    -0.743115178554E+03   -0.35368E-01   -0.11432E-02 13726   0.193E-01    0.325E+00
RMM:   6    -0.743084053252E+03    0.31125E-01   -0.57351E-03 13483   0.130E-01    0.234E+00
RMM:   7    -0.743086857393E+03   -0.28041E-02   -0.20379E-02 16275   0.201E-01    0.193E+00
RMM:   8    -0.743085742993E+03    0.11144E-02   -0.44296E-03 13655   0.111E-01    0.170E+00
RMM:   9    -0.743085087206E+03    0.65579E-03   -0.15636E-03 13585   0.677E-02    0.171E+00
RMM:  10    -0.743084532454E+03    0.55475E-03   -0.55048E-04 11312   0.337E-02    0.172E+00
RMM:  11    -0.743083304011E+03    0.12284E-02   -0.24619E-04  8794   0.263E-02    0.167E+00
RMM:  12    -0.743082379698E+03    0.92431E-03   -0.18071E-04  8416   0.229E-02    0.161E+00
RMM:  13    -0.743082040710E+03    0.33899E-03   -0.69994E-05  8054   0.170E-02    0.159E+00
RMM:  14    -0.743082036574E+03    0.41362E-05   -0.20617E-05  7708   0.920E-03
  20 F= -.74308204E+03 E0= -.74248236E+03  d E =0.222832E+00  mag=     0.0000
       N       E                     dE             d eps       ncg     rms          rms(c)
DAV:   1    -0.743306624912E+03   -0.22458E+00   -0.22779E+01 13472   0.761E+00    0.125E+00
RMM:   2    -0.743356366144E+03   -0.49741E-01   -0.41521E-01 13440   0.123E+00    0.201E+00
RMM:   3    -0.743380432289E+03   -0.24066E-01   -0.71563E-02 13866   0.499E-01    0.239E+00
RMM:   4    -0.743355979405E+03    0.24453E-01   -0.19060E-02 13948   0.258E-01    0.147E+00
RMM:   5    -0.743344733954E+03    0.11245E-01   -0.67090E-03 13536   0.154E-01    0.778E-01
RMM:   6    -0.743344396481E+03    0.33747E-03   -0.64841E-03 13592   0.131E-01    0.703E-01
RMM:   7    -0.743342678307E+03    0.17182E-02   -0.39859E-03 13620   0.111E-01    0.445E-01
RMM:   8    -0.743341922700E+03    0.75561E-03   -0.11154E-03 13145   0.545E-02    0.200E-01
RMM:   9    -0.743341725585E+03    0.19711E-03   -0.29474E-04  9551   0.261E-02    0.890E-02
RMM:  10    -0.743341713080E+03    0.12505E-04   -0.10752E-04  8199   0.192E-02
  21 F= -.74334171E+03 E0= -.74274329E+03  d E =-.368446E-01  mag=     0.0000
       N       E                     dE             d eps       ncg     rms          rms(c)
DAV:   1    -0.743258965454E+03    0.82760E-01   -0.13867E+01 13824   0.598E+00    0.757E-01
RMM:   2    -0.743320512678E+03   -0.61547E-01   -0.26469E-01 13440   0.980E-01    0.298E+00
RMM:   3    -0.743289757139E+03    0.30756E-01   -0.43259E-02 14268   0.396E-01    0.112E+00
RMM:   4    -0.743303484415E+03   -0.13727E-01   -0.11181E-02 14321   0.188E-01    0.178E+00
RMM:   5    -0.743288666072E+03    0.14818E-01   -0.34840E-03 13448   0.114E-01    0.102E+00
RMM:   6    -0.743287622297E+03    0.10438E-02   -0.18478E-03 13118   0.750E-02    0.856E-01
RMM:   7    -0.743287104402E+03    0.51790E-03   -0.20706E-03 13414   0.719E-02    0.620E-01
RMM:   8    -0.743285864745E+03    0.12397E-02   -0.87768E-04 12767   0.485E-02    0.360E-01
RMM:   9    -0.743285721082E+03    0.14366E-03   -0.28123E-04  9428   0.266E-02    0.292E-01
RMM:  10    -0.743285615835E+03    0.10525E-03   -0.82931E-05  8121   0.174E-02    0.238E-01
RMM:  11    -0.743285473414E+03    0.14242E-03   -0.13151E-04  8070   0.173E-02    0.138E-01
RMM:  12    -0.743285453740E+03    0.19675E-04   -0.46473E-05  7909   0.132E-02
  22 F= -.74328545E+03 E0= -.74268599E+03  d E =0.562593E-01  mag=     0.0000
       N       E                     dE             d eps       ncg     rms          rms(c)
DAV:   1    -0.743352370470E+03   -0.66897E-01   -0.65111E+00 13744   0.410E+00    0.537E-01
RMM:   2    -0.743385181545E+03   -0.32811E-01   -0.12561E-01 13440   0.671E-01    0.220E+00
RMM:   3    -0.743366215039E+03    0.18967E-01   -0.20084E-02 13972   0.276E-01    0.678E-01
RMM:   4    -0.743371862723E+03   -0.56477E-02   -0.59634E-03 14604   0.134E-01    0.113E+00
RMM:   5    -0.743366458936E+03    0.54038E-02   -0.15460E-03 13355   0.754E-02    0.719E-01
RMM:   6    -0.743365914104E+03    0.54483E-03   -0.95564E-04 12680   0.540E-02    0.588E-01
RMM:   7    -0.743365282231E+03    0.63187E-03   -0.11141E-03 13256   0.530E-02    0.339E-01
RMM:   8    -0.743364885979E+03    0.39625E-03   -0.34587E-04 10265   0.316E-02    0.209E-01
RMM:   9    -0.743364830415E+03    0.55564E-04   -0.11096E-04  8118   0.197E-02
  23 F= -.74336483E+03 E0= -.74276592E+03  d E =-.231173E-01  mag=     0.0000
       N       E                     dE             d eps       ncg     rms          rms(c)
DAV:   1    -0.743344713047E+03    0.20173E-01   -0.51803E+00 13536   0.361E+00    0.537E-01
RMM:   2    -0.743354744321E+03   -0.10031E-01   -0.10771E-01 13440   0.638E-01    0.710E-01
RMM:   3    -0.743357284202E+03   -0.25399E-02   -0.18616E-02 14525   0.254E-01    0.641E-01
RMM:   4    -0.743358955567E+03   -0.16714E-02   -0.45487E-03 14327   0.117E-01    0.853E-01
RMM:   5    -0.743355598999E+03    0.33566E-02   -0.13959E-03 13002   0.716E-02    0.481E-01
RMM:   6    -0.743354782662E+03    0.81634E-03   -0.74364E-04 12588   0.513E-02    0.225E-01
RMM:   7    -0.743355014865E+03   -0.23220E-03   -0.83427E-04 12766   0.445E-02    0.244E-01
RMM:   8    -0.743354669921E+03    0.34494E-03   -0.44177E-04 11340   0.367E-02    0.844E-02
RMM:   9    -0.743354663614E+03    0.63075E-05   -0.10942E-04  8071   0.191E-02
  24 F= -.74335466E+03 E0= -.74275534E+03  d E =0.101668E-01  mag=     0.0000
       N       E                     dE             d eps       ncg     rms          rms(c)
DAV:   1    -0.743372983899E+03   -0.18314E-01   -0.18465E+00 13888   0.216E+00    0.319E-01
RMM:   2    -0.743376825325E+03   -0.38414E-02   -0.38545E-02 13440   0.381E-01    0.467E-01
RMM:   3    -0.743377202133E+03   -0.37681E-03   -0.65584E-03 14372   0.151E-01    0.402E-01
RMM:   4    -0.743377342989E+03   -0.14086E-03   -0.15476E-03 14243   0.699E-02    0.381E-01
RMM:   5    -0.743377079016E+03    0.26397E-03   -0.54238E-04 12562   0.411E-02    0.343E-01
RMM:   6    -0.743376463940E+03    0.61508E-03   -0.31433E-04  9994   0.329E-02    0.160E-01
RMM:   7    -0.743376482972E+03   -0.19032E-04   -0.31929E-04  9884   0.304E-02    0.113E-01
RMM:   8    -0.743376420816E+03    0.62156E-04   -0.19533E-04  8419   0.245E-02
  25 F= -.74337642E+03 E0= -.74277745E+03  d E =-.115904E-01  mag=     0.0000
       N       E                     dE             d eps       ncg     rms          rms(c)
DAV:   1    -0.743372273471E+03    0.42095E-02   -0.23994E+00 13808   0.241E+00    0.391E-01
RMM:   2    -0.743377525874E+03   -0.52524E-02   -0.47379E-02 13440   0.430E-01    0.785E-01
RMM:   3    -0.743377450350E+03    0.75524E-04   -0.97548E-03 15049   0.173E-01    0.453E-01
RMM:   4    -0.743377577139E+03   -0.12679E-03   -0.16093E-03 13575   0.737E-02    0.493E-01
RMM:   5    -0.743379078703E+03   -0.15016E-02   -0.67527E-04 12588   0.457E-02    0.604E-01
RMM:   6    -0.743377509968E+03    0.15687E-02   -0.49866E-04 11916   0.374E-02    0.347E-01
RMM:   7    -0.743377172496E+03    0.33747E-03   -0.33329E-04 10026   0.314E-02    0.209E-01
RMM:   8    -0.743377075610E+03    0.96886E-04   -0.12880E-04  8057   0.224E-02
  26 F= -.74337708E+03 E0= -.74277825E+03  d E =-.654794E-03  mag=     0.0000
       N       E                     dE             d eps       ncg     rms          rms(c)
DAV:   1    -0.743382741180E+03   -0.55687E-02   -0.52764E-01 13888   0.113E+00    0.204E-01
RMM:   2    -0.743384784397E+03   -0.20432E-02   -0.10706E-02 13440   0.204E-01    0.602E-01
RMM:   3    -0.743383952255E+03    0.83214E-03   -0.19137E-03 13478   0.876E-02    0.256E-01
RMM:   4    -0.743383960187E+03   -0.79312E-05   -0.67429E-04 12265   0.420E-02    0.256E-01
RMM:   5    -0.743383673176E+03    0.28701E-03   -0.16448E-04  8125   0.238E-02    0.169E-01
RMM:   6    -0.743383691160E+03   -0.17984E-04   -0.11085E-04  7909   0.202E-02    0.157E-01
RMM:   7    -0.743383654198E+03    0.36962E-04   -0.10019E-04  7761   0.184E-02    0.124E-01
RMM:   8    -0.743383618640E+03    0.35558E-04   -0.51171E-05  7466   0.140E-02
  27 F= -.74338362E+03 E0= -.74278458E+03  d E =-.719782E-02  mag=     0.0000
       N       E                     dE             d eps       ncg     rms          rms(c)
DAV:   1    -0.743384993424E+03   -0.13392E-02   -0.18984E+00 13760   0.215E+00    0.426E-01
RMM:   2    -0.743393827434E+03   -0.88340E-02   -0.44069E-02 13440   0.405E-01    0.135E+00
RMM:   3    -0.743389609202E+03    0.42182E-02   -0.78748E-03 14071   0.172E-01    0.626E-01
RMM:   4    -0.743389791588E+03   -0.18239E-03   -0.25217E-03 15387   0.805E-02    0.628E-01
RMM:   5    -0.743388668883E+03    0.11227E-02   -0.11986E-03 13037   0.545E-02    0.526E-01
RMM:   6    -0.743388162074E+03    0.50681E-03   -0.63490E-04 12473   0.431E-02    0.287E-01
RMM:   7    -0.743388265026E+03   -0.10295E-03   -0.49149E-04 11664   0.357E-02    0.244E-01
RMM:   8    -0.743388035464E+03    0.22956E-03   -0.23779E-04  9170   0.274E-02    0.128E-01
RMM:   9    -0.743387996782E+03    0.38681E-04   -0.65279E-05  7866   0.164E-02
  28 F= -.74338800E+03 E0= -.74278938E+03  d E =-.437814E-02  mag=     0.0000
       N       E                     dE             d eps       ncg     rms          rms(c)
DAV:   1    -0.743390391606E+03   -0.23561E-02   -0.25505E-01 13984   0.789E-01    0.186E-01
RMM:   2    -0.743392204212E+03   -0.18126E-02   -0.60443E-03 13440   0.150E-01    0.630E-01
RMM:   3    -0.743391191654E+03    0.10126E-02   -0.10830E-03 13188   0.684E-02    0.309E-01
RMM:   4    -0.743390753795E+03    0.43786E-03   -0.35428E-04  9711   0.317E-02    0.148E-01
RMM:   5    -0.743390809002E+03   -0.55207E-04   -0.13223E-04  7817   0.229E-02    0.189E-01
RMM:   6    -0.743390732441E+03    0.76560E-04   -0.73933E-05  7434   0.161E-02    0.128E-01
RMM:   7    -0.743390711936E+03    0.20505E-04   -0.88492E-05  7338   0.166E-02    0.943E-02
RMM:   8    -0.743390680275E+03    0.31661E-04   -0.40362E-05  7115   0.126E-02
  29 F= -.74339068E+03 E0= -.74279189E+03  d E =-.706163E-02  mag=     0.0000
       N       E                     dE             d eps       ncg     rms          rms(c)
DAV:   1    -0.743399486370E+03   -0.87744E-02   -0.40686E-01 13696   0.969E-01    0.153E-01
RMM:   2    -0.743400492289E+03   -0.10059E-02   -0.80088E-03 13440   0.170E-01    0.375E-01
RMM:   3    -0.743400259486E+03    0.23280E-03   -0.13906E-03 13679   0.700E-02    0.167E-01
RMM:   4    -0.743401129171E+03   -0.86969E-03   -0.40771E-04 10623   0.340E-02    0.413E-01
RMM:   5    -0.743400231605E+03    0.89757E-03   -0.13189E-04  7958   0.235E-02    0.168E-01
RMM:   6    -0.743400204397E+03    0.27209E-04   -0.92375E-05  7816   0.169E-02    0.116E-01
RMM:   7    -0.743400187039E+03    0.17358E-04   -0.55595E-05  7500   0.138E-02    0.807E-02
RMM:   8    -0.743400184829E+03    0.22098E-05   -0.30809E-05  7180   0.109E-02
  30 F= -.74340018E+03 E0= -.74280153E+03  d E =-.950455E-02  mag=     0.0000
       N       E                     dE             d eps       ncg     rms          rms(c)
DAV:   1    -0.743407717985E+03   -0.75309E-02   -0.36555E+00 13536   0.291E+00    0.466E-01
RMM:   2    -0.743416237509E+03   -0.85195E-02   -0.72113E-02 13440   0.511E-01    0.102E+00
RMM:   3    -0.743415217354E+03    0.10202E-02   -0.13519E-02 14952   0.207E-01    0.524E-01
RMM:   4    -0.743426056017E+03   -0.10839E-01   -0.34462E-03 13727   0.993E-02    0.144E+00
RMM:   5    -0.743415382410E+03    0.10674E-01   -0.13240E-03 13070   0.715E-02    0.567E-01
RMM:   6    -0.743414649654E+03    0.73276E-03   -0.92615E-04 12704   0.498E-02    0.357E-01
RMM:   7    -0.743414462162E+03    0.18749E-03   -0.52867E-04 11814   0.373E-02    0.218E-01
RMM:   8    -0.743414476335E+03   -0.14174E-04   -0.28566E-04  9648   0.301E-02
  31 F= -.74341448E+03 E0= -.74281622E+03  d E =-.237961E-01  mag=     0.0000
       N       E                     dE             d eps       ncg     rms          rms(c)
DAV:   1    -0.743422164292E+03   -0.77021E-02   -0.12340E-01 14048   0.533E-01    0.173E-01
RMM:   2    -0.743422601702E+03   -0.43741E-03   -0.27678E-03 13424   0.980E-02    0.169E-01
RMM:   3    -0.743423003547E+03   -0.40185E-03   -0.72189E-04 12314   0.552E-02    0.343E-01
RMM:   4    -0.743422557436E+03    0.44611E-03   -0.21602E-04  8839   0.244E-02    0.215E-01
RMM:   5    -0.743422502003E+03    0.55433E-04   -0.50744E-05  7784   0.161E-02    0.156E-01
RMM:   6    -0.743422464247E+03    0.37756E-04   -0.62124E-05  7660   0.126E-02    0.101E-01
RMM:   7    -0.743422411736E+03    0.52512E-04   -0.21295E-05  7206   0.950E-03    0.543E-02
RMM:   8    -0.743422405858E+03    0.58776E-05   -0.10170E-05  6647   0.622E-03
  32 F= -.74342241E+03 E0= -.74282451E+03  d E =-.792952E-02  mag=     0.0000
       N       E                     dE             d eps       ncg     rms          rms(c)
DAV:   1    -0.743437339508E+03   -0.14928E-01   -0.11133E+00 13568   0.159E+00    0.224E-01
RMM:   2    -0.743440125474E+03   -0.27860E-02   -0.20311E-02 13440   0.263E-01    0.530E-01
RMM:   3    -0.743439583569E+03    0.54191E-03   -0.34953E-03 14588   0.106E-01    0.240E-01
RMM:   4    -0.743441039938E+03   -0.14564E-02   -0.81083E-04 12761   0.501E-02    0.541E-01
RMM:   5    -0.743439671787E+03    0.13682E-02   -0.31754E-04 10078   0.347E-02    0.285E-01
RMM:   6    -0.743439533598E+03    0.13819E-03   -0.19409E-04  8434   0.262E-02    0.225E-01
RMM:   7    -0.743439375225E+03    0.15837E-03   -0.15653E-04  8294   0.221E-02    0.904E-02
RMM:   8    -0.743439375895E+03   -0.66985E-06   -0.74211E-05  7812   0.163E-02
  33 F= -.74343938E+03 E0= -.74284177E+03  d E =-.248996E-01  mag=     0.0000
       N       E                     dE             d eps       ncg     rms          rms(c)
DAV:   1    -0.743450926323E+03   -0.11551E-01   -0.71932E-02 13824   0.433E-01    0.879E-02
RMM:   2    -0.743451171593E+03   -0.24527E-03   -0.15078E-03 13380   0.732E-02    0.179E-01
RMM:   3    -0.743451145411E+03    0.26182E-04   -0.24593E-04  8588   0.335E-02    0.124E-01
RMM:   4    -0.743451064297E+03    0.81114E-04   -0.60885E-05  7618   0.171E-02    0.524E-02
RMM:   5    -0.743451076727E+03   -0.12430E-04   -0.23888E-05  7243   0.871E-03    0.645E-02
RMM:   6    -0.743451078202E+03   -0.14747E-05   -0.12087E-05  6658   0.695E-03    0.516E-02
RMM:   7    -0.743451074125E+03    0.40772E-05   -0.12074E-05  6591   0.633E-03    0.413E-02
RMM:   8    -0.743451066491E+03    0.76342E-05   -0.40538E-06  5663   0.441E-03
  34 F= -.74345107E+03 E0= -.74285361E+03  d E =-.116906E-01  mag=     0.0000
       N       E                     dE             d eps       ncg     rms          rms(c)
DAV:   1    -0.743465293464E+03   -0.14219E-01   -0.64801E-01 13600   0.130E+00    0.168E-01
RMM:   2    -0.743466924237E+03   -0.16308E-02   -0.12458E-02 13440   0.208E-01    0.454E-01
RMM:   3    -0.743466603037E+03    0.32120E-03   -0.17206E-03 13634   0.835E-02    0.195E-01
RMM:   4    -0.743467766939E+03   -0.11639E-02   -0.49363E-04 11364   0.396E-02    0.466E-01
RMM:   5    -0.743466596256E+03    0.11707E-02   -0.16818E-04  8178   0.259E-02    0.195E-01
RMM:   6    -0.743466585973E+03    0.10283E-04   -0.91075E-05  7930   0.184E-02    0.175E-01
RMM:   7    -0.743466556377E+03    0.29596E-04   -0.70162E-05  7762   0.155E-02    0.102E-01
RMM:   8    -0.743466536252E+03    0.20126E-04   -0.40353E-05  7408   0.113E-02
  35 F= -.74346654E+03 E0= -.74286938E+03  d E =-.271604E-01  mag=     0.0000
       N       E                     dE             d eps       ncg     rms          rms(c)
DAV:   1    -0.743473735906E+03   -0.71795E-02   -0.36399E-02 14016   0.307E-01    0.812E-02
RMM:   2    -0.743474067468E+03   -0.33156E-03   -0.85476E-04 12904   0.584E-02    0.226E-01
RMM:   3    -0.743473841754E+03    0.22571E-03   -0.15786E-04  7733   0.248E-02    0.949E-02
RMM:   4    -0.743473826399E+03    0.15355E-04   -0.45310E-05  7394   0.154E-02    0.704E-02
RMM:   5    -0.743473824361E+03    0.20380E-05   -0.21044E-05  7134   0.940E-03    0.547E-02
RMM:   6    -0.743473822777E+03    0.15836E-05   -0.15767E-05  6854   0.708E-03    0.418E-02
RMM:   7    -0.743473814678E+03    0.80993E-05   -0.73546E-06  6383   0.588E-03    0.211E-02
RMM:   8    -0.743473813748E+03    0.92942E-06   -0.15961E-06  4071   0.329E-03
  36 F= -.74347381E+03 E0= -.74287667E+03  d E =-.727750E-02  mag=     0.0000
       N       E                     dE             d eps       ncg     rms          rms(c)
DAV:   1    -0.743485917075E+03   -0.12102E-01   -0.32733E-01 13776   0.922E-01    0.154E-01
RMM:   2    -0.743486864787E+03   -0.94771E-03   -0.73684E-03 13440   0.170E-01    0.397E-01
RMM:   3    -0.743486763989E+03    0.10080E-03   -0.13051E-03 13686   0.662E-02    0.259E-01
RMM:   4    -0.743488125056E+03   -0.13611E-02   -0.35287E-04 10572   0.333E-02    0.516E-01
RMM:   5    -0.743486650835E+03    0.14742E-02   -0.14797E-04  8076   0.256E-02    0.185E-01
RMM:   6    -0.743486662815E+03   -0.11979E-04   -0.81059E-05  7811   0.157E-02    0.163E-01
RMM:   7    -0.743486658792E+03    0.40224E-05   -0.37694E-05  7523   0.128E-02    0.135E-01
RMM:   8    -0.743486648453E+03    0.10340E-04   -0.30069E-05  7329   0.956E-03
  37 F= -.74348665E+03 E0= -.74288957E+03  d E =-.201122E-01  mag=     0.0000
       N       E                     dE             d eps       ncg     rms          rms(c)
DAV:   1    -0.743487690747E+03   -0.10320E-02   -0.59426E-02 14080   0.393E-01    0.116E-01
RMM:   2    -0.743488028257E+03   -0.33751E-03   -0.14128E-03 13328   0.744E-02    0.214E-01
RMM:   3    -0.743487879163E+03    0.14909E-03   -0.26668E-04  8825   0.304E-02    0.140E-01
RMM:   4    -0.743487846138E+03    0.33026E-04   -0.76978E-05  7624   0.199E-02    0.907E-02
RMM:   5    -0.743487871348E+03   -0.25210E-04   -0.47076E-05  7515   0.133E-02    0.100E-01
RMM:   6    -0.743487859358E+03    0.11990E-04   -0.37866E-05  7396   0.122E-02    0.746E-02
RMM:   7    -0.743487839406E+03    0.19951E-04   -0.16065E-05  6861   0.853E-03    0.413E-02
RMM:   8    -0.743487827686E+03    0.11720E-04   -0.54945E-06  5991   0.478E-03
  38 F= -.74348783E+03 E0= -.74289074E+03  d E =-.212914E-01  mag=     0.0000
       N       E                     dE             d eps       ncg     rms          rms(c)
DAV:   1    -0.743493860892E+03   -0.60215E-02   -0.59508E-02 14144   0.380E-01    0.743E-02
RMM:   2    -0.743494017042E+03   -0.15615E-03   -0.13569E-03 13398   0.719E-02    0.151E-01
RMM:   3    -0.743493968025E+03    0.49017E-04   -0.24865E-04  8390   0.299E-02    0.535E-02
RMM:   4    -0.743494068506E+03   -0.10048E-03   -0.77005E-05  7576   0.198E-02    0.138E-01
RMM:   5    -0.743493999398E+03    0.69108E-04   -0.31903E-05  7352   0.109E-02    0.100E-01
RMM:   6    -0.743493970532E+03    0.28867E-04   -0.16162E-05  6888   0.787E-03    0.461E-02
RMM:   7    -0.743493965794E+03    0.47381E-05   -0.88863E-06  6502   0.550E-03    0.359E-02
RMM:   8    -0.743493964220E+03    0.15735E-05   -0.54914E-06  6171   0.480E-03
  39 F= -.74349396E+03 E0= -.74289680E+03  d E =-.613653E-02  mag=     0.0000
       N       E                     dE             d eps       ncg     rms          rms(c)
DAV:   1    -0.743501876640E+03   -0.79108E-02   -0.53488E-01 13664   0.114E+00    0.221E-01
RMM:   2    -0.743503315665E+03   -0.14390E-02   -0.12205E-02 13440   0.215E-01    0.468E-01
RMM:   3    -0.743502923546E+03    0.39212E-03   -0.23188E-03 14611   0.892E-02    0.186E-01
RMM:   4    -0.743504774975E+03   -0.18514E-02   -0.72685E-04 12883   0.446E-02    0.591E-01
RMM:   5    -0.743502958321E+03    0.18167E-02   -0.25458E-04  8865   0.305E-02    0.233E-01
RMM:   6    -0.743502826415E+03    0.13191E-03   -0.18241E-04  8360   0.239E-02    0.118E-01
RMM:   7    -0.743502833441E+03   -0.70267E-05   -0.88286E-05  7868   0.174E-02    0.103E-01
RMM:   8    -0.743502806476E+03    0.26965E-04   -0.49682E-05  7697   0.142E-02
  40 F= -.74350281E+03 E0= -.74290554E+03  d E =-.149788E-01  mag=    -0.0000
       N       E                     dE             d eps       ncg     rms          rms(c)
DAV:   1    -0.743510260721E+03   -0.74273E-02   -0.16145E-01 13840   0.630E-01    0.102E-01
RMM:   2    -0.743510576997E+03   -0.31628E-03   -0.31108E-03 13436   0.109E-01    0.107E-01
RMM:   3    -0.743510843749E+03   -0.26675E-03   -0.57913E-04 12482   0.456E-02    0.202E-01
RMM:   4    -0.743510611945E+03    0.23180E-03   -0.14073E-04  8045   0.230E-02    0.883E-02
RMM:   5    -0.743510598198E+03    0.13748E-04   -0.45749E-05  7698   0.154E-02    0.399E-02
RMM:   6    -0.743510630928E+03   -0.32731E-04   -0.29920E-05  7498   0.894E-03    0.735E-02
RMM:   7    -0.743510612816E+03    0.18113E-04   -0.15957E-05  6836   0.821E-03    0.552E-02
RMM:   8    -0.743510603269E+03    0.95467E-05   -0.90261E-06  6632   0.571E-03
  41 F= -.74351060E+03 E0= -.74291317E+03  d E =-.779679E-02  mag=    -0.0000
       N       E                     dE             d eps       ncg     rms          rms(c)
DAV:   1    -0.743517878809E+03   -0.72660E-02   -0.14539E+00 13472   0.189E+00    0.253E-01
RMM:   2    -0.743520476905E+03   -0.25981E-02   -0.27571E-02 13440   0.322E-01    0.281E-01
RMM:   3    -0.743520980563E+03   -0.50366E-03   -0.49208E-03 14570   0.130E-01    0.213E-01
RMM:   4    -0.743522862072E+03   -0.18815E-02   -0.12407E-03 13808   0.610E-02    0.589E-01
RMM:   5    -0.743521004782E+03    0.18573E-02   -0.38490E-04 11306   0.371E-02    0.242E-01
RMM:   6    -0.743520829553E+03    0.17523E-03   -0.19085E-04  8476   0.264E-02    0.124E-01
RMM:   7    -0.743520852940E+03   -0.23387E-04   -0.18329E-04  8521   0.226E-02    0.111E-01
RMM:   8    -0.743520795788E+03    0.57152E-04   -0.83729E-05  7928   0.190E-02
  42 F= -.74352080E+03 E0= -.74292300E+03  d E =-.179893E-01  mag=    -0.0000
       N       E                     dE             d eps       ncg     rms          rms(c)
DAV:   1    -0.743523902887E+03   -0.30499E-02   -0.81522E-02 14080   0.439E-01    0.707E-02
RMM:   2    -0.743524068808E+03   -0.16592E-03   -0.15591E-03 13252   0.729E-02    0.831E-02
RMM:   3    -0.743524108791E+03   -0.39983E-04   -0.27345E-04  9134   0.319E-02    0.847E-02
RMM:   4    -0.743524150887E+03   -0.42096E-04   -0.77055E-05  7780   0.192E-02    0.117E-01
RMM:   5    -0.743524075876E+03    0.75011E-04   -0.26684E-05  7490   0.998E-03    0.452E-02
RMM:   6    -0.743524077448E+03   -0.15721E-05   -0.10165E-05  6922   0.625E-03    0.290E-02
RMM:   7    -0.743524075133E+03    0.23150E-05   -0.65013E-06  6072   0.497E-03    0.207E-02
RMM:   8    -0.743524075302E+03   -0.16938E-06   -0.41296E-06  5800   0.415E-03
  43 F= -.74352408E+03 E0= -.74292614E+03  d E =-.327951E-02  mag=    -0.0000
       N       E                     dE             d eps       ncg     rms          rms(c)
DAV:   1    -0.743524658884E+03   -0.58375E-03   -0.20910E-01 13856   0.701E-01    0.903E-02
RMM:   2    -0.743525033162E+03   -0.37428E-03   -0.37874E-03 13412   0.113E-01    0.111E-01
RMM:   3    -0.743525092857E+03   -0.59695E-04   -0.60832E-04 12000   0.466E-02    0.917E-02
RMM:   4    -0.743525290241E+03   -0.19738E-03   -0.17263E-04  8278   0.237E-02    0.203E-01
RMM:   5    -0.743525068434E+03    0.22181E-03   -0.57599E-05  7711   0.167E-02    0.754E-02
RMM:   6    -0.743525058937E+03    0.94970E-05   -0.24723E-05  7350   0.911E-03    0.459E-02
RMM:   7    -0.743525057981E+03    0.95541E-06   -0.19451E-05  7088   0.803E-03    0.366E-02
RMM:   8    -0.743525054591E+03    0.33901E-05   -0.11669E-05  6758   0.668E-03
  44 F= -.74352505E+03 E0= -.74292701E+03  d E =-.425880E-02  mag=    -0.0000
       N       E                     dE             d eps       ncg     rms          rms(c)
DAV:   1    -0.743525386224E+03   -0.32824E-03   -0.25772E-02 14032   0.246E-01    0.318E-02
RMM:   2    -0.743525434140E+03   -0.47916E-04   -0.45865E-04  9568   0.397E-02    0.488E-02
RMM:   3    -0.743525444734E+03   -0.10594E-04   -0.70106E-05  7210   0.180E-02    0.502E-02
RMM:   4    -0.743525440705E+03    0.40296E-05   -0.17721E-05  7092   0.906E-03    0.474E-02
RMM:   5    -0.743525430834E+03    0.98709E-05   -0.67217E-06  6545   0.558E-03    0.181E-02
RMM:   6    -0.743525431728E+03   -0.89430E-06   -0.28286E-06  4540   0.359E-03    0.154E-02
RMM:   7    -0.743525431593E+03    0.13491E-06   -0.27425E-06  4863   0.357E-03    0.101E-02
RMM:   8    -0.743525431463E+03    0.13059E-06   -0.40056E-07  2204   0.289E-03
  45 F= -.74352543E+03 E0= -.74292742E+03  d E =-.463567E-02  mag=    -0.0000
       N       E                     dE             d eps       ncg     rms          rms(c)
DAV:   1    -0.743530365003E+03   -0.49334E-02   -0.26035E-02 13920   0.265E-01    0.354E-02
RMM:   2    -0.743530432170E+03   -0.67167E-04   -0.55037E-04 10514   0.456E-02    0.948E-02
RMM:   3    -0.743530422932E+03    0.92379E-05   -0.80828E-05  7194   0.193E-02    0.468E-02
RMM:   4    -0.743530486420E+03   -0.63488E-04   -0.20995E-05  7198   0.977E-03    0.109E-01
RMM:   5    -0.743530414474E+03    0.71946E-04   -0.84959E-06  6712   0.623E-03    0.337E-02
RMM:   6    -0.743530420135E+03   -0.56606E-05   -0.19863E-06  3996   0.331E-03    0.428E-02
RMM:   7    -0.743530429629E+03   -0.94936E-05   -0.22408E-06  4348   0.342E-03    0.459E-02
RMM:   8    -0.743530422134E+03    0.74944E-05   -0.22490E-06  4754   0.350E-03
  46 F= -.74353042E+03 E0= -.74293243E+03  d E =-.499067E-02  mag=    -0.0000
       N       E                     dE             d eps       ncg     rms          rms(c)
DAV:   1    -0.743535891578E+03   -0.54619E-02   -0.23371E-01 13728   0.794E-01    0.114E-01
RMM:   2    -0.743536447130E+03   -0.55555E-03   -0.49038E-03 13440   0.137E-01    0.271E-01
RMM:   3    -0.743536458168E+03   -0.11037E-04   -0.76701E-04 12886   0.536E-02    0.190E-01
RMM:   4    -0.743536615128E+03   -0.15696E-03   -0.17206E-04  8108   0.258E-02    0.224E-01
RMM:   5    -0.743536382867E+03    0.23226E-03   -0.51951E-05  7656   0.165E-02    0.132E-01
RMM:   6    -0.743536407384E+03   -0.24517E-04   -0.21576E-05  7387   0.756E-03    0.146E-01
RMM:   7    -0.743536427950E+03   -0.20566E-04   -0.25275E-05  7304   0.900E-03    0.129E-01
RMM:   8    -0.743536416789E+03    0.11161E-04   -0.23353E-05  7008   0.889E-03
  47 F= -.74353642E+03 E0= -.74293850E+03  d E =-.109853E-01  mag=     0.0000
       N       E                     dE             d eps       ncg     rms          rms(c)
DAV:   1    -0.743536444701E+03   -0.16752E-04   -0.15218E-03 13216   0.649E-02    0.709E-02
RMM:   2    -0.743536718714E+03   -0.27401E-03   -0.74564E-05  7258   0.145E-02    0.216E-01
RMM:   3    -0.743536446989E+03    0.27172E-03   -0.34850E-05  7210   0.128E-02    0.554E-02
RMM:   4    -0.743536477466E+03   -0.30477E-04   -0.30531E-05  6940   0.943E-03    0.902E-02
RMM:   5    -0.743536442025E+03    0.35441E-04   -0.14352E-05  6378   0.887E-03    0.180E-02
RMM:   6    -0.743536441914E+03    0.11146E-06   -0.30114E-06  4550   0.348E-03    0.198E-02
RMM:   7    -0.743536440723E+03    0.11907E-05   -0.57719E-07  2980   0.305E-03    0.668E-03
RMM:   8    -0.743536440864E+03   -0.14085E-06   -0.57170E-08  1434   0.236E-03
  48 F= -.74353644E+03 E0= -.74293838E+03  d E =-.110094E-01  mag=     0.0000
       N       E                     dE             d eps       ncg     rms          rms(c)
DAV:   1    -0.743538126836E+03   -0.16861E-02   -0.99453E-03 14080   0.164E-01    0.344E-02
RMM:   2    -0.743538180768E+03   -0.53931E-04   -0.24792E-04  7866   0.291E-02    0.896E-02
RMM:   3    -0.743538171872E+03    0.88955E-05   -0.42475E-05  7202   0.153E-02    0.770E-02
RMM:   4    -0.743538139753E+03    0.32119E-04   -0.98518E-06  7126   0.661E-03    0.171E-02
RMM:   5    -0.743538142073E+03   -0.23192E-05   -0.43745E-06  6035   0.441E-03    0.231E-02
RMM:   6    -0.743538142692E+03   -0.61938E-06   -0.86431E-07  3021   0.305E-03    0.147E-02
RMM:   7    -0.743538142119E+03    0.57337E-06   -0.18477E-06  3776   0.333E-03    0.828E-03
RMM:   8    -0.743538142334E+03   -0.21566E-06   -0.43663E-08  1668   0.267E-03
  49 F= -.74353814E+03 E0= -.74294007E+03  d E =-.170147E-02  mag=     0.0000
       N       E                     dE             d eps       ncg     rms          rms(c)
DAV:   1    -0.743540451567E+03   -0.23094E-02   -0.89147E-02 13712   0.491E-01    0.101E-01
RMM:   2    -0.743540774227E+03   -0.32266E-03   -0.21531E-03 13440   0.870E-02    0.208E-01
RMM:   3    -0.743540800456E+03   -0.26229E-04   -0.36168E-04 10254   0.385E-02    0.195E-01
RMM:   4    -0.743540602757E+03    0.19770E-03   -0.10438E-04  7640   0.212E-02    0.603E-02
RMM:   5    -0.743540602049E+03    0.70749E-06   -0.41026E-05  7336   0.127E-02    0.658E-02
RMM:   6    -0.743540604675E+03   -0.26251E-05   -0.17610E-05  6882   0.784E-03    0.466E-02
RMM:   7    -0.743540596941E+03    0.77331E-05   -0.15090E-05  7038   0.647E-03    0.247E-02
RMM:   8    -0.743540596303E+03    0.63815E-06   -0.50128E-06  6158   0.525E-03
  50 F= -.74354060E+03 E0= -.74294247E+03  d E =-.415544E-02  mag=     0.0000
       N       E                     dE             d eps       ncg     rms          rms(c)
DAV:   1    -0.743542174684E+03   -0.15777E-02   -0.24097E-02 14048   0.251E-01    0.382E-02
RMM:   2    -0.743542234174E+03   -0.59490E-04   -0.49666E-04 10684   0.431E-02    0.557E-02
RMM:   3    -0.743542257478E+03   -0.23304E-04   -0.88803E-05  7298   0.199E-02    0.809E-02
RMM:   4    -0.743542224279E+03    0.33200E-04   -0.21935E-05  7210   0.106E-02    0.335E-02
RMM:   5    -0.743542225205E+03   -0.92669E-06   -0.69686E-06  6764   0.543E-03    0.281E-02
RMM:   6    -0.743542228428E+03   -0.32224E-05   -0.34473E-06  4996   0.394E-03    0.313E-02
RMM:   7    -0.743542224314E+03    0.41137E-05   -0.26262E-06  4890   0.372E-03    0.138E-02
RMM:   8    -0.743542224405E+03   -0.90644E-07   -0.12420E-06  3338   0.308E-03
  51 F= -.74354222E+03 E0= -.74294414E+03  d E =-.162810E-02  mag=     0.0000
       N       E                     dE             d eps       ncg     rms          rms(c)
DAV:   1    -0.743542569388E+03   -0.34507E-03   -0.14194E-02 13952   0.193E-01    0.297E-02
RMM:   2    -0.743542611151E+03   -0.41764E-04   -0.29929E-04  8372   0.333E-02    0.634E-02
RMM:   3    -0.743542610244E+03    0.90703E-06   -0.49679E-05  7210   0.164E-02    0.502E-02
RMM:   4    -0.743542602616E+03    0.76284E-05   -0.13912E-05  7168   0.766E-03    0.395E-02
RMM:   5    -0.743542599732E+03    0.28841E-05   -0.44694E-06  6338   0.492E-03    0.195E-02
RMM:   6    -0.743542598986E+03    0.74642E-06   -0.99206E-07  3190   0.291E-03    0.173E-02
RMM:   7    -0.743542599979E+03   -0.99346E-06   -0.90073E-07  3296   0.306E-03    0.131E-02
RMM:   8    -0.743542599061E+03    0.91785E-06   -0.63857E-07  2410   0.299E-03
  52 F= -.74354260E+03 E0= -.74294452E+03  d E =-.200276E-02  mag=     0.0000
       N       E                     dE             d eps       ncg     rms          rms(c)
DAV:   1    -0.743543003871E+03   -0.40389E-03   -0.53682E-03 13632   0.114E-01    0.188E-02
RMM:   2    -0.743543017008E+03   -0.13137E-04   -0.11695E-04  7250   0.211E-02    0.313E-02
RMM:   3    -0.743543018236E+03   -0.12285E-05   -0.17922E-05  7162   0.103E-02    0.277E-02
RMM:   4    -0.743543017343E+03    0.89345E-06   -0.48908E-06  6858   0.457E-03    0.244E-02
RMM:   5    -0.743543016174E+03    0.11685E-05   -0.18097E-06  4848   0.350E-03    0.197E-02
RMM:   6    -0.743543015099E+03    0.10751E-05   -0.31772E-07  2372   0.274E-03    0.113E-02
RMM:   7    -0.743543015870E+03   -0.77134E-06   -0.27377E-07  2103   0.271E-03    0.101E-02
RMM:   8    -0.743543015387E+03    0.48320E-06   -0.45796E-07  2143   0.279E-03
  53 F= -.74354302E+03 E0= -.74294496E+03  d E =-.416326E-03  mag=     0.0000
       N       E                     dE             d eps       ncg     rms          rms(c)
DAV:   1    -0.743543203675E+03   -0.18780E-03   -0.11600E-02 14016   0.168E-01    0.289E-02
RMM:   2    -0.743543230326E+03   -0.26651E-04   -0.25309E-04  7866   0.309E-02    0.484E-02
RMM:   3    -0.743543229790E+03    0.53663E-06   -0.38906E-05  7172   0.151E-02    0.278E-02
RMM:   4    -0.743543246604E+03   -0.16815E-04   -0.11597E-05  7162   0.682E-03    0.581E-02
RMM:   5    -0.743543228171E+03    0.18433E-04   -0.52009E-06  6356   0.505E-03    0.246E-02
RMM:   6    -0.743543227731E+03    0.43990E-06   -0.14332E-06  3782   0.325E-03    0.166E-02
RMM:   7    -0.743543227760E+03   -0.28915E-07   -0.65481E-07  2924   0.310E-03    0.647E-03
RMM:   8    -0.743543227948E+03   -0.18760E-06   -0.99513E-07  2965   0.312E-03
  54 F= -.74354323E+03 E0= -.74294519E+03  d E =-.628887E-03  mag=     0.0000
       N       E                     dE             d eps       ncg     rms          rms(c)
DAV:   1    -0.743543534782E+03   -0.30702E-03   -0.59511E-03 14080   0.108E-01    0.214E-02
RMM:   2    -0.743543549668E+03   -0.14886E-04   -0.11550E-04  7258   0.207E-02    0.352E-02
RMM:   3    -0.743543551493E+03   -0.18248E-05   -0.20862E-05  7164   0.105E-02    0.376E-02
RMM:   4    -0.743543545099E+03    0.63946E-05   -0.58509E-06  6408   0.490E-03    0.187E-02
RMM:   5    -0.743543546400E+03   -0.13019E-05   -0.26488E-06  5162   0.382E-03    0.233E-02
RMM:   6    -0.743543544404E+03    0.19969E-05   -0.90729E-07  3404   0.307E-03    0.105E-02
RMM:   7    -0.743543544671E+03   -0.26760E-06   -0.10264E-06  3004   0.312E-03    0.696E-03
RMM:   8    -0.743543544295E+03    0.37652E-06   -0.38499E-07  1902   0.277E-03
  55 F= -.74354354E+03 E0= -.74294553E+03  d E =-.316347E-03  mag=     0.0000
       N       E                     dE             d eps       ncg     rms          rms(c)
DAV:   1    -0.743543657859E+03   -0.11319E-03   -0.83521E-03 14016   0.128E-01    0.257E-02
RMM:   2    -0.743543682023E+03   -0.24164E-04   -0.16500E-04  7456   0.247E-02    0.482E-02
RMM:   3    -0.743543677605E+03    0.44179E-05   -0.29988E-05  7168   0.127E-02    0.381E-02
RMM:   4    -0.743543675233E+03    0.23726E-05   -0.86339E-06  6674   0.583E-03    0.297E-02
RMM:   5    -0.743543673892E+03    0.13409E-05   -0.49649E-06  6390   0.466E-03    0.273E-02
RMM:   6    -0.743543671360E+03    0.25322E-05   -0.14142E-06  3969   0.335E-03    0.136E-02
RMM:   7    -0.743543671143E+03    0.21638E-06   -0.11202E-06  3297   0.317E-03    0.534E-03
RMM:   8    -0.743543671208E+03   -0.64894E-07   -0.66314E-07  2472   0.287E-03
  56 F= -.74354367E+03 E0= -.74294568E+03  d E =-.443261E-03  mag=    -0.0000
       N       E                     dE             d eps       ncg     rms          rms(c)
DAV:   1    -0.743543896333E+03   -0.22519E-03   -0.64593E-03 14048   0.116E-01    0.223E-02
RMM:   2    -0.743543917739E+03   -0.21406E-04   -0.13353E-04  7220   0.228E-02    0.509E-02
RMM:   3    -0.743543909340E+03    0.83998E-05   -0.23893E-05  7156   0.116E-02    0.233E-02
RMM:   4    -0.743543914856E+03   -0.55158E-05   -0.78050E-06  6688   0.542E-03    0.421E-02
RMM:   5    -0.743543911171E+03    0.36849E-05   -0.36340E-06  6100   0.441E-03    0.272E-02
RMM:   6    -0.743543907211E+03    0.39600E-05   -0.47666E-07  2766   0.285E-03    0.110E-02
RMM:   7    -0.743543908034E+03   -0.82309E-06   -0.46129E-07  2226   0.292E-03    0.547E-03
RMM:   8    -0.743543907925E+03    0.10845E-06   -0.24946E-07  1834   0.282E-03
  57 F= -.74354391E+03 E0= -.74294594E+03  d E =-.236717E-03  mag=    -0.0000
