 ----------------------------------------------------
    OOO  PPPP  EEEEE N   N M   M PPPP
   O   O P   P E     NN  N MM MM P   P
   O   O PPPP  EEEEE N N N M M M PPPP   -- VERSION
   O   O P     E     N  NN M   M P
    OOO  P     EEEEE N   N M   M P
 ----------------------------------------------------
 running   16 mpi-ranks, with    4 threads/rank
 distrk:  each k-point on   16 cores,    1 groups
 distr:  one band on    1 cores,   16 groups
 vasp.6.2.1 16May21 (build Jul 28 2021 23:24:15) complex                        
  
 POSCAR found type information on POSCAR H IrO 
 POSCAR found :  3 types and     104 ions
 scaLAPACK will be used
 -----------------------------------------------------------------------------
|                                                                             |
|           W    W    AA    RRRRR   N    N  II  N    N   GGGG   !!!           |
|           W    W   A  A   R    R  NN   N  II  NN   N  G    G  !!!           |
|           W    W  A    A  R    R  N N  N  II  N N  N  G       !!!           |
|           W WW W  AAAAAA  RRRRR   N  N N  II  N  N N  G  GGG   !            |
|           WW  WW  A    A  R   R   N   NN  II  N   NN  G    G                |
|           W    W  A    A  R    R  N    N  II  N    N   GGGG   !!!           |
|                                                                             |
|     The real-space projection scheme for the treatment of the non-local     |
|     pseudopotentials has been switched on but on file POTCAR I have not     |
|     found any entries, signalling me that you have never performed a        |
|     real-space optimization of all non-local projectors! BE WARNED that     |
|     a calculation using the real-space projection scheme together with      |
|     non-local projectors which were not real-space optimized (according     |
|     to the plane-wave cutoff used in this calculation) might give more      |
|     or less inaccurate results. I hope you know what you are doing.         |
|                                                                             |
 -----------------------------------------------------------------------------

 LDA part: xc-table for Pade appr. of Perdew
 POSCAR, INCAR and KPOINTS ok, starting setup
 FFT: planning ...
 WAVECAR not read
 WARNING: random wavefunctions but no delay for mixing, default for NELMDL
 entering main loop
       N       E                     dE             d eps       ncg     rms          rms(c)
DAV:   1     0.759611581693E+04    0.75961E+04   -0.29776E+05 15104   0.126E+03
DAV:   2     0.597566192420E+03   -0.69985E+04   -0.63136E+04 16016   0.373E+02
DAV:   3    -0.762705440766E+03   -0.13603E+04   -0.13092E+04 18576   0.165E+02
DAV:   4    -0.836794663864E+03   -0.74089E+02   -0.72272E+02 20304   0.432E+01
DAV:   5    -0.838449009258E+03   -0.16543E+01   -0.16337E+01 19456   0.605E+00    0.188E+02
RMM:   6    -0.681237318422E+03    0.15721E+03   -0.60587E+02 14905   0.390E+01    0.158E+02
RMM:   7    -0.160303360139E+04   -0.92180E+03   -0.44766E+02 16756   0.263E+01    0.401E+02
RMM:   8    -0.134066957027E+04    0.26236E+03   -0.10128E+02 18834   0.107E+01    0.356E+02
RMM:   9    -0.133125925801E+04    0.94103E+01   -0.73287E+01 15612   0.122E+01    0.346E+02
RMM:  10    -0.793810548298E+03    0.53745E+03   -0.27477E+02 19772   0.207E+01    0.241E+02
RMM:  11    -0.866787354446E+03   -0.72977E+02   -0.51582E+01 16518   0.902E+00    0.231E+02
RMM:  12    -0.923936192247E+03   -0.57149E+02   -0.10386E+02 18378   0.145E+01    0.232E+02
RMM:  13    -0.100886414708E+04   -0.84928E+02   -0.12573E+02 18934   0.171E+01    0.219E+02
RMM:  14    -0.803322837262E+03    0.20554E+03   -0.14463E+01 15162   0.590E+00    0.172E+02
RMM:  15    -0.717915413662E+03    0.85407E+02   -0.13989E+01 15457   0.602E+00    0.155E+02
RMM:  16    -0.660170913251E+03    0.57745E+02   -0.10254E+01 15243   0.451E+00    0.122E+02
RMM:  17    -0.628157035467E+03    0.32014E+02   -0.11946E+01 16644   0.483E+00    0.998E+01
RMM:  18    -0.621482753713E+03    0.66743E+01   -0.30365E+00 15628   0.270E+00    0.988E+01
RMM:  19    -0.629039590427E+03   -0.75568E+01   -0.14160E+00 15840   0.186E+00    0.963E+01
RMM:  20    -0.628765793897E+03    0.27380E+00   -0.43053E-01 17720   0.834E-01    0.957E+01
RMM:  21    -0.632943380898E+03   -0.41776E+01   -0.29166E-01 15076   0.842E-01    0.935E+01
RMM:  22    -0.631026444911E+03    0.19169E+01   -0.10449E+00 18188   0.155E+00    0.879E+01
RMM:  23    -0.651574028501E+03   -0.20548E+02   -0.12351E+01 24582   0.498E+00    0.657E+01
RMM:  24    -0.659207620073E+03   -0.76336E+01   -0.29321E+00 21616   0.243E+00    0.572E+01
RMM:  25    -0.662787331324E+03   -0.35797E+01   -0.12656E+00 18987   0.163E+00    0.521E+01
RMM:  26    -0.663549256571E+03   -0.76193E+00   -0.62123E-01 17116   0.120E+00    0.503E+01
RMM:  27    -0.676098856099E+03   -0.12550E+02   -0.10535E+01 24840   0.464E+00    0.464E+01
RMM:  28    -0.677964991532E+03   -0.18661E+01   -0.24132E+00 21628   0.222E+00    0.518E+01
RMM:  29    -0.679134633837E+03   -0.11696E+01   -0.36944E-01 16356   0.918E-01    0.554E+01
RMM:  30    -0.678922231944E+03    0.21240E+00   -0.12550E-01 15411   0.578E-01    0.545E+01
RMM:  31    -0.678509077023E+03    0.41315E+00   -0.13592E-01 15426   0.552E-01    0.528E+01
RMM:  32    -0.680551221896E+03   -0.20421E+01   -0.10399E+00 20778   0.141E+00    0.553E+01
RMM:  33    -0.679827602869E+03    0.72362E+00   -0.25514E-01 17016   0.824E-01    0.521E+01
RMM:  34    -0.678967407855E+03    0.86020E+00   -0.19749E-01 17126   0.723E-01    0.481E+01
RMM:  35    -0.681118837810E+03   -0.21514E+01   -0.40713E-01 19178   0.944E-01    0.458E+01
RMM:  36    -0.679622088063E+03    0.14967E+01   -0.38263E-01 19097   0.904E-01    0.376E+01
RMM:  37    -0.679529728086E+03    0.92360E-01   -0.68110E-01 21269   0.119E+00    0.264E+01
RMM:  38    -0.685615970523E+03   -0.60862E+01   -0.14702E+00 23345   0.163E+00    0.179E+01
RMM:  39    -0.689482785853E+03   -0.38668E+01   -0.56394E-01 20349   0.105E+00    0.183E+01
RMM:  40    -0.690627556193E+03   -0.11448E+01   -0.35351E-01 19647   0.858E-01    0.165E+01
RMM:  41    -0.692134461078E+03   -0.15069E+01   -0.30140E-01 19489   0.805E-01    0.169E+01
RMM:  42    -0.694632946636E+03   -0.24985E+01   -0.46990E-01 20243   0.891E-01    0.183E+01
RMM:  43    -0.695154828122E+03   -0.52188E+00   -0.90104E-01 22231   0.123E+00    0.225E+01
RMM:  44    -0.694215573021E+03    0.93926E+00   -0.17219E-01 17867   0.581E-01    0.236E+01
RMM:  45    -0.693970940288E+03    0.24463E+00   -0.11281E-01 16521   0.485E-01    0.252E+01
RMM:  46    -0.694729955696E+03   -0.75902E+00   -0.22653E-01 19002   0.637E-01    0.295E+01
RMM:  47    -0.696017906035E+03   -0.12880E+01   -0.21493E-01 18872   0.603E-01    0.342E+01
RMM:  48    -0.695739622447E+03    0.27828E+00   -0.90097E-02 16247   0.451E-01    0.296E+01
RMM:  49    -0.696797687864E+03   -0.10581E+01   -0.14979E-01 17929   0.531E-01    0.259E+01
RMM:  50    -0.697731007296E+03   -0.93332E+00   -0.77962E-02 16534   0.394E-01    0.237E+01
RMM:  51    -0.696408650403E+03    0.13224E+01   -0.11946E+00 25010   0.142E+00    0.139E+01
RMM:  52    -0.698769318302E+03   -0.23607E+01   -0.16067E-01 18843   0.623E-01    0.106E+01
RMM:  53    -0.699362632936E+03   -0.59331E+00   -0.13120E-01 18541   0.481E-01    0.884E+00
RMM:  54    -0.699951543092E+03   -0.58891E+00   -0.11101E-01 18443   0.462E-01    0.688E+00
RMM:  55    -0.700021168518E+03   -0.69625E-01   -0.12822E-01 18714   0.480E-01    0.620E+00
RMM:  56    -0.699699620953E+03    0.32155E+00   -0.67721E-02 16862   0.363E-01    0.532E+00
RMM:  57    -0.700141282336E+03   -0.44166E+00   -0.61140E-02 16227   0.328E-01    0.469E+00
RMM:  58    -0.701126090232E+03   -0.98481E+00   -0.66813E-02 17349   0.332E-01    0.376E+00
RMM:  59    -0.701612259914E+03   -0.48617E+00   -0.22607E-02 15465   0.222E-01    0.283E+00
RMM:  60    -0.702255190853E+03   -0.64293E+00   -0.26576E-02 16282   0.229E-01    0.211E+00
RMM:  61    -0.702918834425E+03   -0.66364E+00   -0.37364E-02 17875   0.283E-01    0.193E+00
RMM:  62    -0.702893455566E+03    0.25379E-01   -0.34662E-02 16935   0.243E-01    0.121E+00
RMM:  63    -0.703372149749E+03   -0.47869E+00   -0.18263E-02 16154   0.183E-01    0.958E-01
RMM:  64    -0.703483915276E+03   -0.11177E+00   -0.92686E-03 15625   0.134E-01    0.960E-01
RMM:  65    -0.703496085866E+03   -0.12171E-01   -0.78313E-03 15912   0.112E-01    0.787E-01
RMM:  66    -0.703609218900E+03   -0.11313E+00   -0.56987E-03 15713   0.972E-02    0.651E-01
RMM:  67    -0.703725395031E+03   -0.11618E+00   -0.46863E-03 16353   0.952E-02    0.517E-01
RMM:  68    -0.703896447271E+03   -0.17105E+00   -0.46269E-03 16260   0.825E-02    0.498E-01
RMM:  69    -0.704111311427E+03   -0.21486E+00   -0.26827E-03 15277   0.637E-02    0.594E-01
RMM:  70    -0.704242184121E+03   -0.13087E+00   -0.86116E-04 13979   0.458E-02    0.346E-01
RMM:  71    -0.704262218946E+03   -0.20035E-01   -0.52788E-04 12620   0.385E-02    0.286E-01
RMM:  72    -0.704351228973E+03   -0.89010E-01   -0.31352E-04 10642   0.303E-02    0.194E-01
RMM:  73    -0.704386597098E+03   -0.35368E-01   -0.16593E-04  9233   0.224E-02    0.107E-01
RMM:  74    -0.704409504503E+03   -0.22907E-01   -0.89056E-05  8873   0.177E-02    0.605E-02
RMM:  75    -0.704420248508E+03   -0.10744E-01   -0.47823E-05  8822   0.128E-02    0.461E-02
RMM:  76    -0.704424248343E+03   -0.39998E-02   -0.27545E-05  8580   0.920E-03    0.309E-02
RMM:  77    -0.704426225888E+03   -0.19775E-02   -0.13416E-05  7925   0.626E-03    0.191E-02
RMM:  78    -0.704427614721E+03   -0.13888E-02   -0.57824E-06  6167   0.432E-03    0.191E-02
RMM:  79    -0.704428870943E+03   -0.12562E-02   -0.60821E-06  5289   0.369E-03    0.117E-02
RMM:  80    -0.704429798767E+03   -0.92782E-03   -0.49509E-06  4941   0.355E-03
 -----------------------------------------------------------------------------
|                                                                             |
|           W    W    AA    RRRRR   N    N  II  N    N   GGGG   !!!           |
|           W    W   A  A   R    R  NN   N  II  NN   N  G    G  !!!           |
|           W    W  A    A  R    R  N N  N  II  N N  N  G       !!!           |
|           W WW W  AAAAAA  RRRRR   N  N N  II  N  N N  G  GGG   !            |
|           WW  WW  A    A  R   R   N   NN  II  N   NN  G    G                |
|           W    W  A    A  R    R  N    N  II  N    N   GGGG   !!!           |
|                                                                             |
|     The electronic self-consistency was not achieved in the given           |
|     number of steps (NELM). The forces and other quantities evaluated       |
|     might not be reliable so examine the results carefully. If you find     |
|     spurious results, we suggest increasing NELM, if you were close to      |
|     convergence or switching to a different ALGO or adjusting the           |
|     density mixing parameters otherwise.                                    |
|                                                                             |
 -----------------------------------------------------------------------------

   1 F= -.70442980E+03 E0= -.70381511E+03  d E =-.704430E+03  mag=     1.9481
 curvature:   0.00 expect dE= 0.000E+00 dE for cont linesearch  0.000E+00
 trial: gam= 0.00000 g(F)=  0.224E+02 g(S)=  0.000E+00 ort = 0.000E+00 (trialstep = 0.100E+01)
 search vector abs. value=  0.224E+02
 bond charge predicted
       N       E                     dE             d eps       ncg     rms          rms(c)
DAV:   1    -0.656910829729E+03    0.47518E+02   -0.40299E+03 15488   0.848E+01    0.205E+01
RMM:   2    -0.700262438195E+03   -0.43352E+02   -0.32274E+02 15350   0.197E+01    0.554E+01
RMM:   3    -0.708534433879E+03   -0.82720E+01   -0.54935E+01 15780   0.836E+00    0.450E+01
RMM:   4    -0.693568099618E+03    0.14966E+02   -0.55217E+00 15147   0.399E+00    0.326E+01
RMM:   5    -0.691355228048E+03    0.22129E+01   -0.20381E+00 15091   0.237E+00    0.324E+01
RMM:   6    -0.690132925504E+03    0.12223E+01   -0.12015E+00 15253   0.158E+00    0.275E+01
RMM:   7    -0.688044774495E+03    0.20882E+01   -0.51926E-01 15157   0.123E+00    0.206E+01
RMM:   8    -0.689083194312E+03   -0.10384E+01   -0.67824E-01 16005   0.878E-01    0.251E+01
RMM:   9    -0.690737491367E+03   -0.16543E+01   -0.74097E-01 17427   0.107E+00    0.263E+01
RMM:  10    -0.687029637669E+03    0.37079E+01   -0.28547E+00 19923   0.181E+00    0.116E+01
RMM:  11    -0.686459642728E+03    0.56999E+00   -0.10353E-01 14932   0.581E-01    0.801E+00
RMM:  12    -0.686415737738E+03    0.43905E-01   -0.27630E-02 15126   0.326E-01    0.800E+00
RMM:  13    -0.686308183527E+03    0.10755E+00   -0.64456E-02 15854   0.320E-01    0.657E+00
RMM:  14    -0.686320347245E+03   -0.12164E-01   -0.87075E-02 17161   0.337E-01    0.523E+00
RMM:  15    -0.686337455920E+03   -0.17109E-01   -0.16442E-02 15241   0.179E-01    0.473E+00
RMM:  16    -0.686048585679E+03    0.28887E+00   -0.61973E-02 17894   0.281E-01    0.339E+00
RMM:  17    -0.685864772997E+03    0.18381E+00   -0.57997E-02 19530   0.313E-01    0.252E+00
RMM:  18    -0.685846106583E+03    0.18666E-01   -0.13782E-02 16288   0.173E-01    0.207E+00
RMM:  19    -0.685868498320E+03   -0.22392E-01   -0.12391E-02 16690   0.149E-01    0.192E+00
RMM:  20    -0.685923581502E+03   -0.55083E-01   -0.28659E-02 19024   0.215E-01    0.185E+00
RMM:  21    -0.685932871791E+03   -0.92903E-02   -0.78935E-03 16107   0.118E-01    0.147E+00
RMM:  22    -0.685932231385E+03    0.64041E-03   -0.10937E-03 14638   0.547E-02    0.146E+00
RMM:  23    -0.685936353185E+03   -0.41218E-02   -0.91469E-03 19501   0.119E-01    0.152E+00
RMM:  24    -0.685931080259E+03    0.52729E-02   -0.44085E-03 17524   0.836E-02    0.122E+00
RMM:  25    -0.685951595945E+03   -0.20516E-01   -0.19181E-03 15368   0.657E-02    0.822E-01
RMM:  26    -0.685969883244E+03   -0.18287E-01   -0.88500E-04 13813   0.485E-02    0.631E-01
RMM:  27    -0.685989497530E+03   -0.19614E-01   -0.65219E-04 12770   0.410E-02    0.512E-01
RMM:  28    -0.686012923756E+03   -0.23426E-01   -0.56930E-04 12559   0.360E-02    0.423E-01
RMM:  29    -0.686064014064E+03   -0.51090E-01   -0.15556E-03 14618   0.523E-02    0.268E-01
RMM:  30    -0.686089017770E+03   -0.25004E-01   -0.86117E-04 13680   0.408E-02    0.225E-01
RMM:  31    -0.686111736006E+03   -0.22718E-01   -0.59626E-04 11946   0.324E-02    0.299E-01
RMM:  32    -0.686136542350E+03   -0.24806E-01   -0.68565E-04 11439   0.313E-02    0.363E-01
RMM:  33    -0.686168408083E+03   -0.31866E-01   -0.16875E-03 13786   0.436E-02    0.350E-01
RMM:  34    -0.686195338502E+03   -0.26930E-01   -0.86668E-04 11646   0.314E-02    0.267E-01
RMM:  35    -0.686219357334E+03   -0.24019E-01   -0.40136E-04 10101   0.212E-02    0.212E-01
RMM:  36    -0.686238509182E+03   -0.19152E-01   -0.24554E-04  9544   0.178E-02    0.158E-01
RMM:  37    -0.686261016581E+03   -0.22507E-01   -0.23188E-04  9544   0.182E-02    0.106E-01
RMM:  38    -0.686280359274E+03   -0.19343E-01   -0.11397E-04  9014   0.156E-02    0.875E-02
RMM:  39    -0.686293047905E+03   -0.12689E-01   -0.57416E-05  8562   0.124E-02    0.898E-02
RMM:  40    -0.686313885018E+03   -0.20837E-01   -0.10227E-04  8870   0.129E-02    0.114E-01
RMM:  41    -0.686335263321E+03   -0.21378E-01   -0.88671E-05  8845   0.114E-02    0.117E-01
RMM:  42    -0.686350298436E+03   -0.15035E-01   -0.99889E-05  8607   0.108E-02    0.102E-01
RMM:  43    -0.686359094748E+03   -0.87963E-02   -0.68072E-05  8536   0.102E-02    0.724E-02
RMM:  44    -0.686365665890E+03   -0.65711E-02   -0.59103E-05  8026   0.892E-03    0.616E-02
RMM:  45    -0.686370526624E+03   -0.48607E-02   -0.51511E-05  8051   0.816E-03    0.395E-02
RMM:  46    -0.686372652879E+03   -0.21263E-02   -0.41371E-05  8106   0.815E-03    0.204E-02
RMM:  47    -0.686373102492E+03   -0.44961E-03   -0.11113E-05  6413   0.583E-03    0.262E-02
RMM:  48    -0.686373779063E+03   -0.67657E-03   -0.77991E-06  4865   0.394E-03    0.199E-02
RMM:  49    -0.686374496808E+03   -0.71775E-03   -0.72377E-06  4976   0.396E-03    0.126E-02
RMM:  50    -0.686375257712E+03   -0.76090E-03   -0.88502E-06  4923   0.396E-03    0.683E-03
RMM:  51    -0.686375453124E+03   -0.19541E-03   -0.32753E-06  3921   0.352E-03    0.713E-03
RMM:  52    -0.686375508666E+03   -0.55542E-04   -0.11736E-06  2877   0.296E-03
   2 F= -.68637551E+03 E0= -.68575814E+03  d E =0.180543E+02  mag=     0.0013
 trial-energy change:   18.054290  1 .order   10.587257  -22.419134   43.593648
 step:   0.2223(harm=  0.3396)  dis= 0.09999  next Energy=  -706.839542 (dE=-0.241E+01)
 bond charge predicted
       N       E                     dE             d eps       ncg     rms          rms(c)
DAV:   1    -0.694584599417E+03   -0.82091E+01   -0.28567E+03 14880   0.630E+01    0.247E+01
RMM:   2    -0.785239741342E+03   -0.90655E+02   -0.27766E+02 15061   0.157E+01    0.155E+02
RMM:   3    -0.753323594301E+03    0.31916E+02   -0.55594E+01 16125   0.740E+00    0.686E+01
RMM:   4    -0.720572683925E+03    0.32751E+02   -0.10797E+01 14997   0.426E+00    0.395E+01
RMM:   5    -0.718923908022E+03    0.16488E+01   -0.45727E+00 15092   0.358E+00    0.375E+01
RMM:   6    -0.711189676749E+03    0.77342E+01   -0.19388E+00 15490   0.191E+00    0.227E+01
RMM:   7    -0.710119998801E+03    0.10697E+01   -0.12541E+00 16072   0.143E+00    0.220E+01
RMM:   8    -0.708447896854E+03    0.16721E+01   -0.69253E-01 15930   0.113E+00    0.183E+01
RMM:   9    -0.707265966285E+03    0.11819E+01   -0.68576E-01 16696   0.109E+00    0.152E+01
RMM:  10    -0.706832118847E+03    0.43385E+00   -0.24071E+00 19175   0.155E+00    0.108E+01
RMM:  11    -0.706494603740E+03    0.33752E+00   -0.20644E-01 15188   0.711E-01    0.102E+01
RMM:  12    -0.706352263281E+03    0.14234E+00   -0.10366E-01 15338   0.518E-01    0.915E+00
RMM:  13    -0.706301647917E+03    0.50615E-01   -0.88274E-02 15660   0.415E-01    0.814E+00
RMM:  14    -0.706299482873E+03    0.21650E-02   -0.17031E-02 15349   0.226E-01    0.898E+00
RMM:  15    -0.706277570424E+03    0.21912E-01   -0.14093E-02 15421   0.176E-01    0.781E+00
RMM:  16    -0.706264314538E+03    0.13256E-01   -0.89258E-03 15695   0.126E-01    0.776E+00
RMM:  17    -0.706258198955E+03    0.61156E-02   -0.84936E-03 15921   0.115E-01    0.792E+00
RMM:  18    -0.706252428467E+03    0.57705E-02   -0.23043E-03 14626   0.836E-02    0.759E+00
RMM:  19    -0.706247028311E+03    0.54002E-02   -0.17137E-03 14387   0.647E-02    0.714E+00
RMM:  20    -0.706244841620E+03    0.21867E-02   -0.13671E-03 14371   0.557E-02    0.683E+00
RMM:  21    -0.706244423276E+03    0.41834E-03   -0.36837E-04 11371   0.329E-02    0.676E+00
RMM:  22    -0.706244609866E+03   -0.18659E-03   -0.94979E-05  8977   0.176E-02    0.679E+00
RMM:  23    -0.706244710652E+03   -0.10079E-03   -0.40142E-05  8595   0.118E-02    0.682E+00
RMM:  24    -0.706244879998E+03   -0.16935E-03   -0.18235E-04  9267   0.185E-02    0.685E+00
RMM:  25    -0.706244755686E+03    0.12431E-03   -0.35626E-04  9959   0.260E-02    0.671E+00
RMM:  26    -0.706244235727E+03    0.51996E-03   -0.12852E-04  8989   0.201E-02    0.664E+00
RMM:  27    -0.706242803865E+03    0.14319E-02   -0.20441E-04  9259   0.228E-02    0.637E+00
RMM:  28    -0.706240653658E+03    0.21502E-02   -0.34321E-04 10684   0.283E-02    0.591E+00
RMM:  29    -0.706237875416E+03    0.27782E-02   -0.42918E-04 11091   0.305E-02    0.547E+00
RMM:  30    -0.706234289436E+03    0.35860E-02   -0.67850E-04 12503   0.363E-02    0.492E+00
RMM:  31    -0.706231273108E+03    0.30163E-02   -0.46900E-04 11310   0.321E-02    0.443E+00
RMM:  32    -0.706227815264E+03    0.34578E-02   -0.64631E-04 12483   0.341E-02    0.388E+00
RMM:  33    -0.706225293877E+03    0.25214E-02   -0.42638E-04 11032   0.306E-02    0.340E+00
RMM:  34    -0.706224800299E+03    0.49358E-03   -0.87932E-05  8860   0.166E-02    0.327E+00
RMM:  35    -0.706224760053E+03    0.40246E-04   -0.27020E-05  8421   0.109E-02
   3 F= -.70622476E+03 E0= -.70558336E+03  d E =-.179496E+01  mag=     0.0032
 curvature:  -0.16 expect dE=-0.626E+00 dE for cont linesearch -0.317E-02
 trial: gam= 0.19915 g(F)=  0.381E+01 g(S)=  0.000E+00 ort =-0.658E+00 (trialstep = 0.844E+00)
 search vector abs. value=  0.443E+01
 bond charge predicted
       N       E                     dE             d eps       ncg     rms          rms(c)
DAV:   1    -0.699572135008E+03    0.66527E+01   -0.77251E+02 14992   0.394E+01    0.917E+00
RMM:   2    -0.715041689271E+03   -0.15470E+02   -0.20788E+01 14854   0.722E+00    0.436E+01
RMM:   3    -0.703638350780E+03    0.11403E+02   -0.39665E+00 15142   0.331E+00    0.207E+01
RMM:   4    -0.701490316063E+03    0.21480E+01   -0.90086E-01 15257   0.180E+00    0.833E+00
RMM:   5    -0.701221037522E+03    0.26928E+00   -0.29218E-01 15184   0.947E-01    0.644E+00
RMM:   6    -0.701392013607E+03   -0.17098E+00   -0.27753E-01 15284   0.854E-01    0.840E+00
RMM:   7    -0.701049014304E+03    0.34300E+00   -0.20032E-01 15425   0.784E-01    0.487E+00
RMM:   8    -0.701014153333E+03    0.34861E-01   -0.83826E-02 14881   0.507E-01    0.371E+00
RMM:   9    -0.700962856665E+03    0.51297E-01   -0.51136E-02 14997   0.372E-01    0.213E+00
RMM:  10    -0.700936479107E+03    0.26378E-01   -0.18896E-02 15253   0.251E-01    0.103E+00
RMM:  11    -0.700936743271E+03   -0.26416E-03   -0.69661E-03 16161   0.114E-01    0.932E-01
RMM:  12    -0.700936570982E+03    0.17229E-03   -0.19728E-03 14259   0.728E-02    0.849E-01
RMM:  13    -0.700935611275E+03    0.95971E-03   -0.11405E-03 13920   0.550E-02    0.739E-01
RMM:  14    -0.700933935502E+03    0.16758E-02   -0.19700E-03 15564   0.626E-02    0.476E-01
RMM:  15    -0.700933320664E+03    0.61484E-03   -0.46159E-04 12788   0.377E-02    0.294E-01
RMM:  16    -0.700933099913E+03    0.22075E-03   -0.15819E-04  9154   0.236E-02    0.194E-01
RMM:  17    -0.700933061885E+03    0.38028E-04   -0.67018E-05  8958   0.161E-02
   4 F= -.70093306E+03 E0= -.70029127E+03  d E =0.529170E+01  mag=     0.0029
 trial-energy change:    5.291698  1 .order    4.358567   -3.104050   11.821185
 step:   0.1335(harm=  0.1756)  dis= 0.01070  next Energy=  -706.466380 (dE=-0.242E+00)
 bond charge predicted
       N       E                     dE             d eps       ncg     rms          rms(c)
DAV:   1    -0.705810722361E+03   -0.48776E+01   -0.54332E+02 14912   0.332E+01    0.134E+01
RMM:   2    -0.739161093767E+03   -0.33350E+02   -0.32610E+01 14988   0.735E+00    0.598E+01
RMM:   3    -0.713803754301E+03    0.25357E+02   -0.57766E+00 15112   0.403E+00    0.248E+01
RMM:   4    -0.710096755431E+03    0.37070E+01   -0.17147E+00 14855   0.237E+00    0.181E+01
RMM:   5    -0.706977637194E+03    0.31191E+01   -0.14672E+00 15328   0.164E+00    0.625E+00
RMM:   6    -0.706823809159E+03    0.15383E+00   -0.71220E-01 16036   0.106E+00    0.712E+00
RMM:   7    -0.706559517976E+03    0.26429E+00   -0.25125E-01 16600   0.599E-01    0.438E+00
RMM:   8    -0.706569300883E+03   -0.97829E-02   -0.96101E-02 15161   0.469E-01    0.461E+00
RMM:   9    -0.706506214366E+03    0.63087E-01   -0.16397E-01 16788   0.525E-01    0.346E+00
RMM:  10    -0.706495401889E+03    0.10812E-01   -0.41408E-02 14932   0.324E-01    0.311E+00
RMM:  11    -0.706452344672E+03    0.43057E-01   -0.22774E-02 15069   0.265E-01    0.133E+00
RMM:  12    -0.706444921015E+03    0.74237E-02   -0.58618E-03 14847   0.159E-01    0.786E-01
RMM:  13    -0.706443682557E+03    0.12385E-02   -0.24422E-03 14623   0.812E-02    0.721E-01
RMM:  14    -0.706442804348E+03    0.87821E-03   -0.97934E-04 13549   0.481E-02    0.586E-01
RMM:  15    -0.706441897679E+03    0.90667E-03   -0.73840E-04 13269   0.393E-02    0.391E-01
RMM:  16    -0.706441544046E+03    0.35363E-03   -0.49829E-04 12034   0.323E-02    0.310E-01
RMM:  17    -0.706441206780E+03    0.33727E-03   -0.21843E-04  9915   0.248E-02    0.265E-01
RMM:  18    -0.706441088279E+03    0.11850E-03   -0.59576E-05  8856   0.144E-02    0.249E-01
RMM:  19    -0.706441420266E+03   -0.33199E-03   -0.94873E-05  8942   0.145E-02    0.275E-01
RMM:  20    -0.706441768821E+03   -0.34855E-03   -0.20764E-04  9414   0.187E-02    0.269E-01
RMM:  21    -0.706441785290E+03   -0.16470E-04   -0.88379E-05  8840   0.152E-02
   5 F= -.70644179E+03 E0= -.70580013E+03  d E =-.217025E+00  mag=     0.0014
 curvature:  -0.11 expect dE=-0.403E+00 dE for cont linesearch -0.853E-02
 trial: gam= 1.18755 g(F)=  0.382E+01 g(S)=  0.000E+00 ort =-0.599E+00 (trialstep = 0.360E+00)
 search vector abs. value=  0.865E+01
 bond charge predicted
       N       E                     dE             d eps       ncg     rms          rms(c)
DAV:   1    -0.705097706265E+03    0.13441E+01   -0.23938E+02 15008   0.212E+01    0.413E+00
RMM:   2    -0.707970491812E+03   -0.28728E+01   -0.46421E+00 14848   0.414E+00    0.207E+01
RMM:   3    -0.705945004169E+03    0.20255E+01   -0.12343E+00 15770   0.178E+00    0.898E+00
RMM:   4    -0.705642494439E+03    0.30251E+00   -0.29762E-01 15504   0.993E-01    0.406E+00
RMM:   5    -0.705549728364E+03    0.92766E-01   -0.92201E-02 14911   0.566E-01    0.302E+00
RMM:   6    -0.705514699536E+03    0.35029E-01   -0.61946E-02 14919   0.403E-01    0.135E+00
RMM:   7    -0.705522137822E+03   -0.74383E-02   -0.54970E-02 15640   0.342E-01    0.182E+00
RMM:   8    -0.705531082589E+03   -0.89448E-02   -0.18536E-02 14919   0.243E-01    0.203E+00
RMM:   9    -0.705527758175E+03    0.33244E-02   -0.89180E-03 15432   0.160E-01    0.186E+00
RMM:  10    -0.705515693625E+03    0.12065E-01   -0.31538E-03 14776   0.982E-02    0.123E+00
RMM:  11    -0.705511140744E+03    0.45529E-02   -0.12101E-03 14214   0.583E-02    0.773E-01
RMM:  12    -0.705510134813E+03    0.10059E-02   -0.89418E-04 13666   0.457E-02    0.571E-01
RMM:  13    -0.705509777365E+03    0.35745E-03   -0.65719E-04 13358   0.397E-02    0.482E-01
RMM:  14    -0.705509170779E+03    0.60659E-03   -0.40397E-04 12058   0.310E-02    0.359E-01
RMM:  15    -0.705509149808E+03    0.20971E-04   -0.10432E-04  8982   0.186E-02
   6 F= -.70550915E+03 E0= -.70486784E+03  d E =0.932635E+00  mag=    -0.0015
 trial-energy change:    0.932635  1 .order    0.506713   -1.118882    2.132307
 step:   0.0765(harm=  0.1239)  dis= 0.01207  next Energy=  -706.556617 (dE=-0.115E+00)
 bond charge predicted
       N       E                     dE             d eps       ncg     rms          rms(c)
DAV:   1    -0.706276969461E+03   -0.76780E+00   -0.14807E+02 15024   0.167E+01    0.363E+00
RMM:   2    -0.707551834886E+03   -0.12749E+01   -0.30270E+00 14848   0.330E+00    0.124E+01
RMM:   3    -0.707308912020E+03    0.24292E+00   -0.73164E-01 15837   0.139E+00    0.111E+01
RMM:   4    -0.706588847841E+03    0.72006E+00   -0.16115E-01 14972   0.795E-01    0.259E+00
RMM:   5    -0.706557556618E+03    0.31291E-01   -0.75212E-02 15028   0.480E-01    0.229E+00
RMM:   6    -0.706547033648E+03    0.10523E-01   -0.36903E-02 14911   0.328E-01    0.181E+00
RMM:   7    -0.706551319833E+03   -0.42862E-02   -0.49619E-02 16104   0.309E-01    0.212E+00
RMM:   8    -0.706533949336E+03    0.17370E-01   -0.13377E-02 14908   0.195E-01    0.125E+00
RMM:   9    -0.706534353771E+03   -0.40443E-03   -0.11622E-02 15549   0.163E-01    0.118E+00
RMM:  10    -0.706530041479E+03    0.43123E-02   -0.39456E-03 14888   0.105E-01    0.773E-01
RMM:  11    -0.706527558566E+03    0.24829E-02   -0.12273E-03 13785   0.612E-02    0.606E-01
RMM:  12    -0.706526122313E+03    0.14363E-02   -0.45308E-04 11552   0.315E-02    0.546E-01
RMM:  13    -0.706526942425E+03   -0.82011E-03   -0.99608E-05  9070   0.179E-02    0.572E-01
RMM:  14    -0.706528843119E+03   -0.19007E-02   -0.19770E-04  9486   0.205E-02    0.615E-01
RMM:  15    -0.706530541971E+03   -0.16989E-02   -0.96404E-04 12833   0.387E-02    0.562E-01
RMM:  16    -0.706528879976E+03    0.16620E-02   -0.15272E-03 14529   0.482E-02    0.307E-01
RMM:  17    -0.706529045489E+03   -0.16551E-03   -0.23813E-04  9813   0.303E-02    0.195E-01
RMM:  18    -0.706529222806E+03   -0.17732E-03   -0.92053E-05  8849   0.191E-02    0.165E-01
RMM:  19    -0.706529262372E+03   -0.39566E-04   -0.33447E-05  8418   0.107E-02
   7 F= -.70652926E+03 E0= -.70588771E+03  d E =-.874771E-01  mag=     0.0059
 curvature:  -0.17 expect dE=-0.589E+00 dE for cont linesearch -0.124E-02
 trial: gam= 0.40051 g(F)=  0.356E+01 g(S)=  0.000E+00 ort =-0.255E+00 (trialstep = 0.303E+00)
 search vector abs. value=  0.475E+01
 bond charge predicted
       N       E                     dE             d eps       ncg     rms          rms(c)
DAV:   1    -0.706366141157E+03    0.16308E+00   -0.82445E+01 15376   0.127E+01    0.695E+00
RMM:   2    -0.715719476228E+03   -0.93533E+01   -0.58050E+00 14970   0.339E+00    0.330E+01
RMM:   3    -0.709428314758E+03    0.62912E+01   -0.12866E+00 14968   0.210E+00    0.190E+01
RMM:   4    -0.707279868231E+03    0.21484E+01   -0.50929E-01 14853   0.133E+00    0.969E+00
RMM:   5    -0.706444442222E+03    0.83543E+00   -0.41242E-01 15192   0.883E-01    0.457E+00
RMM:   6    -0.706319214487E+03    0.12523E+00   -0.16760E-01 16103   0.558E-01    0.324E+00
RMM:   7    -0.706281524506E+03    0.37690E-01   -0.74832E-02 16151   0.338E-01    0.173E+00
RMM:   8    -0.706290986242E+03   -0.94617E-02   -0.30846E-02 16082   0.240E-01    0.160E+00
RMM:   9    -0.706291726061E+03   -0.73982E-03   -0.15921E-02 14993   0.218E-01    0.177E+00
RMM:  10    -0.706284398326E+03    0.73277E-02   -0.76231E-03 15074   0.153E-01    0.120E+00
RMM:  11    -0.706279292185E+03    0.51061E-02   -0.34210E-03 15304   0.849E-02    0.951E-01
RMM:  12    -0.706276543111E+03    0.27491E-02   -0.10596E-03 13690   0.561E-02    0.618E-01
RMM:  13    -0.706275583652E+03    0.95946E-03   -0.38051E-04 10983   0.312E-02    0.543E-01
RMM:  14    -0.706276170350E+03   -0.58670E-03   -0.92011E-05  9031   0.176E-02    0.573E-01
RMM:  15    -0.706276762207E+03   -0.59186E-03   -0.58962E-05  8764   0.132E-02    0.585E-01
RMM:  16    -0.706278346208E+03   -0.15840E-02   -0.11208E-03 12654   0.399E-02    0.589E-01
RMM:  17    -0.706277138517E+03    0.12077E-02   -0.77134E-04 12298   0.359E-02    0.429E-01
RMM:  18    -0.706277118343E+03    0.20173E-04   -0.28143E-04  9923   0.284E-02
   8 F= -.70627712E+03 E0= -.70563778E+03  d E =0.252144E+00  mag=     0.0007
 trial-energy change:    0.252144  1 .order    0.173590   -1.049650    1.396831
 step:   0.1163(harm=  0.1301)  dis= 0.01522  next Energy=  -706.726100 (dE=-0.197E+00)
 bond charge predicted
       N       E                     dE             d eps       ncg     rms          rms(c)
DAV:   1    -0.706762691193E+03   -0.48555E+00   -0.31188E+01 15312   0.777E+00    0.292E+00
RMM:   2    -0.709634718831E+03   -0.28720E+01   -0.11403E+00 14876   0.167E+00    0.211E+01
RMM:   3    -0.707110733522E+03    0.25240E+01   -0.27018E-01 14877   0.999E-01    0.742E+00
RMM:   4    -0.706817146279E+03    0.29359E+00   -0.11369E-01 14898   0.612E-01    0.341E+00
RMM:   5    -0.706774274110E+03    0.42872E-01   -0.41925E-02 15145   0.360E-01    0.199E+00
RMM:   6    -0.706760572753E+03    0.13701E-01   -0.16293E-02 15223   0.219E-01    0.135E+00
RMM:   7    -0.706754671985E+03    0.59008E-02   -0.11706E-02 15168   0.177E-01    0.713E-01
RMM:   8    -0.706754048847E+03    0.62314E-03   -0.67968E-03 15150   0.130E-01    0.667E-01
RMM:   9    -0.706753237641E+03    0.81121E-03   -0.29411E-03 14714   0.873E-02    0.616E-01
RMM:  10    -0.706752418494E+03    0.81915E-03   -0.14971E-03 14046   0.615E-02    0.414E-01
RMM:  11    -0.706751411925E+03    0.10066E-02   -0.46986E-04 12278   0.395E-02    0.232E-01
RMM:  12    -0.706750898421E+03    0.51350E-03   -0.17868E-04  9616   0.211E-02    0.188E-01
RMM:  13    -0.706750899324E+03   -0.90286E-06   -0.40417E-05  8476   0.125E-02
   9 F= -.70675090E+03 E0= -.70611032E+03  d E =-.221637E+00  mag=    -0.0068
 curvature:  -0.09 expect dE=-0.322E+00 dE for cont linesearch -0.192E-02
 trial: gam= 0.79325 g(F)=  0.363E+01 g(S)=  0.000E+00 ort = 0.321E+00 (trialstep = 0.177E+00)
 search vector abs. value=  0.712E+01
 bond charge predicted
       N       E                     dE             d eps       ncg     rms          rms(c)
DAV:   1    -0.706333626182E+03    0.41727E+00   -0.51461E+01 15120   0.998E+00    0.566E+00
RMM:   2    -0.712130854535E+03   -0.57972E+01   -0.38287E+00 15049   0.256E+00    0.261E+01
RMM:   3    -0.708632766637E+03    0.34981E+01   -0.84494E-01 14905   0.167E+00    0.171E+01
RMM:   4    -0.706681556212E+03    0.19512E+01   -0.33006E-01 14856   0.108E+00    0.613E+00
RMM:   5    -0.706344992437E+03    0.33656E+00   -0.26113E-01 15253   0.702E-01    0.322E+00
RMM:   6    -0.706306250570E+03    0.38742E-01   -0.88954E-02 16240   0.401E-01    0.233E+00
RMM:   7    -0.706291835468E+03    0.14415E-01   -0.31034E-02 16084   0.222E-01    0.169E+00
RMM:   8    -0.706288624106E+03    0.32114E-02   -0.10055E-02 15628   0.150E-01    0.150E+00
RMM:   9    -0.706275333199E+03    0.13291E-01   -0.80587E-03 15401   0.140E-01    0.850E-01
RMM:  10    -0.706267165292E+03    0.81679E-02   -0.36208E-03 14558   0.954E-02    0.622E-01
RMM:  11    -0.706264825529E+03    0.23398E-02   -0.13595E-03 14464   0.524E-02    0.466E-01
RMM:  12    -0.706267802408E+03   -0.29769E-02   -0.28271E-04 10502   0.274E-02    0.478E-01
RMM:  13    -0.706273029897E+03   -0.52275E-02   -0.10206E-03 13044   0.413E-02    0.440E-01
RMM:  14    -0.706277538860E+03   -0.45090E-02   -0.16868E-03 14310   0.495E-02    0.394E-01
RMM:  15    -0.706278792955E+03   -0.12541E-02   -0.21365E-03 15386   0.568E-02    0.359E-01
RMM:  16    -0.706278578078E+03    0.21488E-03   -0.53669E-04 11793   0.388E-02    0.199E-01
RMM:  17    -0.706278316044E+03    0.26203E-03   -0.27108E-04 10021   0.264E-02    0.263E-01
RMM:  18    -0.706278035447E+03    0.28060E-03   -0.90879E-05  8855   0.182E-02    0.204E-01
RMM:  19    -0.706278190811E+03   -0.15536E-03   -0.31095E-05  8213   0.104E-02    0.240E-01
RMM:  20    -0.706278564106E+03   -0.37329E-03   -0.23936E-04  9279   0.212E-02    0.191E-01
RMM:  21    -0.706278951879E+03   -0.38777E-03   -0.72276E-04 11469   0.327E-02    0.148E-01
RMM:  22    -0.706279230250E+03   -0.27837E-03   -0.90810E-05  8628   0.189E-02    0.139E-01
RMM:  23    -0.706279361976E+03   -0.13173E-03   -0.34173E-05  8155   0.114E-02    0.131E-01
RMM:  24    -0.706279423118E+03   -0.61142E-04   -0.51082E-05  8064   0.103E-02
  10 F= -.70627942E+03 E0= -.70564042E+03  d E =0.471476E+00  mag=     0.0051
 trial-energy change:    0.471476  1 .order    0.179984   -0.687714    1.047681
 step:   0.0394(harm=  0.0702)  dis= 0.00744  next Energy=  -706.824089 (dE=-0.732E-01)
 bond charge predicted
       N       E                     dE             d eps       ncg     rms          rms(c)
DAV:   1    -0.706849029283E+03   -0.56967E+00   -0.31148E+01 15136   0.775E+00    0.311E+00
RMM:   2    -0.709104613448E+03   -0.22556E+01   -0.11660E+00 14879   0.154E+00    0.189E+01
RMM:   3    -0.707688035779E+03    0.14166E+01   -0.30819E-01 14889   0.999E-01    0.117E+01
RMM:   4    -0.706874302026E+03    0.81373E+00   -0.11513E-01 14898   0.641E-01    0.252E+00
RMM:   5    -0.706859883614E+03    0.14418E-01   -0.39574E-02 15018   0.352E-01    0.225E+00
RMM:   6    -0.706849396938E+03    0.10487E-01   -0.14928E-02 15342   0.206E-01    0.176E+00
RMM:   7    -0.706838544742E+03    0.10852E-01   -0.66077E-03 14813   0.139E-01    0.124E+00
RMM:   8    -0.706838672449E+03   -0.12771E-03   -0.34295E-03 14646   0.970E-02    0.104E+00
RMM:   9    -0.706832992460E+03    0.56800E-02   -0.22346E-03 14573   0.798E-02    0.475E-01
RMM:  10    -0.706832258494E+03    0.73397E-03   -0.97778E-04 13699   0.554E-02    0.222E-01
RMM:  11    -0.706832372856E+03   -0.11436E-03   -0.41019E-04 11702   0.328E-02    0.224E-01
RMM:  12    -0.706832256007E+03    0.11685E-03   -0.10744E-04  9044   0.192E-02    0.170E-01
RMM:  13    -0.706832180585E+03    0.75421E-04   -0.45885E-05  8519   0.130E-02
  11 F= -.70683218E+03 E0= -.70619250E+03  d E =-.812813E-01  mag=     0.0079
 curvature:  -0.06 expect dE=-0.779E-01 dE for cont linesearch -0.133E-03
 trial: gam= 0.13850 g(F)=  0.132E+01 g(S)=  0.000E+00 ort = 0.127E+00 (trialstep = 0.150E+00)
 search vector abs. value=  0.149E+01
 bond charge predicted
       N       E                     dE             d eps       ncg     rms          rms(c)
DAV:   1    -0.706759453792E+03    0.72802E-01   -0.80606E+00 15376   0.441E+00    0.743E-01
RMM:   2    -0.706899294425E+03   -0.13984E+00   -0.16782E-01 14852   0.776E-01    0.511E+00
RMM:   3    -0.706781852795E+03    0.11744E+00   -0.32797E-02 15047   0.350E-01    0.134E+00
RMM:   4    -0.706776664569E+03    0.51882E-02   -0.91675E-03 15524   0.187E-01    0.731E-01
RMM:   5    -0.706777226412E+03   -0.56184E-03   -0.30138E-03 15586   0.926E-02    0.861E-01
RMM:   6    -0.706779440165E+03   -0.22138E-02   -0.21038E-03 14585   0.758E-02    0.116E+00
RMM:   7    -0.706771492754E+03    0.79474E-02   -0.27389E-03 15523   0.838E-02    0.500E-01
RMM:   8    -0.706768855891E+03    0.26369E-02   -0.82244E-04 13547   0.470E-02    0.341E-01
RMM:   9    -0.706767594526E+03    0.12614E-02   -0.32190E-04 10661   0.287E-02    0.344E-01
RMM:  10    -0.706770550008E+03   -0.29555E-02   -0.35738E-04 10584   0.284E-02    0.463E-01
RMM:  11    -0.706774429096E+03   -0.38791E-02   -0.23724E-03 15130   0.602E-02    0.267E-01
RMM:  12    -0.706775316045E+03   -0.88695E-03   -0.85509E-04 12519   0.385E-02    0.167E-01
RMM:  13    -0.706775522002E+03   -0.20596E-03   -0.12204E-04  8968   0.221E-02    0.145E-01
RMM:  14    -0.706775649091E+03   -0.12709E-03   -0.49114E-05  8576   0.146E-02    0.116E-01
RMM:  15    -0.706775762080E+03   -0.11299E-03   -0.10123E-04  8662   0.153E-02    0.954E-02
RMM:  16    -0.706775733579E+03    0.28501E-04   -0.94582E-05  8499   0.148E-02
  12 F= -.70677573E+03 E0= -.70613617E+03  d E =0.564470E-01  mag=     0.0023
 trial-energy change:    0.056447  1 .order    0.025710   -0.200057    0.251477
 step:   0.0524(harm=  0.0663)  dis= 0.00282  next Energy=  -706.865884 (dE=-0.337E-01)
 bond charge predicted
       N       E                     dE             d eps       ncg     rms          rms(c)
DAV:   1    -0.706861547642E+03   -0.85786E-01   -0.33988E+00 15424   0.286E+00    0.440E-01
RMM:   2    -0.706880156650E+03   -0.18609E-01   -0.68387E-02 14848   0.506E-01    0.177E+00
RMM:   3    -0.706872303815E+03    0.78528E-02   -0.13267E-02 15699   0.208E-01    0.851E-01
RMM:   4    -0.706870445039E+03    0.18588E-02   -0.32868E-03 15541   0.106E-01    0.722E-01
RMM:   5    -0.706870377570E+03    0.67469E-04   -0.10101E-03 14048   0.577E-02    0.722E-01
RMM:   6    -0.706868971376E+03    0.14062E-02   -0.92790E-04 13842   0.515E-02    0.513E-01
RMM:   7    -0.706868684412E+03    0.28696E-03   -0.10735E-03 14209   0.520E-02    0.346E-01
RMM:   8    -0.706868481380E+03    0.20303E-03   -0.38753E-04 12056   0.331E-02    0.247E-01
RMM:   9    -0.706868143415E+03    0.33797E-03   -0.16997E-04  9241   0.228E-02    0.157E-01
RMM:  10    -0.706868043692E+03    0.99723E-04   -0.51288E-05  8384   0.145E-02
  13 F= -.70686804E+03 E0= -.70622832E+03  d E =-.358631E-01  mag=     0.0018
 curvature:  -0.04 expect dE=-0.111E-01 dE for cont linesearch -0.189E-04
 trial: gam= 0.17140 g(F)=  0.310E+00 g(S)=  0.000E+00 ort = 0.280E-01 (trialstep = 0.130E+00)
 search vector abs. value=  0.364E+00
 bond charge predicted
       N       E                     dE             d eps       ncg     rms          rms(c)
DAV:   1    -0.706872229620E+03   -0.40862E-02   -0.12832E+00 15360   0.159E+00    0.471E-01
RMM:   2    -0.706880314460E+03   -0.80848E-02   -0.27344E-02 14848   0.320E-01    0.100E+00
RMM:   3    -0.706896240298E+03   -0.15926E-01   -0.76092E-03 14993   0.150E-01    0.210E+00
RMM:   4    -0.706885180470E+03    0.11060E-01   -0.23181E-03 15376   0.921E-02    0.153E+00
RMM:   5    -0.706882080255E+03    0.31002E-02   -0.95383E-04 13768   0.533E-02    0.132E+00
RMM:   6    -0.706874712169E+03    0.73681E-02   -0.10371E-03 14085   0.508E-02    0.692E-01
RMM:   7    -0.706873768601E+03    0.94357E-03   -0.65086E-04 12657   0.400E-02    0.586E-01
RMM:   8    -0.706873202382E+03    0.56622E-03   -0.29782E-04 10253   0.281E-02    0.516E-01
RMM:   9    -0.706873229531E+03   -0.27149E-04   -0.61423E-05  8512   0.161E-02
  14 F= -.70687323E+03 E0= -.70623657E+03  d E =-.518584E-02  mag=     0.0011
 trial-energy change:   -0.005186  1 .order   -0.005731   -0.040991    0.029528
 step:   0.0742(harm=  0.0757)  dis= 0.00243  next Energy=  -706.879623 (dE=-0.116E-01)
 bond charge predicted
       N       E                     dE             d eps       ncg     rms          rms(c)
DAV:   1    -0.706878814414E+03   -0.56120E-02   -0.23780E-01 15568   0.687E-01    0.482E-01
RMM:   2    -0.707098355969E+03   -0.21954E+00   -0.19353E-02 14883   0.210E-01    0.615E+00
RMM:   3    -0.706874134951E+03    0.22422E+00   -0.90004E-03 14848   0.212E-01    0.563E-01
RMM:   4    -0.706875669320E+03   -0.15344E-02   -0.21508E-03 14084   0.920E-02    0.353E-01
RMM:   5    -0.706875034174E+03    0.63515E-03   -0.82555E-04 12709   0.494E-02    0.368E-01
RMM:   6    -0.706877339438E+03   -0.23053E-02   -0.12179E-03 13336   0.499E-02    0.404E-01
RMM:   7    -0.706879120234E+03   -0.17808E-02   -0.38040E-03 16093   0.760E-02    0.426E-01
RMM:   8    -0.706880318593E+03   -0.11984E-02   -0.13914E-03 14283   0.500E-02    0.372E-01
RMM:   9    -0.706880470878E+03   -0.15228E-03   -0.41380E-04 10913   0.342E-02    0.238E-01
RMM:  10    -0.706880433426E+03    0.37451E-04   -0.15793E-04  9098   0.232E-02
  15 F= -.70688043E+03 E0= -.70624064E+03  d E =-.123897E-01  mag=     0.0014
 curvature:  -0.04 expect dE=-0.887E-02 dE for cont linesearch -0.985E-05
 trial: gam= 0.62081 g(F)=  0.203E+00 g(S)=  0.000E+00 ort = 0.906E-02 (trialstep = 0.119E+00)
 search vector abs. value=  0.355E+00
 bond charge predicted
       N       E                     dE             d eps       ncg     rms          rms(c)
DAV:   1    -0.706896302468E+03   -0.15832E-01   -0.83543E-01 15680   0.113E+00    0.347E-01
RMM:   2    -0.706953866410E+03   -0.57564E-01   -0.21121E-02 14870   0.268E-01    0.309E+00
RMM:   3    -0.706898902648E+03    0.54964E-01   -0.46569E-03 15010   0.140E-01    0.800E-01
RMM:   4    -0.706901060548E+03   -0.21579E-02   -0.14618E-03 14479   0.685E-02    0.946E-01
RMM:   5    -0.706899236317E+03    0.18242E-02   -0.11854E-03 13730   0.515E-02    0.700E-01
RMM:   6    -0.706897749481E+03    0.14868E-02   -0.52993E-04 12894   0.418E-02    0.515E-01
RMM:   7    -0.706897392939E+03    0.35654E-03   -0.49065E-04 12224   0.360E-02    0.362E-01
RMM:   8    -0.706897074328E+03    0.31861E-03   -0.20524E-04  9647   0.233E-02    0.262E-01
RMM:   9    -0.706896714382E+03    0.35995E-03   -0.10825E-04  8649   0.187E-02    0.188E-01
RMM:  10    -0.706896675998E+03    0.38384E-04   -0.33207E-05  8128   0.118E-02
  16 F= -.70689668E+03 E0= -.70625777E+03  d E =-.162426E-01  mag=     0.0004
 trial-energy change:   -0.016243  1 .order   -0.016404   -0.024863   -0.007944
 step:   0.1748(harm=  0.1748)  dis= 0.00557  next Energy=  -706.898703 (dE=-0.183E-01)
 bond charge predicted
       N       E                     dE             d eps       ncg     rms          rms(c)
DAV:   1    -0.706898224710E+03   -0.15103E-02   -0.18456E-01 15568   0.532E-01    0.210E-01
RMM:   2    -0.706902959574E+03   -0.47349E-02   -0.39315E-03 14758   0.122E-01    0.872E-01
RMM:   3    -0.706900718956E+03    0.22406E-02   -0.13393E-03 14209   0.645E-02    0.707E-01
RMM:   4    -0.706898963915E+03    0.17550E-02   -0.38829E-04 11301   0.382E-02    0.409E-01
RMM:   5    -0.706898779280E+03    0.18463E-03   -0.20299E-04  9482   0.252E-02    0.426E-01
RMM:   6    -0.706897923886E+03    0.85539E-03   -0.21791E-04  9319   0.234E-02    0.297E-01
RMM:   7    -0.706898149416E+03   -0.22553E-03   -0.44081E-05  8150   0.137E-02    0.330E-01
RMM:   8    -0.706898327630E+03   -0.17821E-03   -0.74350E-05  8213   0.136E-02    0.312E-01
RMM:   9    -0.706898658579E+03   -0.33095E-03   -0.10581E-04  8449   0.147E-02    0.293E-01
RMM:  10    -0.706898695623E+03   -0.37044E-04   -0.30367E-04  9588   0.232E-02
  17 F= -.70689870E+03 E0= -.70626005E+03  d E =-.182622E-01  mag=     0.0020
 curvature:  -0.15 expect dE=-0.495E-01 dE for cont linesearch -0.271E-04
 trial: gam= 1.73781 g(F)=  0.334E+00 g(S)=  0.000E+00 ort =-0.806E-02 (trialstep = 0.335E-01)
 search vector abs. value=  0.138E+01
 bond charge predicted
       N       E                     dE             d eps       ncg     rms          rms(c)
DAV:   1    -0.706907034221E+03   -0.83756E-02   -0.21264E-01 15376   0.576E-01    0.298E-01
RMM:   2    -0.706978225803E+03   -0.71192E-01   -0.78071E-03 14880   0.142E-01    0.352E+00
RMM:   3    -0.706905982411E+03    0.72243E-01   -0.35302E-03 14720   0.125E-01    0.492E-01
RMM:   4    -0.706907003581E+03   -0.10212E-02   -0.10056E-03 13721   0.648E-02    0.177E-01
RMM:   5    -0.706907195750E+03   -0.19217E-03   -0.32648E-04 11024   0.351E-02    0.205E-01
RMM:   6    -0.706907080597E+03    0.11515E-03   -0.12740E-04  8811   0.228E-02    0.144E-01
RMM:   7    -0.706907150393E+03   -0.69797E-04   -0.11715E-04  8688   0.182E-02    0.185E-01
RMM:   8    -0.706907060968E+03    0.89425E-04   -0.98369E-05  8382   0.182E-02
  18 F= -.70690706E+03 E0= -.70626788E+03  d E =-.836534E-02  mag=     0.0012
 trial-energy change:   -0.008365  1 .order   -0.007712   -0.010718   -0.004706
 step:   0.0472(harm=  0.0598)  dis= 0.00349  next Energy=  -706.908065 (dE=-0.937E-02)
 bond charge predicted
       N       E                     dE             d eps       ncg     rms          rms(c)
DAV:   1    -0.706908173901E+03   -0.10235E-02   -0.35465E-02 15472   0.235E-01    0.119E-01
RMM:   2    -0.706913447097E+03   -0.52732E-02   -0.95695E-04 13939   0.548E-02    0.996E-01
RMM:   3    -0.706908163809E+03    0.52833E-02   -0.40591E-04 11556   0.414E-02    0.233E-01
RMM:   4    -0.706908124180E+03    0.39630E-04   -0.12599E-04  8649   0.244E-02    0.984E-02
RMM:   5    -0.706908025975E+03    0.98205E-04   -0.51375E-05  8252   0.136E-02    0.113E-01
RMM:   6    -0.706907983035E+03    0.42940E-04   -0.14641E-05  7284   0.718E-03    0.106E-01
RMM:   7    -0.706908090687E+03   -0.10765E-03   -0.17661E-05  7433   0.702E-03    0.120E-01
RMM:   8    -0.706908326324E+03   -0.23564E-03   -0.81872E-05  8105   0.128E-02    0.177E-01
RMM:   9    -0.706908440546E+03   -0.11422E-03   -0.10265E-04  8505   0.141E-02    0.121E-01
RMM:  10    -0.706908496198E+03   -0.55652E-04   -0.12232E-04  8694   0.160E-02
  19 F= -.70690850E+03 E0= -.70626870E+03  d E =-.980057E-02  mag=     0.0019
 curvature:  -0.10 expect dE=-0.142E-01 dE for cont linesearch -0.136E-03
 ZBRENT: extrapolating
 opt :   0.0533  next Energy=  -706.908630 (dE=-0.993E-02)
 bond charge predicted
       N       E                     dE             d eps       ncg     rms          rms(c)
DAV:   1    -0.706908663429E+03   -0.22288E-03   -0.76983E-03 15616   0.116E-01    0.105E-01
RMM:   2    -0.706921069805E+03   -0.12406E-01   -0.98385E-04 13816   0.436E-02    0.146E+00
RMM:   3    -0.706908229508E+03    0.12840E-01   -0.49340E-04 12201   0.495E-02    0.160E-01
RMM:   4    -0.706908616544E+03   -0.38704E-03   -0.15091E-04  8556   0.244E-02    0.145E-01
RMM:   5    -0.706908630681E+03   -0.14136E-04   -0.57543E-05  8062   0.152E-02    0.878E-02
RMM:   6    -0.706908620146E+03    0.10535E-04   -0.18851E-05  7734   0.954E-03    0.338E-02
RMM:   7    -0.706908624450E+03   -0.43041E-05   -0.66502E-06  6550   0.509E-03    0.445E-02
RMM:   8    -0.706908591880E+03    0.32570E-04   -0.76559E-06  6327   0.473E-03
  20 F= -.70690859E+03 E0= -.70626879E+03  d E =-.989626E-02  mag=     0.0028
 curvature:  -0.10 expect dE=-0.138E-01 dE for cont linesearch -0.880E-05
 trial: gam= 0.00328 g(F)=  0.142E+00 g(S)=  0.000E+00 ort =-0.112E-01 (trialstep = 0.375E-01)
 search vector abs. value=  0.142E+00
 bond charge predicted
       N       E                     dE             d eps       ncg     rms          rms(c)
DAV:   1    -0.706912656723E+03   -0.40323E-02   -0.43265E-02 15600   0.305E-01    0.722E-02
RMM:   2    -0.706913000902E+03   -0.34418E-03   -0.11050E-03 13504   0.579E-02    0.284E-01
RMM:   3    -0.706912752125E+03    0.24878E-03   -0.19161E-04  9012   0.261E-02    0.162E-01
RMM:   4    -0.706912740142E+03    0.11983E-04   -0.65035E-05  8165   0.170E-02    0.169E-01
RMM:   5    -0.706912566611E+03    0.17353E-03   -0.32320E-05  8101   0.110E-02    0.932E-02
RMM:   6    -0.706912491614E+03    0.74997E-04   -0.12979E-05  7264   0.713E-03    0.769E-02
RMM:   7    -0.706912489155E+03    0.24592E-05   -0.33144E-06  4893   0.392E-03    0.754E-02
RMM:   8    -0.706912497207E+03   -0.80524E-05   -0.74456E-07  3043   0.290E-03
  21 F= -.70691250E+03 E0= -.70627253E+03  d E =-.390533E-02  mag=     0.0039
 trial-energy change:   -0.003905  1 .order   -0.004121   -0.005331   -0.002912
 step:   0.0826(harm=  0.0826)  dis= 0.00092  next Energy=  -706.914466 (dE=-0.587E-02)
 bond charge predicted
       N       E                     dE             d eps       ncg     rms          rms(c)
DAV:   1    -0.706914371290E+03   -0.18821E-02   -0.62783E-02 15552   0.367E-01    0.997E-02
RMM:   2    -0.706914789495E+03   -0.41821E-03   -0.14747E-03 14128   0.689E-02    0.371E-01
RMM:   3    -0.706914256364E+03    0.53313E-03   -0.27159E-04  9957   0.317E-02    0.133E-01
RMM:   4    -0.706914502090E+03   -0.24573E-03   -0.96884E-05  8356   0.192E-02    0.270E-01
RMM:   5    -0.706914032887E+03    0.46920E-03   -0.47532E-05  8194   0.136E-02    0.108E-01
RMM:   6    -0.706913770767E+03    0.26212E-03   -0.41480E-05  7832   0.101E-02    0.109E-01
RMM:   7    -0.706913992650E+03   -0.22188E-03   -0.14996E-05  7027   0.722E-03    0.125E-01
RMM:   8    -0.706914055226E+03   -0.62575E-04   -0.41769E-06  5847   0.428E-03
  22 F= -.70691406E+03 E0= -.70627441E+03  d E =-.546335E-02  mag=     0.0037
 curvature:  -0.04 expect dE=-0.316E-02 dE for cont linesearch -0.374E-05
 trial: gam= 0.51202 g(F)=  0.764E-01 g(S)=  0.000E+00 ort = 0.359E-02 (trialstep = 0.465E-01)
 search vector abs. value=  0.117E+00
 bond charge predicted
       N       E                     dE             d eps       ncg     rms          rms(c)
DAV:   1    -0.706917560262E+03   -0.35676E-02   -0.39866E-02 15376   0.242E-01    0.124E-01
RMM:   2    -0.706920433795E+03   -0.28735E-02   -0.10091E-03 14281   0.577E-02    0.659E-01
RMM:   3    -0.706917650482E+03    0.27833E-02   -0.29837E-04 10654   0.336E-02    0.290E-01
RMM:   4    -0.706917393569E+03    0.25691E-03   -0.17802E-04  9092   0.249E-02    0.216E-01
RMM:   5    -0.706917046827E+03    0.34674E-03   -0.63301E-05  8258   0.168E-02    0.114E-01
RMM:   6    -0.706916812946E+03    0.23388E-03   -0.35459E-05  7840   0.936E-03    0.114E-01
RMM:   7    -0.706916821668E+03   -0.87224E-05   -0.77927E-06  6530   0.588E-03    0.112E-01
RMM:   8    -0.706916822155E+03   -0.48741E-06   -0.17005E-06  3571   0.315E-03
  23 F= -.70691682E+03 E0= -.70627718E+03  d E =-.276693E-02  mag=     0.0088
 trial-energy change:   -0.002767  1 .order   -0.003136   -0.003641   -0.002630
 step:   0.1676(harm=  0.1676)  dis= 0.00285  next Energy=  -706.920614 (dE=-0.656E-02)
 bond charge predicted
       N       E                     dE             d eps       ncg     rms          rms(c)
DAV:   1    -0.706919377664E+03   -0.25560E-02   -0.26821E-01 15584   0.623E-01    0.226E-01
RMM:   2    -0.706919385311E+03   -0.76470E-05   -0.55609E-03 14853   0.140E-01    0.361E-01
RMM:   3    -0.706919943071E+03   -0.55776E-03   -0.12300E-03 14561   0.601E-02    0.541E-01
RMM:   4    -0.706918758211E+03    0.11849E-02   -0.42158E-04 12101   0.354E-02    0.393E-01
RMM:   5    -0.706917296459E+03    0.14618E-02   -0.24837E-04  9743   0.286E-02    0.246E-01
RMM:   6    -0.706917610878E+03   -0.31442E-03   -0.55452E-05  8497   0.151E-02    0.272E-01
RMM:   7    -0.706917319109E+03    0.29177E-03   -0.26836E-05  8010   0.886E-03    0.269E-01
RMM:   8    -0.706917502521E+03   -0.18341E-03   -0.11094E-05  7200   0.672E-03    0.288E-01
RMM:   9    -0.706918026469E+03   -0.52395E-03   -0.33212E-05  8062   0.864E-03    0.335E-01
RMM:  10    -0.706920259676E+03   -0.22332E-02   -0.30994E-04  9868   0.241E-02    0.357E-01
RMM:  11    -0.706920429910E+03   -0.17023E-03   -0.72368E-04 11913   0.348E-02    0.289E-01
RMM:  12    -0.706919350612E+03    0.10793E-02   -0.59415E-04 11431   0.318E-02    0.399E-01
RMM:  13    -0.706919348980E+03    0.16314E-05   -0.12780E-04  8961   0.204E-02
  24 F= -.70691935E+03 E0= -.70627961E+03  d E =-.529375E-02  mag=    -0.0104
 curvature:  -0.13 expect dE=-0.100E-01 dE for cont linesearch -0.298E-04
 trial: gam= 1.12619 g(F)=  0.797E-01 g(S)=  0.000E+00 ort =-0.527E-02 (trialstep = 0.383E-01)
 search vector abs. value=  0.217E+00
 bond charge predicted
       N       E                     dE             d eps       ncg     rms          rms(c)
DAV:   1    -0.706921843904E+03   -0.24933E-02   -0.45070E-02 15648   0.275E-01    0.371E-01
RMM:   2    -0.706938858748E+03   -0.17015E-01   -0.20691E-03 14733   0.815E-02    0.158E+00
RMM:   3    -0.706942940386E+03   -0.40816E-02   -0.29447E-03 14741   0.931E-02    0.197E+00
RMM:   4    -0.706930566085E+03    0.12374E-01   -0.10320E-03 13451   0.754E-02    0.123E+00
RMM:   5    -0.706922382761E+03    0.81833E-02   -0.38629E-04 11251   0.389E-02    0.585E-01
RMM:   6    -0.706920897852E+03    0.14849E-02   -0.30111E-04 10054   0.273E-02    0.308E-01
RMM:   7    -0.706920347856E+03    0.55000E-03   -0.13432E-04  8927   0.211E-02    0.214E-01
RMM:   8    -0.706920927628E+03   -0.57977E-03   -0.67604E-05  8251   0.145E-02    0.241E-01
RMM:   9    -0.706921163314E+03   -0.23569E-03   -0.35582E-05  7887   0.106E-02    0.172E-01
RMM:  10    -0.706922509278E+03   -0.13460E-02   -0.52957E-04 10595   0.275E-02    0.131E-01
RMM:  11    -0.706922757270E+03   -0.24799E-03   -0.24748E-04  9561   0.224E-02    0.971E-02
RMM:  12    -0.706922858474E+03   -0.10120E-03   -0.55848E-05  8460   0.155E-02    0.751E-02
RMM:  13    -0.706922917011E+03   -0.58537E-04   -0.16480E-05  7636   0.798E-03
  25 F= -.70692292E+03 E0= -.70628305E+03  d E =-.356803E-02  mag=    -0.0046
 trial-energy change:   -0.003568  1 .order   -0.002233   -0.002825   -0.001641
 step:   0.0914(harm=  0.0914)  dis= 0.00274  next Energy=  -706.922718 (dE=-0.337E-02)
 bond charge predicted
       N       E                     dE             d eps       ncg     rms          rms(c)
DAV:   1    -0.706923934787E+03   -0.10763E-02   -0.86321E-02 15152   0.379E-01    0.115E-01
RMM:   2    -0.706924634530E+03   -0.69974E-03   -0.17157E-03 14700   0.809E-02    0.311E-01
RMM:   3    -0.706925181221E+03   -0.54669E-03   -0.49615E-04 12348   0.379E-02    0.446E-01
RMM:   4    -0.706924075547E+03    0.11057E-02   -0.13246E-04  8707   0.247E-02    0.109E-01
RMM:   5    -0.706924148107E+03   -0.72560E-04   -0.59965E-05  8169   0.160E-02    0.151E-01
RMM:   6    -0.706924108955E+03    0.39152E-04   -0.49197E-05  8073   0.123E-02    0.133E-01
RMM:   7    -0.706924020514E+03    0.88441E-04   -0.39937E-05  8097   0.115E-02    0.110E-01
RMM:   8    -0.706923945750E+03    0.74764E-04   -0.22674E-05  7649   0.828E-03
  26 F= -.70692395E+03 E0= -.70628413E+03  d E =-.459677E-02  mag=    -0.0027
 curvature:  -0.13 expect dE=-0.982E-02 dE for cont linesearch -0.689E-05
 trial: gam= 0.73076 g(F)=  0.731E-01 g(S)=  0.000E+00 ort =-0.334E-02 (trialstep = 0.489E-01)
 search vector abs. value=  0.184E+00
 bond charge predicted
       N       E                     dE             d eps       ncg     rms          rms(c)
DAV:   1    -0.706926939971E+03   -0.29195E-02   -0.56392E-02 15536   0.278E-01    0.122E-01
RMM:   2    -0.706931446784E+03   -0.45068E-02   -0.11486E-03 14407   0.603E-02    0.849E-01
RMM:   3    -0.706926923875E+03    0.45229E-02   -0.39917E-04 11629   0.398E-02    0.279E-01
RMM:   4    -0.706926872894E+03    0.50981E-04   -0.12425E-04  8635   0.235E-02    0.178E-01
RMM:   5    -0.706926725206E+03    0.14769E-03   -0.36768E-05  8120   0.127E-02    0.156E-01
RMM:   6    -0.706926698915E+03    0.26291E-04   -0.12506E-05  7063   0.625E-03    0.156E-01
RMM:   7    -0.706926966477E+03   -0.26756E-03   -0.32467E-05  7745   0.921E-03    0.228E-01
RMM:   8    -0.706927223904E+03   -0.25743E-03   -0.50896E-05  8018   0.113E-02    0.258E-01
RMM:   9    -0.706927201601E+03    0.22303E-04   -0.94398E-05  8355   0.133E-02
  27 F= -.70692720E+03 E0= -.70628777E+03  d E =-.325585E-02  mag=    -0.0043
 trial-energy change:   -0.003256  1 .order   -0.003013   -0.003460   -0.002567
 step:   0.1895(harm=  0.1895)  dis= 0.00555  next Energy=  -706.930646 (dE=-0.670E-02)
 bond charge predicted
       N       E                     dE             d eps       ncg     rms          rms(c)
DAV:   1    -0.706930087840E+03   -0.28639E-02   -0.46670E-01 15504   0.799E-01    0.234E-01
RMM:   2    -0.706936060878E+03   -0.59730E-02   -0.70561E-03 14815   0.158E-01    0.106E+00
RMM:   3    -0.706931310209E+03    0.47507E-02   -0.17048E-03 14917   0.739E-02    0.411E-01
RMM:   4    -0.706931629499E+03   -0.31929E-03   -0.56693E-04 12903   0.415E-02    0.447E-01
RMM:   5    -0.706930933392E+03    0.69611E-03   -0.18431E-04  9367   0.264E-02    0.276E-01
RMM:   6    -0.706931030066E+03   -0.96674E-04   -0.35603E-04 10851   0.301E-02    0.319E-01
RMM:   7    -0.706930974369E+03    0.55697E-04   -0.38445E-04 11050   0.303E-02    0.246E-01
RMM:   8    -0.706930574022E+03    0.40035E-03   -0.10828E-04  8633   0.198E-02    0.114E-01
RMM:   9    -0.706930526206E+03    0.47816E-04   -0.42850E-05  8231   0.128E-02
  28 F= -.70693053E+03 E0= -.70628966E+03  d E =-.658046E-02  mag=    -0.0034
 curvature:  -0.25 expect dE=-0.268E-01 dE for cont linesearch -0.136E-03
 trial: gam= 1.21885 g(F)=  0.109E+00 g(S)=  0.000E+00 ort =-0.101E-01 (trialstep = 0.397E-01)
 search vector abs. value=  0.357E+00
 bond charge predicted
       N       E                     dE             d eps       ncg     rms          rms(c)
DAV:   1    -0.706933661130E+03   -0.30871E-02   -0.92501E-02 15344   0.339E-01    0.122E-01
RMM:   2    -0.706934299021E+03   -0.63789E-03   -0.15587E-03 14271   0.741E-02    0.340E-01
RMM:   3    -0.706934036150E+03    0.26287E-03   -0.42563E-04 11613   0.350E-02    0.334E-01
RMM:   4    -0.706933845908E+03    0.19024E-03   -0.10622E-04  8770   0.200E-02    0.281E-01
RMM:   5    -0.706933786233E+03    0.59675E-04   -0.28192E-05  7995   0.113E-02    0.281E-01
RMM:   6    -0.706933802529E+03   -0.16296E-04   -0.10770E-05  6977   0.606E-03    0.277E-01
RMM:   7    -0.706933817819E+03   -0.15290E-04   -0.89137E-05  8156   0.133E-02    0.215E-01
RMM:   8    -0.706933984645E+03   -0.16683E-03   -0.42735E-05  7882   0.108E-02    0.214E-01
RMM:   9    -0.706934339781E+03   -0.35514E-03   -0.85088E-05  8423   0.128E-02    0.315E-01
RMM:  10    -0.706934488232E+03   -0.14845E-03   -0.51801E-05  8169   0.120E-02    0.341E-01
RMM:  11    -0.706934486908E+03    0.13244E-05   -0.10309E-04  8365   0.147E-02
  29 F= -.70693449E+03 E0= -.70629538E+03  d E =-.396070E-02  mag=    -0.0036
 trial-energy change:   -0.003961  1 .order   -0.003232   -0.003825   -0.002639
 step:   0.1279(harm=  0.1279)  dis= 0.00290  next Energy=  -706.936697 (dE=-0.617E-02)
 bond charge predicted
       N       E                     dE             d eps       ncg     rms          rms(c)
DAV:   1    -0.706935637640E+03   -0.11494E-02   -0.46125E-01 15344   0.760E-01    0.309E-01
RMM:   2    -0.706959797819E+03   -0.24160E-01   -0.87142E-03 14855   0.173E-01    0.188E+00
RMM:   3    -0.706943918811E+03    0.15879E-01   -0.33540E-03 14625   0.108E-01    0.127E+00
RMM:   4    -0.706939219906E+03    0.46989E-02   -0.10509E-03 13761   0.659E-02    0.733E-01
RMM:   5    -0.706936759383E+03    0.24605E-02   -0.34388E-04 11078   0.340E-02    0.461E-01
RMM:   6    -0.706936317549E+03    0.44183E-03   -0.27745E-04 10202   0.295E-02    0.270E-01
RMM:   7    -0.706936512096E+03   -0.19455E-03   -0.23178E-04  9728   0.271E-02    0.276E-01
RMM:   8    -0.706936448383E+03    0.63713E-04   -0.98496E-05  8564   0.188E-02
  30 F= -.70693645E+03 E0= -.70629639E+03  d E =-.592218E-02  mag=    -0.0038
 curvature:  -0.24 expect dE=-0.149E-01 dE for cont linesearch -0.631E-03
 ZBRENT: interpolating
 opt :   0.1000  next Energy=  -706.936880 (dE=-0.635E-02)
 bond charge predicted
       N       E                     dE             d eps       ncg     rms          rms(c)
DAV:   1    -0.706936731860E+03   -0.21976E-03   -0.46247E-02 15472   0.243E-01    0.273E-01
RMM:   2    -0.707031060919E+03   -0.94329E-01   -0.70846E-03 14895   0.110E-01    0.406E+00
RMM:   3    -0.706934089097E+03    0.96972E-01   -0.39935E-03 14824   0.138E-01    0.360E-01
RMM:   4    -0.706936097229E+03   -0.20081E-02   -0.87430E-04 13288   0.604E-02    0.141E-01
RMM:   5    -0.706936174297E+03   -0.77069E-04   -0.26679E-04  9990   0.309E-02    0.126E-01
RMM:   6    -0.706936032394E+03    0.14190E-03   -0.70094E-05  8411   0.153E-02    0.114E-01
RMM:   7    -0.706936216351E+03   -0.18396E-03   -0.57173E-05  7848   0.119E-02    0.127E-01
RMM:   8    -0.706936392813E+03   -0.17646E-03   -0.10004E-04  8336   0.141E-02    0.148E-01
RMM:   9    -0.706936435812E+03   -0.42999E-04   -0.11174E-04  8410   0.150E-02
  31 F= -.70693644E+03 E0= -.70629360E+03  d E =-.590961E-02  mag=    -0.0025
 curvature:  -0.16 expect dE=-0.791E-02 dE for cont linesearch -0.274E-04
 trial: gam= 0.11874 g(F)=  0.488E-01 g(S)=  0.000E+00 ort = 0.777E-02 (trialstep = 0.517E-01)
 search vector abs. value=  0.557E-01
 bond charge predicted
       N       E                     dE             d eps       ncg     rms          rms(c)
DAV:   1    -0.706938301758E+03   -0.19089E-02   -0.25953E-02 15408   0.226E-01    0.977E-02
RMM:   2    -0.706939068678E+03   -0.76692E-03   -0.87195E-04 14145   0.545E-02    0.357E-01
RMM:   3    -0.706938608227E+03    0.46045E-03   -0.25522E-04  9986   0.317E-02    0.222E-01
RMM:   4    -0.706938547279E+03    0.60949E-04   -0.84969E-05  8123   0.186E-02    0.192E-01
RMM:   5    -0.706938366866E+03    0.18041E-03   -0.36299E-05  7957   0.132E-02    0.574E-02
RMM:   6    -0.706938365974E+03    0.89155E-06   -0.92551E-06  6880   0.657E-03    0.364E-02
RMM:   7    -0.706938359816E+03    0.61581E-05   -0.92620E-06  7327   0.520E-03    0.602E-02
RMM:   8    -0.706938336730E+03    0.23086E-04   -0.38461E-06  6055   0.435E-03
  32 F= -.70693834E+03 E0= -.70629649E+03  d E =-.190092E-02  mag=    -0.0015
 trial-energy change:   -0.001901  1 .order   -0.001965   -0.002571   -0.001359
 step:   0.1097(harm=  0.1097)  dis= 0.00081  next Energy=  -706.939163 (dE=-0.273E-02)
 bond charge predicted
       N       E                     dE             d eps       ncg     rms          rms(c)
DAV:   1    -0.706938992886E+03   -0.63307E-03   -0.32028E-02 15472   0.248E-01    0.615E-02
RMM:   2    -0.706939119823E+03   -0.12694E-03   -0.62600E-04 13317   0.494E-02    0.177E-01
RMM:   3    -0.706939031673E+03    0.88150E-04   -0.13370E-04  8472   0.213E-02    0.122E-01
RMM:   4    -0.706939011511E+03    0.20162E-04   -0.45457E-05  8093   0.143E-02    0.129E-01
RMM:   5    -0.706938959459E+03    0.52052E-04   -0.15432E-05  7584   0.802E-03    0.991E-02
RMM:   6    -0.706938862902E+03    0.96557E-04   -0.17537E-05  7378   0.651E-03    0.871E-02
RMM:   7    -0.706938845464E+03    0.17438E-04   -0.44052E-06  5490   0.455E-03    0.787E-02
RMM:   8    -0.706938922720E+03   -0.77255E-04   -0.78404E-06  6779   0.482E-03
  33 F= -.70693892E+03 E0= -.70629722E+03  d E =-.248691E-02  mag=    -0.0008
 curvature:  -0.06 expect dE=-0.195E-02 dE for cont linesearch -0.865E-06
 trial: gam= 0.65735 g(F)=  0.317E-01 g(S)=  0.000E+00 ort =-0.886E-03 (trialstep = 0.633E-01)
 search vector abs. value=  0.546E-01
 bond charge predicted
       N       E                     dE             d eps       ncg     rms          rms(c)
DAV:   1    -0.706940161196E+03   -0.13157E-02   -0.33213E-02 15616   0.246E-01    0.114E-01
RMM:   2    -0.706941346163E+03   -0.11850E-02   -0.93490E-04 14342   0.568E-02    0.530E-01
RMM:   3    -0.706940402592E+03    0.94357E-03   -0.26195E-04  9796   0.324E-02    0.268E-01
RMM:   4    -0.706940228105E+03    0.17449E-03   -0.11326E-04  8292   0.215E-02    0.236E-01
RMM:   5    -0.706939978632E+03    0.24947E-03   -0.50889E-05  8149   0.146E-02    0.140E-01
RMM:   6    -0.706939980851E+03   -0.22185E-05   -0.12198E-05  7208   0.714E-03    0.154E-01
RMM:   7    -0.706939928852E+03    0.51999E-04   -0.14130E-05  6965   0.598E-03    0.106E-01
RMM:   8    -0.706939975459E+03   -0.46607E-04   -0.85163E-06  6969   0.638E-03
  34 F= -.70693998E+03 E0= -.70629779E+03  d E =-.105274E-02  mag=    -0.0003
 trial-energy change:   -0.001053  1 .order   -0.001274   -0.001972   -0.000576
 step:   0.0895(harm=  0.0895)  dis= 0.00056  next Energy=  -706.940316 (dE=-0.139E-02)
 bond charge predicted
       N       E                     dE             d eps       ncg     rms          rms(c)
DAV:   1    -0.706940203678E+03   -0.27483E-03   -0.57600E-03 15376   0.103E-01    0.986E-02
RMM:   2    -0.706940806609E+03   -0.60293E-03   -0.33562E-04 10493   0.286E-02    0.410E-01
RMM:   3    -0.706940102035E+03    0.70457E-03   -0.81061E-05  8116   0.204E-02    0.157E-01
RMM:   4    -0.706940563518E+03   -0.46148E-03   -0.67701E-05  8088   0.129E-02    0.350E-01
RMM:   5    -0.706940094637E+03    0.46888E-03   -0.40605E-05  8040   0.129E-02    0.244E-01
RMM:   6    -0.706940214559E+03   -0.11992E-03   -0.95838E-06  6707   0.642E-03    0.280E-01
RMM:   7    -0.706940087556E+03    0.12700E-03   -0.37690E-06  5131   0.393E-03    0.246E-01
RMM:   8    -0.706940025778E+03    0.61778E-04   -0.13905E-06  3869   0.339E-03
  35 F= -.70694003E+03 E0= -.70629929E+03  d E =-.110306E-02  mag=     0.0004
 curvature:  -0.08 expect dE=-0.951E-03 dE for cont linesearch -0.171E-05
 trial: gam= 0.30555 g(F)=  0.121E-01 g(S)=  0.000E+00 ort =-0.109E-02 (trialstep = 0.685E-01)
 search vector abs. value=  0.166E-01
 bond charge predicted
       N       E                     dE             d eps       ncg     rms          rms(c)
DAV:   1    -0.706940689927E+03   -0.60237E-03   -0.99987E-03 15536   0.140E-01    0.176E-01
RMM:   2    -0.706963732218E+03   -0.23042E-01   -0.20677E-03 14515   0.650E-02    0.199E+00
RMM:   3    -0.706940071687E+03    0.23661E-01   -0.10664E-03 13743   0.731E-02    0.341E-01
RMM:   4    -0.706940094022E+03   -0.22335E-04   -0.24968E-04  9841   0.329E-02    0.141E-01
RMM:   5    -0.706940164802E+03   -0.70780E-04   -0.60810E-05  8171   0.163E-02    0.162E-01
RMM:   6    -0.706940108031E+03    0.56771E-04   -0.15519E-05  7714   0.852E-03    0.151E-01
RMM:   7    -0.706940106149E+03    0.18827E-05   -0.55041E-06  5901   0.447E-03    0.159E-01
RMM:   8    -0.706940185340E+03   -0.79191E-04   -0.61752E-06  5877   0.452E-03
  36 F= -.70694019E+03 E0= -.70629850E+03  d E =-.159562E-03  mag=     0.0013
 trial-energy change:   -0.000160  1 .order   -0.000609   -0.000808   -0.000410
 step:   0.1392(harm=  0.1392)  dis= 0.00076  next Energy=  -706.940846 (dE=-0.821E-03)
 bond charge predicted
       N       E                     dE             d eps       ncg     rms          rms(c)
DAV:   1    -0.706940448325E+03   -0.34218E-03   -0.10575E-02 15664   0.143E-01    0.162E-01
RMM:   2    -0.706942410562E+03   -0.19622E-02   -0.84949E-04 13672   0.472E-02    0.622E-01
RMM:   3    -0.706941068612E+03    0.13419E-02   -0.34911E-04 11160   0.386E-02    0.532E-01
RMM:   4    -0.706939644460E+03    0.14242E-02   -0.99241E-05  8397   0.213E-02    0.199E-01
RMM:   5    -0.706940275598E+03   -0.63114E-03   -0.10594E-04  8260   0.176E-02    0.272E-01
RMM:   6    -0.706941135277E+03   -0.85968E-03   -0.23732E-04  9047   0.215E-02    0.345E-01
RMM:   7    -0.706941446189E+03   -0.31091E-03   -0.40217E-04 10023   0.255E-02    0.303E-01
RMM:   8    -0.706941317651E+03    0.12854E-03   -0.19301E-04  9171   0.213E-02    0.149E-01
RMM:   9    -0.706941314508E+03    0.31432E-05   -0.10161E-04  8544   0.177E-02
  37 F= -.70694131E+03 E0= -.70629931E+03  d E =-.128873E-02  mag=    -0.0034
 curvature:  -0.10 expect dE=-0.897E-03 dE for cont linesearch -0.162E-04
 trial: gam= 0.90319 g(F)=  0.918E-02 g(S)=  0.000E+00 ort =-0.165E-02 (trialstep = 0.695E-01)
 search vector abs. value=  0.197E-01
 bond charge predicted
       N       E                     dE             d eps       ncg     rms          rms(c)
DAV:   1    -0.706941527301E+03   -0.20965E-03   -0.13723E-02 15696   0.164E-01    0.932E-02
RMM:   2    -0.706944187557E+03   -0.26603E-02   -0.61261E-04 13681   0.449E-02    0.708E-01
RMM:   3    -0.706941839769E+03    0.23478E-02   -0.25804E-04 10017   0.322E-02    0.277E-01
RMM:   4    -0.706941519121E+03    0.32065E-03   -0.96822E-05  8181   0.220E-02    0.889E-02
RMM:   5    -0.706941528271E+03   -0.91501E-05   -0.33394E-05  7969   0.119E-02    0.637E-02
RMM:   6    -0.706941499779E+03    0.28492E-04   -0.11575E-05  7240   0.686E-03    0.336E-02
RMM:   7    -0.706941484397E+03    0.15382E-04   -0.58414E-06  6297   0.456E-03    0.340E-02
RMM:   8    -0.706941445685E+03    0.38713E-04   -0.51371E-06  5812   0.423E-03
  38 F= -.70694145E+03 E0= -.70629929E+03  d E =-.131177E-03  mag=    -0.0046
 trial-energy change:   -0.000131  1 .order   -0.000235   -0.000534    0.000064
 step:   0.0621(harm=  0.0621)  dis= 0.00036  next Energy=  -706.941553 (dE=-0.239E-03)
 bond charge predicted
       N       E                     dE             d eps       ncg     rms          rms(c)
DAV:   1    -0.706941442712E+03    0.41686E-04   -0.14551E-04 10784   0.172E-02    0.283E-02
RMM:   2    -0.706941378109E+03    0.64602E-04   -0.32866E-05  7988   0.902E-03    0.112E-01
RMM:   3    -0.706941309795E+03    0.68314E-04   -0.11441E-05  7318   0.727E-03    0.551E-02
RMM:   4    -0.706941297002E+03    0.12793E-04   -0.24081E-06  4499   0.365E-03    0.451E-02
RMM:   5    -0.706941382042E+03   -0.85040E-04   -0.28783E-06  4273   0.358E-03    0.831E-02
RMM:   6    -0.706941476390E+03   -0.94348E-04   -0.94821E-06  6619   0.496E-03    0.868E-02
RMM:   7    -0.706941543736E+03   -0.67346E-04   -0.28507E-05  7414   0.714E-03    0.375E-02
RMM:   8    -0.706941552521E+03   -0.87852E-05   -0.15073E-05  6810   0.608E-03
  39 F= -.70694155E+03 E0= -.70629959E+03  d E =-.238014E-03  mag=    -0.0023
 curvature:  -0.08 expect dE=-0.308E-03 dE for cont linesearch -0.230E-08
 trial: gam= 0.12377 g(F)=  0.387E-02 g(S)=  0.000E+00 ort = 0.239E-04 (trialstep = 0.680E-01)
 search vector abs. value=  0.418E-02
 bond charge predicted
       N       E                     dE             d eps       ncg     rms          rms(c)
DAV:   1    -0.706941710297E+03   -0.16656E-03   -0.34440E-03 15472   0.870E-02    0.471E-02
RMM:   2    -0.706942921559E+03   -0.12113E-02   -0.16554E-04  8509   0.212E-02    0.457E-01
RMM:   3    -0.706941729363E+03    0.11922E-02   -0.11135E-04  8094   0.219E-02    0.146E-01
RMM:   4    -0.706941755066E+03   -0.25703E-04   -0.30281E-05  7983   0.127E-02    0.797E-02
RMM:   5    -0.706941712487E+03    0.42578E-04   -0.66763E-06  6669   0.577E-03    0.401E-02
RMM:   6    -0.706941713121E+03   -0.63392E-06   -0.11968E-06  3597   0.319E-03    0.218E-02
RMM:   7    -0.706941708382E+03    0.47391E-05   -0.34372E-07  2462   0.273E-03    0.181E-02
RMM:   8    -0.706941702755E+03    0.56267E-05   -0.25520E-07  2045   0.274E-03
  40 F= -.70694170E+03 E0= -.70629979E+03  d E =-.150234E-03  mag=    -0.0016
 trial-energy change:   -0.000150  1 .order   -0.000159   -0.000264   -0.000054
 step:   0.0855(harm=  0.0855)  dis= 0.00023  next Energy=  -706.941718 (dE=-0.166E-03)
 reached required accuracy - stopping structural energy minimisation
 writing wavefunctions
