       N       E                     dE             d eps       ncg     rms          rms(c)
DAV:   1     0.775494718163E+04    0.77549E+04   -0.30859E+05 13648   0.126E+03
DAV:   2     0.593371573580E+03   -0.71616E+04   -0.64669E+04 14496   0.370E+02
DAV:   3    -0.786939858034E+03   -0.13803E+04   -0.13200E+04 16608   0.164E+02
DAV:   4    -0.863223917208E+03   -0.76284E+02   -0.74369E+02 18592   0.431E+01
DAV:   5    -0.864787230563E+03   -0.15633E+01   -0.15443E+01 17376   0.579E+00    0.197E+02
RMM:   6    -0.762325934600E+03    0.10246E+03   -0.69625E+02 13467   0.421E+01    0.206E+02
RMM:   7    -0.105367733720E+04   -0.29135E+03   -0.24537E+02 13998   0.257E+01    0.364E+02
RMM:   8    -0.945155819779E+03    0.10852E+03   -0.75093E+01 16103   0.967E+00    0.341E+02
RMM:   9    -0.141926348674E+04   -0.47411E+03   -0.29610E+02 18242   0.228E+01    0.387E+02
RMM:  10    -0.873592971208E+03    0.54567E+03   -0.17364E+02 17095   0.182E+01    0.177E+02
RMM:  11    -0.764136170839E+03    0.10946E+03   -0.10772E+02 15132   0.173E+01    0.115E+02
RMM:  12    -0.682846356593E+03    0.81290E+02   -0.72154E+01 14612   0.130E+01    0.123E+02
RMM:  13    -0.668305754881E+03    0.14541E+02   -0.14682E+01 14001   0.650E+00    0.110E+02
RMM:  14    -0.640622952450E+03    0.27683E+02   -0.13804E+01 13479   0.547E+00    0.814E+01
RMM:  15    -0.636313145858E+03    0.43098E+01   -0.68294E+00 14099   0.390E+00    0.700E+01
RMM:  16    -0.646933720811E+03   -0.10621E+02   -0.89815E+00 14875   0.421E+00    0.615E+01
RMM:  17    -0.648979334965E+03   -0.20456E+01   -0.39332E+00 13674   0.305E+00    0.511E+01
RMM:  18    -0.654002274899E+03   -0.50229E+01   -0.56320E+00 14836   0.320E+00    0.435E+01
RMM:  19    -0.659145527655E+03   -0.51433E+01   -0.45563E+00 14854   0.305E+00    0.369E+01
RMM:  20    -0.666264827441E+03   -0.71193E+01   -0.80447E+00 16864   0.394E+00    0.239E+01
RMM:  21    -0.671598757694E+03   -0.53339E+01   -0.29846E+00 14256   0.252E+00    0.189E+01
RMM:  22    -0.677137997379E+03   -0.55392E+01   -0.28536E+00 14790   0.232E+00    0.237E+01
RMM:  23    -0.679156885909E+03   -0.20189E+01   -0.11422E+00 13612   0.163E+00    0.209E+01
RMM:  24    -0.683244434456E+03   -0.40875E+01   -0.14604E+00 14497   0.175E+00    0.226E+01
RMM:  25    -0.685309731741E+03   -0.20653E+01   -0.68487E-01 13651   0.127E+00    0.223E+01
RMM:  26    -0.687261474688E+03   -0.19517E+01   -0.50033E-01 13918   0.105E+00    0.211E+01
RMM:  27    -0.689837588289E+03   -0.25761E+01   -0.98654E-01 15423   0.134E+00    0.177E+01
RMM:  28    -0.690961032639E+03   -0.11234E+01   -0.49197E-01 14432   0.978E-01    0.125E+01
RMM:  29    -0.693717432410E+03   -0.27564E+01   -0.86270E-01 16227   0.115E+00    0.878E+00
RMM:  30    -0.694975082265E+03   -0.12576E+01   -0.20038E-01 13769   0.666E-01    0.107E+01
RMM:  31    -0.697455985870E+03   -0.24809E+01   -0.47670E-01 15826   0.872E-01    0.831E+00
RMM:  32    -0.699462522108E+03   -0.20065E+01   -0.45501E-01 15740   0.832E-01    0.641E+00
RMM:  33    -0.700115023685E+03   -0.65250E+00   -0.50477E-01 16364   0.846E-01    0.438E+00
RMM:  34    -0.701322865782E+03   -0.12078E+01   -0.12059E-01 14149   0.470E-01    0.384E+00
RMM:  35    -0.701972151968E+03   -0.64929E+00   -0.54202E-02 14283   0.311E-01    0.359E+00
RMM:  36    -0.702370471432E+03   -0.39832E+00   -0.64844E-02 14586   0.287E-01    0.333E+00
RMM:  37    -0.702830829660E+03   -0.46036E+00   -0.52073E-02 14875   0.270E-01    0.284E+00
RMM:  38    -0.703540409380E+03   -0.70958E+00   -0.61984E-02 15732   0.323E-01    0.232E+00
RMM:  39    -0.703882022304E+03   -0.34161E+00   -0.44734E-02 14917   0.257E-01    0.195E+00
RMM:  40    -0.704125788736E+03   -0.24377E+00   -0.28434E-02 14625   0.214E-01    0.180E+00
RMM:  41    -0.704403766527E+03   -0.27798E+00   -0.37501E-02 15724   0.231E-01    0.175E+00
RMM:  42    -0.704574319959E+03   -0.17055E+00   -0.28674E-02 15558   0.210E-01    0.162E+00
RMM:  43    -0.704615687606E+03   -0.41368E-01   -0.93050E-03 13877   0.134E-01    0.145E+00
RMM:  44    -0.704648832210E+03   -0.33145E-01   -0.66267E-03 13933   0.115E-01    0.140E+00
RMM:  45    -0.704750872409E+03   -0.10204E+00   -0.68345E-03 14416   0.106E-01    0.132E+00
RMM:  46    -0.704840749671E+03   -0.89877E-01   -0.22200E-03 13496   0.702E-02    0.124E+00
RMM:  47    -0.704939222424E+03   -0.98473E-01   -0.32367E-03 14780   0.771E-02    0.106E+00
RMM:  48    -0.704998809577E+03   -0.59587E-01   -0.19208E-03 13869   0.602E-02    0.946E-01
RMM:  49    -0.705043979984E+03   -0.45170E-01   -0.17341E-03 14255   0.604E-02    0.773E-01
RMM:  50    -0.705114116671E+03   -0.70137E-01   -0.14709E-03 13875   0.570E-02    0.639E-01
RMM:  51    -0.705147922076E+03   -0.33805E-01   -0.48762E-03 16343   0.789E-02    0.591E-01
RMM:  52    -0.705179597838E+03   -0.31676E-01   -0.33569E-04 10388   0.291E-02    0.453E-01
RMM:  53    -0.705222207992E+03   -0.42610E-01   -0.33743E-04 10099   0.254E-02    0.363E-01
RMM:  54    -0.705258764646E+03   -0.36557E-01   -0.38326E-04 10212   0.264E-02    0.223E-01
RMM:  55    -0.705287679656E+03   -0.28915E-01   -0.24027E-04  9120   0.220E-02    0.150E-01
RMM:  56    -0.705268563287E+03    0.19116E-01   -0.11174E-04  8202   0.190E-02    0.138E-01
RMM:  57    -0.705286754428E+03   -0.18191E-01   -0.52954E-05  8173   0.135E-02    0.815E-02
RMM:  58    -0.705307051538E+03   -0.20297E-01   -0.50265E-05  8090   0.101E-02    0.862E-02
RMM:  59    -0.705326761979E+03   -0.19710E-01   -0.50468E-05  7770   0.953E-03    0.627E-02
RMM:  60    -0.705339322442E+03   -0.12560E-01   -0.30886E-05  7644   0.814E-03    0.489E-02
RMM:  61    -0.705343593505E+03   -0.42711E-02   -0.19784E-05  7304   0.668E-03    0.471E-02
RMM:  62    -0.705350454135E+03   -0.68606E-02   -0.23974E-05  6624   0.584E-03    0.343E-02
RMM:  63    -0.705353535614E+03   -0.30815E-02   -0.14287E-05  6147   0.526E-03    0.226E-02
RMM:  64    -0.705355025277E+03   -0.14897E-02   -0.89059E-06  5245   0.422E-03    0.173E-02
RMM:  65    -0.705355529565E+03   -0.50429E-03   -0.66995E-06  5071   0.388E-03    0.109E-02
RMM:  66    -0.705355654761E+03   -0.12520E-03   -0.33737E-06  4457   0.349E-03    0.103E-02
RMM:  67    -0.705355768221E+03   -0.11346E-03   -0.16780E-06  3519   0.300E-03    0.692E-03
RMM:  68    -0.705355808056E+03   -0.39836E-04   -0.10435E-06  3070   0.287E-03
   1 F= -.70535581E+03 E0= -.70473428E+03  d E =-.705356E+03  mag=     7.3708
       N       E                     dE             d eps       ncg     rms          rms(c)
DAV:   1    -0.702663952232E+03    0.26918E+01   -0.34306E+02 13632   0.252E+01    0.584E+00
RMM:   2    -0.703828919470E+03   -0.11650E+01   -0.11727E+01 13440   0.466E+00    0.133E+01
RMM:   3    -0.703766671626E+03    0.62248E-01   -0.19570E+00 13963   0.188E+00    0.110E+01
RMM:   4    -0.703366020932E+03    0.40065E+00   -0.36711E-01 13583   0.104E+00    0.721E+00
RMM:   5    -0.703082281599E+03    0.28374E+00   -0.12412E-01 13485   0.669E-01    0.302E+00
RMM:   6    -0.703085957016E+03   -0.36754E-02   -0.10108E-01 13874   0.422E-01    0.278E+00
RMM:   7    -0.703070793437E+03    0.15164E-01   -0.39924E-02 13540   0.342E-01    0.261E+00
RMM:   8    -0.703056780689E+03    0.14013E-01   -0.37937E-02 14084   0.293E-01    0.201E+00
RMM:   9    -0.703028122428E+03    0.28658E-01   -0.10904E-02 13412   0.183E-01    0.658E-01
RMM:  10    -0.703023751035E+03    0.43714E-02   -0.51663E-03 13884   0.987E-02    0.387E-01
RMM:  11    -0.703022838967E+03    0.91207E-03   -0.10729E-03 12434   0.566E-02    0.175E-01
RMM:  12    -0.703023460495E+03   -0.62153E-03   -0.62860E-04 11583   0.356E-02    0.144E-01
RMM:  13    -0.703023643527E+03   -0.18303E-03   -0.40081E-04 10246   0.290E-02    0.127E-01
RMM:  14    -0.703023918933E+03   -0.27541E-03   -0.14202E-04  8451   0.196E-02    0.956E-02
RMM:  15    -0.703024590176E+03   -0.67124E-03   -0.69715E-05  7940   0.139E-02    0.644E-02
RMM:  16    -0.703025481882E+03   -0.89171E-03   -0.39634E-05  7462   0.956E-03    0.483E-02
RMM:  17    -0.703027047057E+03   -0.15652E-02   -0.48076E-05  7440   0.833E-03    0.450E-02
RMM:  18    -0.703029966850E+03   -0.29198E-02   -0.89682E-05  7907   0.936E-03    0.461E-02
RMM:  19    -0.703033435963E+03   -0.34691E-02   -0.10375E-04  7892   0.980E-03    0.439E-02
RMM:  20    -0.703036728047E+03   -0.32921E-02   -0.87531E-05  7481   0.956E-03    0.308E-02
RMM:  21    -0.703039668194E+03   -0.29401E-02   -0.65732E-05  7240   0.846E-03    0.262E-02
RMM:  22    -0.703042042233E+03   -0.23740E-02   -0.56100E-05  6986   0.777E-03    0.208E-02
RMM:  23    -0.703043685031E+03   -0.16428E-02   -0.40782E-05  6650   0.726E-03    0.189E-02
RMM:  24    -0.703044582879E+03   -0.89785E-03   -0.22553E-05  5765   0.598E-03    0.155E-02
RMM:  25    -0.703045251046E+03   -0.66817E-03   -0.13655E-05  5231   0.490E-03    0.139E-02
RMM:  26    -0.703045907880E+03   -0.65683E-03   -0.10129E-05  4921   0.439E-03    0.993E-03
RMM:  27    -0.703046561482E+03   -0.65360E-03   -0.90371E-06  5106   0.418E-03    0.955E-03
RMM:  28    -0.703047044830E+03   -0.48335E-03   -0.62919E-06  4771   0.385E-03    0.754E-03
RMM:  29    -0.703047410637E+03   -0.36581E-03   -0.40846E-06  4128   0.342E-03    0.625E-03
RMM:  30    -0.703047621962E+03   -0.21133E-03   -0.20189E-06  3419   0.314E-03    0.478E-03
RMM:  31    -0.703047855951E+03   -0.23399E-03   -0.15827E-06  3177   0.298E-03    0.451E-03
RMM:  32    -0.703048026785E+03   -0.17083E-03   -0.12115E-06  3074   0.294E-03    0.371E-03
RMM:  33    -0.703048278292E+03   -0.25151E-03   -0.28746E-06  3724   0.309E-03    0.393E-03
RMM:  34    -0.703048441461E+03   -0.16317E-03   -0.18564E-06  3326   0.299E-03    0.306E-03
RMM:  35    -0.703048632850E+03   -0.19139E-03   -0.21315E-06  3317   0.300E-03    0.286E-03
RMM:  36    -0.703048794134E+03   -0.16128E-03   -0.22388E-06  3402   0.299E-03    0.164E-03
RMM:  37    -0.703048880768E+03   -0.86634E-04   -0.14679E-06  3062   0.292E-03
   2 F= -.70304888E+03 E0= -.70243109E+03  d E =0.230693E+01  mag=     7.6381
       N       E                     dE             d eps       ncg     rms          rms(c)
DAV:   1    -0.706113482102E+03   -0.30647E+01   -0.25472E+02 13888   0.214E+01    0.123E+01
RMM:   2    -0.712715529045E+03   -0.66020E+01   -0.28174E+01 14220   0.485E+00    0.281E+01
RMM:   3    -0.713401864609E+03   -0.68634E+00   -0.36445E+00 13545   0.282E+00    0.330E+01
RMM:   4    -0.707992479386E+03    0.54094E+01   -0.11123E+00 13477   0.176E+00    0.156E+01
RMM:   5    -0.706194247463E+03    0.17982E+01   -0.10416E+00 13800   0.143E+00    0.894E+00
RMM:   6    -0.705683153064E+03    0.51109E+00   -0.61999E-01 14560   0.102E+00    0.497E+00
RMM:   7    -0.705534445027E+03    0.14871E+00   -0.30399E-01 14757   0.655E-01    0.314E+00
RMM:   8    -0.705501672532E+03    0.32772E-01   -0.12463E-01 15333   0.433E-01    0.228E+00
RMM:   9    -0.705505552493E+03   -0.38800E-02   -0.58222E-02 14264   0.290E-01    0.205E+00
RMM:  10    -0.705505616147E+03   -0.63654E-04   -0.25601E-02 13808   0.243E-01    0.165E+00
RMM:  11    -0.705495137200E+03    0.10479E-01   -0.96563E-03 13359   0.160E-01    0.768E-01
RMM:  12    -0.705492556134E+03    0.25811E-02   -0.46042E-03 13225   0.107E-01    0.329E-01
RMM:  13    -0.705494556337E+03   -0.20002E-02   -0.18214E-03 12866   0.667E-02    0.309E-01
RMM:  14    -0.705496699440E+03   -0.21431E-02   -0.68021E-04 11644   0.383E-02    0.237E-01
RMM:  15    -0.705499870274E+03   -0.31708E-02   -0.32270E-04 10104   0.272E-02    0.190E-01
RMM:  16    -0.705503086862E+03   -0.32166E-02   -0.26221E-04  9468   0.234E-02    0.109E-01
RMM:  17    -0.705505421293E+03   -0.23344E-02   -0.10932E-04  8208   0.170E-02    0.880E-02
RMM:  18    -0.705506540346E+03   -0.11191E-02   -0.38730E-05  7674   0.120E-02    0.532E-02
RMM:  19    -0.705508411734E+03   -0.18714E-02   -0.34623E-05  7443   0.785E-03    0.402E-02
RMM:  20    -0.705509820883E+03   -0.14091E-02   -0.21608E-05  7266   0.723E-03    0.298E-02
RMM:  21    -0.705510628661E+03   -0.80778E-03   -0.11839E-05  6610   0.571E-03    0.192E-02
RMM:  22    -0.705511282567E+03   -0.65391E-03   -0.63726E-06  5380   0.415E-03    0.159E-02
RMM:  23    -0.705511986121E+03   -0.70355E-03   -0.47920E-06  4826   0.368E-03    0.141E-02
RMM:  24    -0.705513030090E+03   -0.10440E-02   -0.86120E-06  5876   0.408E-03    0.135E-02
RMM:  25    -0.705514080780E+03   -0.10507E-02   -0.97673E-06  5960   0.415E-03    0.116E-02
RMM:  26    -0.705514885146E+03   -0.80437E-03   -0.94126E-06  5615   0.416E-03    0.129E-02
RMM:  27    -0.705515278931E+03   -0.39378E-03   -0.55034E-06  4792   0.373E-03    0.878E-03
RMM:  28    -0.705515803308E+03   -0.52438E-03   -0.70798E-06  4780   0.363E-03    0.946E-03
RMM:  29    -0.705516372780E+03   -0.56947E-03   -0.93755E-06  5439   0.393E-03    0.906E-03
RMM:  30    -0.705516619991E+03   -0.24721E-03   -0.36794E-06  4032   0.351E-03    0.768E-03
RMM:  31    -0.705516805137E+03   -0.18515E-03   -0.25313E-06  3377   0.308E-03    0.614E-03
RMM:  32    -0.705516942464E+03   -0.13733E-03   -0.26077E-06  3511   0.313E-03    0.471E-03
RMM:  33    -0.705517023807E+03   -0.81342E-04   -0.17913E-06  3316   0.306E-03
   3 F= -.70551702E+03 E0= -.70489615E+03  d E =-.161216E+00  mag=     7.4288
       N       E                     dE             d eps       ncg     rms          rms(c)
DAV:   1    -0.705541906515E+03   -0.24964E-01   -0.11230E+00 13824   0.145E+00    0.554E-01
RMM:   2    -0.705566163328E+03   -0.24257E-01   -0.40483E-02 13405   0.270E-01    0.219E+00
RMM:   3    -0.705548719799E+03    0.17444E-01   -0.64378E-03 13239   0.154E-01    0.115E+00
RMM:   4    -0.705543548291E+03    0.51715E-02   -0.20351E-03 12928   0.758E-02    0.693E-01
RMM:   5    -0.705541831331E+03    0.17170E-02   -0.10616E-03 11840   0.532E-02    0.395E-01
RMM:   6    -0.705541394309E+03    0.43702E-03   -0.39002E-04 10130   0.305E-02    0.268E-01
RMM:   7    -0.705541190303E+03    0.20401E-03   -0.26835E-04  9288   0.259E-02    0.181E-01
RMM:   8    -0.705541056404E+03    0.13390E-03   -0.17873E-04  8253   0.216E-02    0.105E-01
RMM:   9    -0.705541021117E+03    0.35288E-04   -0.48108E-05  7347   0.144E-02
   4 F= -.70554102E+03 E0= -.70492035E+03  d E =-.185213E+00  mag=     7.4306
       N       E                     dE             d eps       ncg     rms          rms(c)
DAV:   1    -0.705542238926E+03   -0.11825E-02   -0.10244E-01 13984   0.438E-01    0.165E-01
RMM:   2    -0.705543457943E+03   -0.12190E-02   -0.37811E-03 12670   0.822E-02    0.486E-01
RMM:   3    -0.705542514171E+03    0.94377E-03   -0.50244E-04 10271   0.426E-02    0.236E-01
RMM:   4    -0.705542737304E+03   -0.22313E-03   -0.18792E-04  8041   0.232E-02    0.330E-01
RMM:   5    -0.705542263776E+03    0.47353E-03   -0.10279E-04  7633   0.182E-02    0.134E-01
RMM:   6    -0.705542200401E+03    0.63375E-04   -0.37939E-05  7023   0.111E-02    0.740E-02
RMM:   7    -0.705542195435E+03    0.49656E-05   -0.20852E-05  6595   0.846E-03    0.494E-02
RMM:   8    -0.705542204197E+03   -0.87623E-05   -0.15069E-05  6449   0.666E-03
   5 F= -.70554220E+03 E0= -.70492158E+03  d E =-.186396E+00  mag=     7.4339
       N       E                     dE             d eps       ncg     rms          rms(c)
DAV:   1    -0.705086833514E+03    0.45536E+00   -0.88553E+01 13472   0.138E+01    0.263E+00
RMM:   2    -0.705381396893E+03   -0.29456E+00   -0.17948E+00 13440   0.226E+00    0.738E+00
RMM:   3    -0.705242837428E+03    0.13856E+00   -0.24565E-01 13496   0.928E-01    0.247E+00
RMM:   4    -0.705344715189E+03   -0.10188E+00   -0.76024E-02 14366   0.459E-01    0.431E+00
RMM:   5    -0.705377542797E+03   -0.32828E-01   -0.38039E-02 13495   0.322E-01    0.579E+00
RMM:   6    -0.705253236934E+03    0.12431E+00   -0.16706E-02 13506   0.235E-01    0.272E+00
RMM:   7    -0.705238552613E+03    0.14684E-01   -0.14998E-02 13776   0.181E-01    0.135E+00
RMM:   8    -0.705232733256E+03    0.58194E-02   -0.57406E-03 13321   0.120E-01    0.101E+00
RMM:   9    -0.705230712729E+03    0.20205E-02   -0.22168E-03 13261   0.774E-02    0.664E-01
RMM:  10    -0.705230199918E+03    0.51281E-03   -0.80221E-04 12361   0.399E-02    0.484E-01
RMM:  11    -0.705230427396E+03   -0.22748E-03   -0.19455E-04  8637   0.218E-02    0.440E-01
RMM:  12    -0.705230627389E+03   -0.19999E-03   -0.12178E-04  8296   0.187E-02    0.382E-01
RMM:  13    -0.705230963002E+03   -0.33561E-03   -0.13538E-04  8298   0.178E-02    0.240E-01
RMM:  14    -0.705231250425E+03   -0.28742E-03   -0.11850E-04  8249   0.178E-02    0.138E-01
RMM:  15    -0.705231496661E+03   -0.24624E-03   -0.59952E-05  7937   0.142E-02    0.634E-02
RMM:  16    -0.705231671794E+03   -0.17513E-03   -0.24222E-05  7539   0.868E-03    0.442E-02
RMM:  17    -0.705231867687E+03   -0.19589E-03   -0.12793E-05  7031   0.617E-03    0.309E-02
RMM:  18    -0.705232100662E+03   -0.23298E-03   -0.96534E-06  6260   0.478E-03    0.146E-02
RMM:  19    -0.705232274626E+03   -0.17396E-03   -0.50646E-06  5260   0.401E-03    0.956E-03
RMM:  20    -0.705232374412E+03   -0.99786E-04   -0.22206E-06  4071   0.333E-03
   6 F= -.70523237E+03 E0= -.70461456E+03  d E =0.309830E+00  mag=     7.4019
       N       E                     dE             d eps       ncg     rms          rms(c)
DAV:   1    -0.705433140531E+03   -0.20087E+00   -0.34808E+01 13760   0.878E+00    0.213E+00
RMM:   2    -0.705599585115E+03   -0.16644E+00   -0.85148E-01 13440   0.158E+00    0.525E+00
RMM:   3    -0.705506840346E+03    0.92745E-01   -0.12317E-01 13486   0.694E-01    0.220E+00
RMM:   4    -0.705517702117E+03   -0.10862E-01   -0.41745E-02 15077   0.313E-01    0.228E+00
RMM:   5    -0.705527833994E+03   -0.10132E-01   -0.22413E-02 13555   0.217E-01    0.331E+00
RMM:   6    -0.705501760273E+03    0.26074E-01   -0.99947E-03 13474   0.164E-01    0.198E+00
RMM:   7    -0.705489057264E+03    0.12703E-01   -0.47573E-03 13320   0.118E-01    0.115E+00
RMM:   8    -0.705484836596E+03    0.42207E-02   -0.38916E-03 13502   0.983E-02    0.595E-01
RMM:   9    -0.705483789843E+03    0.10468E-02   -0.95541E-04 12351   0.578E-02    0.350E-01
RMM:  10    -0.705483500992E+03    0.28885E-03   -0.40505E-04 10473   0.305E-02    0.204E-01
RMM:  11    -0.705483523948E+03   -0.22957E-04   -0.11788E-04  8415   0.188E-02
   7 F= -.70548352E+03 E0= -.70486389E+03  d E =0.586802E-01  mag=     7.4074
       N       E                     dE             d eps       ncg     rms          rms(c)
DAV:   1    -0.705522640966E+03   -0.39140E-01   -0.19855E+00 13984   0.208E+00    0.464E-01
RMM:   2    -0.705534859411E+03   -0.12218E-01   -0.44860E-02 13440   0.358E-01    0.135E+00
RMM:   3    -0.705529816474E+03    0.50429E-02   -0.67730E-03 13460   0.155E-01    0.100E+00
RMM:   4    -0.705525747619E+03    0.40689E-02   -0.21024E-03 14123   0.728E-02    0.349E-01
RMM:   5    -0.705527012782E+03   -0.12652E-02   -0.10528E-03 12500   0.504E-02    0.665E-01
RMM:   6    -0.705525498205E+03    0.15146E-02   -0.45590E-04 11173   0.393E-02    0.344E-01
RMM:   7    -0.705525330008E+03    0.16820E-03   -0.36301E-04 10388   0.317E-02    0.193E-01
RMM:   8    -0.705525238699E+03    0.91309E-04   -0.23967E-04  9139   0.262E-02
   8 F= -.70552524E+03 E0= -.70490547E+03  d E =0.169655E-01  mag=     7.4146
       N       E                     dE             d eps       ncg     rms          rms(c)
DAV:   1    -0.705550222693E+03   -0.24893E-01   -0.10773E+00 13984   0.153E+00    0.351E-01
RMM:   2    -0.705556594441E+03   -0.63717E-02   -0.24023E-02 13441   0.263E-01    0.101E+00
RMM:   3    -0.705553773247E+03    0.28212E-02   -0.36429E-03 13268   0.116E-01    0.681E-01
RMM:   4    -0.705551973763E+03    0.17995E-02   -0.12268E-03 13045   0.538E-02    0.233E-01
RMM:   5    -0.705552710481E+03   -0.73672E-03   -0.58244E-04 11372   0.365E-02    0.496E-01
RMM:   6    -0.705552037069E+03    0.67341E-03   -0.19577E-04  8598   0.266E-02    0.287E-01
RMM:   7    -0.705551855836E+03    0.18123E-03   -0.14456E-04  8283   0.208E-02    0.149E-01
RMM:   8    -0.705551847418E+03    0.84174E-05   -0.99204E-05  7902   0.176E-02
   9 F= -.70555185E+03 E0= -.70493167E+03  d E =-.964322E-02  mag=     7.4216
       N       E                     dE             d eps       ncg     rms          rms(c)
DAV:   1    -0.705553915015E+03   -0.20592E-02   -0.26931E-01 14112   0.765E-01    0.171E-01
RMM:   2    -0.705555129052E+03   -0.12140E-02   -0.59660E-03 13388   0.130E-01    0.451E-01
RMM:   3    -0.705554437829E+03    0.69122E-03   -0.83004E-04 11789   0.554E-02    0.131E-01
RMM:   4    -0.705554518684E+03   -0.80855E-04   -0.30390E-04  9363   0.297E-02    0.181E-01
RMM:   5    -0.705554903303E+03   -0.38462E-03   -0.13195E-04  8103   0.208E-02    0.312E-01
RMM:   6    -0.705554500095E+03    0.40321E-03   -0.41312E-05  7544   0.130E-02    0.109E-01
RMM:   7    -0.705554530094E+03   -0.29999E-04   -0.25167E-05  7058   0.844E-03    0.811E-02
RMM:   8    -0.705554599709E+03   -0.69615E-04   -0.17063E-05  6897   0.745E-03
  10 F= -.70555460E+03 E0= -.70493419E+03  d E =-.123955E-01  mag=     7.4275
       N       E                     dE             d eps       ncg     rms          rms(c)
DAV:   1    -0.705555492271E+03   -0.96218E-03   -0.38437E-02 14144   0.289E-01    0.757E-02
RMM:   2    -0.705555835868E+03   -0.34360E-03   -0.89377E-04 11515   0.504E-02    0.243E-01
RMM:   3    -0.705555632630E+03    0.20324E-03   -0.14250E-04  7703   0.249E-02    0.508E-02
RMM:   4    -0.705555689445E+03   -0.56815E-04   -0.37492E-05  7104   0.119E-02    0.775E-02
RMM:   5    -0.705555728237E+03   -0.38792E-04   -0.18259E-05  6686   0.764E-03    0.990E-02
RMM:   6    -0.705555754056E+03   -0.25819E-04   -0.84198E-06  6198   0.584E-03    0.437E-02
RMM:   7    -0.705555798640E+03   -0.44585E-04   -0.41760E-06  5042   0.402E-03    0.227E-02
RMM:   8    -0.705555876807E+03   -0.78167E-04   -0.29724E-06  4269   0.345E-03
  11 F= -.70555588E+03 E0= -.70493556E+03  d E =-.136726E-01  mag=     7.4317
       N       E                     dE             d eps       ncg     rms          rms(c)
DAV:   1    -0.705465946953E+03    0.89852E-01   -0.32513E+01 13440   0.791E+00    0.115E+00
RMM:   2    -0.705528217496E+03   -0.62271E-01   -0.52904E-01 13440   0.116E+00    0.240E+00
RMM:   3    -0.705521402226E+03    0.68153E-02   -0.73974E-02 13807   0.455E-01    0.836E-01
RMM:   4    -0.705571794144E+03   -0.50392E-01   -0.22435E-02 14200   0.226E-01    0.332E+00
RMM:   5    -0.705525261439E+03    0.46533E-01   -0.44270E-03 13322   0.128E-01    0.129E+00
RMM:   6    -0.705521880871E+03    0.33806E-02   -0.58365E-03 13701   0.106E-01    0.105E+00
RMM:   7    -0.705519704464E+03    0.21764E-02   -0.48499E-03 14132   0.104E-01    0.436E-01
RMM:   8    -0.705518842479E+03    0.86199E-03   -0.12159E-03 12477   0.558E-02    0.376E-01
RMM:   9    -0.705518781077E+03    0.61402E-04   -0.34141E-04 10220   0.310E-02
  12 F= -.70551878E+03 E0= -.70489917E+03  d E =0.370957E-01  mag=     7.4385
       N       E                     dE             d eps       ncg     rms          rms(c)
DAV:   1    -0.705547523941E+03   -0.28681E-01   -0.14338E+01 13696   0.530E+00    0.904E-01
RMM:   2    -0.705597039337E+03   -0.49515E-01   -0.25230E-01 13440   0.812E-01    0.279E+00
RMM:   3    -0.705579458135E+03    0.17581E-01   -0.39368E-02 13716   0.339E-01    0.126E+00
RMM:   4    -0.705583092331E+03   -0.36342E-02   -0.11659E-02 14018   0.166E-01    0.170E+00
RMM:   5    -0.705572762282E+03    0.10330E-01   -0.32898E-03 13129   0.102E-01    0.891E-01
RMM:   6    -0.705570533704E+03    0.22286E-02   -0.23134E-03 13077   0.703E-02    0.613E-01
RMM:   7    -0.705569545780E+03    0.98792E-03   -0.17830E-03 13297   0.651E-02    0.317E-01
RMM:   8    -0.705569406082E+03    0.13970E-03   -0.67735E-04 11916   0.427E-02    0.246E-01
RMM:   9    -0.705569243960E+03    0.16212E-03   -0.21164E-04  8995   0.263E-02    0.161E-01
RMM:  10    -0.705569228100E+03    0.15860E-04   -0.64506E-05  7898   0.153E-02
  13 F= -.70556923E+03 E0= -.70494910E+03  d E =-.133513E-01  mag=     7.4406
       N       E                     dE             d eps       ncg     rms          rms(c)
DAV:   1    -0.705574291322E+03   -0.50474E-02   -0.46592E-01 13952   0.951E-01    0.196E-01
RMM:   2    -0.705578689402E+03   -0.43981E-02   -0.82244E-03 13424   0.147E-01    0.798E-01
RMM:   3    -0.705575826196E+03    0.28632E-02   -0.13904E-03 12720   0.675E-02    0.440E-01
RMM:   4    -0.705575347379E+03    0.47882E-03   -0.47087E-04 10181   0.335E-02    0.284E-01
RMM:   5    -0.705575292136E+03    0.55243E-04   -0.10317E-04  7973   0.202E-02    0.244E-01
RMM:   6    -0.705575085918E+03    0.20622E-03   -0.99644E-05  7881   0.166E-02    0.129E-01
RMM:   7    -0.705575069792E+03    0.16126E-04   -0.65616E-05  7594   0.150E-02    0.542E-02
RMM:   8    -0.705575076219E+03   -0.64268E-05   -0.22274E-05  6974   0.962E-03
  14 F= -.70557508E+03 E0= -.70495497E+03  d E =-.191994E-01  mag=     7.4421
       N       E                     dE             d eps       ncg     rms          rms(c)
DAV:   1    -0.705575154186E+03   -0.84394E-04   -0.11991E-02 13792   0.153E-01    0.292E-02
RMM:   2    -0.705575374607E+03   -0.22042E-03   -0.21107E-04  7848   0.234E-02    0.190E-01
RMM:   3    -0.705575196618E+03    0.17799E-03   -0.36153E-05  7225   0.125E-02    0.286E-02
RMM:   4    -0.705575201127E+03   -0.45100E-05   -0.82775E-06  6280   0.554E-03    0.187E-02
RMM:   5    -0.705575212887E+03   -0.11759E-04   -0.21864E-06  4378   0.362E-03    0.208E-02
RMM:   6    -0.705575223632E+03   -0.10746E-04   -0.12012E-06  2980   0.306E-03    0.176E-02
RMM:   7    -0.705575237471E+03   -0.13839E-04   -0.19400E-06  3373   0.315E-03    0.112E-02
RMM:   8    -0.705575245362E+03   -0.78906E-05   -0.34161E-07  1838   0.274E-03
  15 F= -.70557525E+03 E0= -.70495513E+03  d E =-.193686E-01  mag=     7.4437
       N       E                     dE             d eps       ncg     rms          rms(c)
DAV:   1    -0.705516277006E+03    0.58960E-01   -0.15449E+01 13440   0.549E+00    0.116E+00
RMM:   2    -0.705561205788E+03   -0.44929E-01   -0.28203E-01 13442   0.852E-01    0.214E+00
RMM:   3    -0.705568683575E+03   -0.74778E-02   -0.44748E-02 13457   0.372E-01    0.268E+00
RMM:   4    -0.705541258933E+03    0.27425E-01   -0.13983E-02 14652   0.183E-01    0.127E+00
RMM:   5    -0.705541898572E+03   -0.63964E-03   -0.24954E-03 14315   0.809E-02    0.116E+00
RMM:   6    -0.705538703024E+03    0.31955E-02   -0.46161E-03 13881   0.882E-02    0.813E-01
RMM:   7    -0.705537711704E+03    0.99132E-03   -0.33535E-03 14480   0.896E-02    0.491E-01
RMM:   8    -0.705536482845E+03    0.12289E-02   -0.93445E-04 12289   0.523E-02    0.188E-01
RMM:   9    -0.705536408944E+03    0.73902E-04   -0.22686E-04  9123   0.266E-02
  16 F= -.70553641E+03 E0= -.70491661E+03  d E =0.388364E-01  mag=     7.4463
       N       E                     dE             d eps       ncg     rms          rms(c)
DAV:   1    -0.705548719470E+03   -0.12237E-01   -0.18080E+00 13904   0.190E+00    0.415E-01
RMM:   2    -0.705553111700E+03   -0.43922E-02   -0.35662E-02 13444   0.305E-01    0.583E-01
RMM:   3    -0.705552493374E+03    0.61833E-03   -0.49250E-03 13308   0.126E-01    0.611E-01
RMM:   4    -0.705551489382E+03    0.10040E-02   -0.16142E-03 13516   0.616E-02    0.367E-01
RMM:   5    -0.705551677237E+03   -0.18786E-03   -0.36833E-04 10468   0.314E-02    0.386E-01
RMM:   6    -0.705551137537E+03    0.53970E-03   -0.42855E-04 10303   0.317E-02    0.203E-01
RMM:   7    -0.705551109801E+03    0.27736E-04   -0.31424E-04  9743   0.287E-02    0.141E-01
RMM:   8    -0.705551032587E+03    0.77214E-04   -0.97888E-05  7570   0.204E-02
  17 F= -.70555103E+03 E0= -.70493100E+03  d E =0.242128E-01  mag=     7.4475
       N       E                     dE             d eps       ncg     rms          rms(c)
DAV:   1    -0.705572843805E+03   -0.21734E-01   -0.14920E+00 13744   0.171E+00    0.415E-01
RMM:   2    -0.705577809949E+03   -0.49661E-02   -0.29937E-02 13446   0.280E-01    0.701E-01
RMM:   3    -0.705578169252E+03   -0.35930E-03   -0.47295E-03 13258   0.124E-01    0.864E-01
RMM:   4    -0.705575273396E+03    0.28959E-02   -0.15644E-03 13413   0.605E-02    0.408E-01
RMM:   5    -0.705575239177E+03    0.34219E-04   -0.33334E-04  9853   0.302E-02    0.340E-01
RMM:   6    -0.705574945040E+03    0.29414E-03   -0.32356E-04  9525   0.280E-02    0.223E-01
RMM:   7    -0.705574911127E+03    0.33913E-04   -0.24727E-04  9154   0.270E-02    0.159E-01
RMM:   8    -0.705574821549E+03    0.89578E-04   -0.89557E-05  7793   0.191E-02
  18 F= -.70557482E+03 E0= -.70495479E+03  d E =0.423813E-03  mag=     7.4481
       N       E                     dE             d eps       ncg     rms          rms(c)
DAV:   1    -0.705579555538E+03   -0.46444E-02   -0.48244E-01 14096   0.972E-01    0.245E-01
RMM:   2    -0.705581951625E+03   -0.23961E-02   -0.96461E-03 13435   0.160E-01    0.532E-01
RMM:   3    -0.705582444257E+03   -0.49263E-03   -0.16751E-03 12826   0.740E-02    0.672E-01
RMM:   4    -0.705580332682E+03    0.21116E-02   -0.56792E-04 10745   0.381E-02    0.255E-01
RMM:   5    -0.705580300087E+03    0.32594E-04   -0.13317E-04  8056   0.211E-02    0.192E-01
RMM:   6    -0.705580258612E+03    0.41475E-04   -0.10025E-04  7765   0.160E-02    0.145E-01
RMM:   7    -0.705580219158E+03    0.39454E-04   -0.65669E-05  7531   0.143E-02    0.891E-02
RMM:   8    -0.705580203588E+03    0.15570E-04   -0.28393E-05  7125   0.113E-02
  19 F= -.70558020E+03 E0= -.70496013E+03  d E =-.495823E-02  mag=     7.4484
       N       E                     dE             d eps       ncg     rms          rms(c)
DAV:   1    -0.705523595359E+03    0.56624E-01   -0.62780E+00 13472   0.366E+00    0.691E-01
RMM:   2    -0.705542917221E+03   -0.19322E-01   -0.11280E-01 13440   0.574E-01    0.138E+00
RMM:   3    -0.705547510060E+03   -0.45928E-02   -0.17768E-02 13522   0.239E-01    0.175E+00
RMM:   4    -0.705534131977E+03    0.13378E-01   -0.60135E-03 14011   0.127E-01    0.738E-01
RMM:   5    -0.705533121002E+03    0.10110E-02   -0.13369E-03 13710   0.583E-02    0.454E-01
RMM:   6    -0.705533427759E+03   -0.30676E-03   -0.15998E-03 12955   0.528E-02    0.504E-01
RMM:   7    -0.705532999015E+03    0.42874E-03   -0.10445E-03 13212   0.533E-02    0.315E-01
RMM:   8    -0.705532463486E+03    0.53553E-03   -0.34510E-04 10429   0.343E-02    0.118E-01
RMM:   9    -0.705532411680E+03    0.51806E-04   -0.97910E-05  8099   0.184E-02
  20 F= -.70553241E+03 E0= -.70491254E+03  d E =0.477919E-01  mag=     7.4508
       N       E                     dE             d eps       ncg     rms          rms(c)
DAV:   1    -0.705578207864E+03   -0.45744E-01   -0.19613E+00 13760   0.205E+00    0.409E-01
RMM:   2    -0.705586131887E+03   -0.79240E-02   -0.37352E-02 13440   0.332E-01    0.927E-01
RMM:   3    -0.705586565849E+03   -0.43396E-03   -0.60405E-03 13518   0.139E-01    0.104E+00
RMM:   4    -0.705581568422E+03    0.49974E-02   -0.20009E-03 13334   0.739E-02    0.418E-01
RMM:   5    -0.705581245996E+03    0.32243E-03   -0.48315E-04 10800   0.355E-02    0.245E-01
RMM:   6    -0.705581386960E+03   -0.14096E-03   -0.45558E-04 10559   0.309E-02    0.268E-01
RMM:   7    -0.705581280840E+03    0.10612E-03   -0.30031E-04  9823   0.298E-02    0.175E-01
RMM:   8    -0.705581149789E+03    0.13105E-03   -0.11807E-04  7865   0.213E-02    0.867E-02
RMM:   9    -0.705581120976E+03    0.28813E-04   -0.32321E-05  7382   0.116E-02
  21 F= -.70558112E+03 E0= -.70496110E+03  d E =-.917387E-03  mag=     7.4525
       N       E                     dE             d eps       ncg     rms          rms(c)
DAV:   1    -0.705586941990E+03   -0.57922E-02   -0.28613E-01 13920   0.783E-01    0.171E-01
RMM:   2    -0.705587980769E+03   -0.10388E-02   -0.54205E-03 13390   0.126E-01    0.326E-01
RMM:   3    -0.705588320821E+03   -0.34005E-03   -0.90743E-04 12206   0.548E-02    0.435E-01
RMM:   4    -0.705587499083E+03    0.82174E-03   -0.33354E-04  9436   0.299E-02    0.200E-01
RMM:   5    -0.705587426880E+03    0.72204E-04   -0.70416E-05  7700   0.175E-02    0.111E-01
RMM:   6    -0.705587437825E+03   -0.10946E-04   -0.64571E-05  7446   0.119E-02    0.933E-02
RMM:   7    -0.705587441638E+03   -0.38124E-05   -0.37620E-05  7324   0.116E-02    0.713E-02
RMM:   8    -0.705587434509E+03    0.71290E-05   -0.17997E-05  6776   0.868E-03
  22 F= -.70558743E+03 E0= -.70496744E+03  d E =-.723092E-02  mag=     7.4529
       N       E                     dE             d eps       ncg     rms          rms(c)
DAV:   1    -0.705558085260E+03    0.29356E-01   -0.27647E+00 13664   0.241E+00    0.431E-01
RMM:   2    -0.705567703255E+03   -0.96180E-02   -0.48298E-02 13440   0.375E-01    0.113E+00
RMM:   3    -0.705564669190E+03    0.30341E-02   -0.76289E-03 13803   0.153E-01    0.750E-01
RMM:   4    -0.705562626723E+03    0.20425E-02   -0.22422E-03 13806   0.774E-02    0.428E-01
RMM:   5    -0.705562248902E+03    0.37782E-03   -0.53429E-04 11714   0.413E-02    0.282E-01
RMM:   6    -0.705562288101E+03   -0.39199E-04   -0.68345E-04 12201   0.417E-02    0.301E-01
RMM:   7    -0.705562081188E+03    0.20691E-03   -0.53779E-04 11529   0.376E-02    0.199E-01
RMM:   8    -0.705561802025E+03    0.27916E-03   -0.19769E-04  8525   0.253E-02    0.849E-02
RMM:   9    -0.705561784271E+03    0.17754E-04   -0.50103E-05  7574   0.144E-02
  23 F= -.70556178E+03 E0= -.70494164E+03  d E =0.256502E-01  mag=     7.4565
       N       E                     dE             d eps       ncg     rms          rms(c)
DAV:   1    -0.705587352987E+03   -0.25551E-01   -0.18131E+00 13792   0.195E+00    0.369E-01
RMM:   2    -0.705594638253E+03   -0.72853E-02   -0.32860E-02 13440   0.311E-01    0.985E-01
RMM:   3    -0.705592271387E+03    0.23669E-02   -0.52802E-03 13664   0.128E-01    0.678E-01
RMM:   4    -0.705590387052E+03    0.18843E-02   -0.16016E-03 13436   0.654E-02    0.356E-01
RMM:   5    -0.705590109790E+03    0.27726E-03   -0.40899E-04 10735   0.352E-02    0.196E-01
RMM:   6    -0.705590252876E+03   -0.14309E-03   -0.47678E-04 11004   0.342E-02    0.222E-01
RMM:   7    -0.705590230989E+03    0.21888E-04   -0.35089E-04 10186   0.305E-02    0.157E-01
RMM:   8    -0.705590112578E+03    0.11841E-03   -0.12551E-04  7879   0.215E-02    0.797E-02
RMM:   9    -0.705590100076E+03    0.12502E-04   -0.31108E-05  7231   0.115E-02
  24 F= -.70559010E+03 E0= -.70497003E+03  d E =-.266557E-02  mag=     7.4568
       N       E                     dE             d eps       ncg     rms          rms(c)
DAV:   1    -0.705590563219E+03   -0.45064E-03   -0.25629E-01 13952   0.744E-01    0.173E-01
RMM:   2    -0.705593912581E+03   -0.33494E-02   -0.62609E-03 13440   0.139E-01    0.818E-01
RMM:   3    -0.705591218156E+03    0.26944E-02   -0.95747E-04 12858   0.607E-02    0.325E-01
RMM:   4    -0.705591385430E+03   -0.16727E-03   -0.30946E-04  9272   0.295E-02    0.348E-01
RMM:   5    -0.705591158759E+03    0.22667E-03   -0.26356E-04  8912   0.276E-02    0.309E-01
RMM:   6    -0.705590987486E+03    0.17127E-03   -0.11347E-04  7682   0.198E-02    0.189E-01
RMM:   7    -0.705590934933E+03    0.52552E-04   -0.10965E-04  7633   0.170E-02    0.133E-01
RMM:   8    -0.705590886485E+03    0.48448E-04   -0.52966E-05  7290   0.146E-02
  25 F= -.70559089E+03 E0= -.70497088E+03  d E =-.786410E-03  mag=     7.4582
       N       E                     dE             d eps       ncg     rms          rms(c)
DAV:   1    -0.705591742401E+03   -0.80747E-03   -0.49960E-02 13904   0.328E-01    0.101E-01
RMM:   2    -0.705593572018E+03   -0.18296E-02   -0.14401E-03 13110   0.652E-02    0.605E-01
RMM:   3    -0.705591932828E+03    0.16392E-02   -0.27254E-04  8866   0.341E-02    0.204E-01
RMM:   4    -0.705591800590E+03    0.13224E-03   -0.71688E-05  7382   0.178E-02    0.108E-01
RMM:   5    -0.705591818712E+03   -0.18122E-04   -0.35530E-05  7045   0.103E-02    0.117E-01
RMM:   6    -0.705591804040E+03    0.14672E-04   -0.30068E-05  6984   0.958E-03    0.822E-02
RMM:   7    -0.705591793639E+03    0.10400E-04   -0.20402E-05  6729   0.865E-03    0.436E-02
RMM:   8    -0.705591796685E+03   -0.30457E-05   -0.15122E-05  6573   0.660E-03
  26 F= -.70559180E+03 E0= -.70497183E+03  d E =-.169661E-02  mag=     7.4588
       N       E                     dE             d eps       ncg     rms          rms(c)
DAV:   1    -0.705593496880E+03   -0.17032E-02   -0.13821E-01 13920   0.526E-01    0.121E-01
RMM:   2    -0.705594737372E+03   -0.12405E-02   -0.30314E-03 13384   0.102E-01    0.505E-01
RMM:   3    -0.705593777282E+03    0.96009E-03   -0.51506E-04 11700   0.435E-02    0.181E-01
RMM:   4    -0.705594034655E+03   -0.25737E-03   -0.20464E-04  8522   0.244E-02    0.308E-01
RMM:   5    -0.705593779687E+03    0.25497E-03   -0.10252E-04  7704   0.198E-02    0.217E-01
RMM:   6    -0.705593610899E+03    0.16879E-03   -0.57424E-05  7402   0.132E-02    0.136E-01
RMM:   7    -0.705593540899E+03    0.70000E-04   -0.35148E-05  7228   0.106E-02    0.933E-02
RMM:   8    -0.705593491783E+03    0.49116E-04   -0.23305E-05  6852   0.880E-03
  27 F= -.70559349E+03 E0= -.70497357E+03  d E =-.169510E-02  mag=     7.4613
       N       E                     dE             d eps       ncg     rms          rms(c)
DAV:   1    -0.705593528712E+03    0.12187E-04   -0.64130E-03 13712   0.114E-01    0.556E-02
RMM:   2    -0.705593967380E+03   -0.43867E-03   -0.20217E-04  7999   0.251E-02    0.284E-01
RMM:   3    -0.705593592663E+03    0.37472E-03   -0.79291E-05  7293   0.188E-02    0.131E-01
RMM:   4    -0.705593554521E+03    0.38142E-04   -0.18636E-05  6950   0.877E-03    0.848E-02
RMM:   5    -0.705593526529E+03    0.27992E-04   -0.60328E-06  5995   0.504E-03    0.599E-02
RMM:   6    -0.705593504304E+03    0.22226E-04   -0.24604E-06  4825   0.384E-03    0.181E-02
RMM:   7    -0.705593505717E+03   -0.14130E-05   -0.66129E-07  2990   0.297E-03    0.243E-02
RMM:   8    -0.705593504620E+03    0.10967E-05   -0.19371E-07  2226   0.268E-03
  28 F= -.70559350E+03 E0= -.70497369E+03  d E =-.170793E-02  mag=     7.4642
       N       E                     dE             d eps       ncg     rms          rms(c)
DAV:   1    -0.705594404374E+03   -0.89866E-03   -0.19451E-02 14064   0.198E-01    0.399E-02
RMM:   2    -0.705594463580E+03   -0.59206E-04   -0.36126E-04  9551   0.358E-02    0.999E-02
RMM:   3    -0.705594436550E+03    0.27030E-04   -0.60847E-05  7253   0.166E-02    0.365E-02
RMM:   4    -0.705594494186E+03   -0.57636E-04   -0.22840E-05  7050   0.918E-03    0.119E-01
RMM:   5    -0.705594434647E+03    0.59539E-04   -0.10179E-05  6478   0.647E-03    0.458E-02
RMM:   6    -0.705594423345E+03    0.11302E-04   -0.56748E-06  5794   0.425E-03    0.285E-02
RMM:   7    -0.705594423824E+03   -0.47954E-06   -0.22721E-06  4653   0.357E-03    0.232E-02
RMM:   8    -0.705594427224E+03   -0.33996E-05   -0.10224E-06  2914   0.300E-03
  29 F= -.70559443E+03 E0= -.70497466E+03  d E =-.922604E-03  mag=     7.4670
       N       E                     dE             d eps       ncg     rms          rms(c)
DAV:   1    -0.705595844193E+03   -0.14204E-02   -0.17480E-01 13696   0.595E-01    0.113E-01
RMM:   2    -0.705596459562E+03   -0.61537E-03   -0.31578E-03 13397   0.107E-01    0.321E-01
RMM:   3    -0.705596145972E+03    0.31359E-03   -0.62470E-04 12293   0.438E-02    0.139E-01
RMM:   4    -0.705596439809E+03   -0.29384E-03   -0.16608E-04  8174   0.228E-02    0.288E-01
RMM:   5    -0.705596204171E+03    0.23564E-03   -0.92469E-05  7732   0.195E-02    0.204E-01
RMM:   6    -0.705596025664E+03    0.17851E-03   -0.52944E-05  7364   0.126E-02    0.102E-01
RMM:   7    -0.705595966407E+03    0.59256E-04   -0.47645E-05  7347   0.110E-02    0.615E-02
RMM:   8    -0.705595949588E+03    0.16819E-04   -0.18868E-05  6708   0.910E-03
  30 F= -.70559595E+03 E0= -.70497639E+03  d E =-.244497E-02  mag=     7.4710
       N       E                     dE             d eps       ncg     rms          rms(c)
DAV:   1    -0.705595977104E+03   -0.10697E-04   -0.34695E-02 14096   0.265E-01    0.581E-02
RMM:   2    -0.705596041254E+03   -0.64150E-04   -0.63932E-04 12055   0.483E-02    0.800E-02
RMM:   3    -0.705596078146E+03   -0.36892E-04   -0.12254E-04  7703   0.204E-02    0.108E-01
RMM:   4    -0.705596028969E+03    0.49177E-04   -0.30559E-05  7230   0.129E-02    0.351E-02
RMM:   5    -0.705596050260E+03   -0.21291E-04   -0.15953E-05  6879   0.691E-03    0.882E-02
RMM:   6    -0.705596023237E+03    0.27022E-04   -0.90530E-06  6180   0.614E-03    0.323E-02
RMM:   7    -0.705596024463E+03   -0.12258E-05   -0.94312E-06  6209   0.469E-03    0.232E-02
RMM:   8    -0.705596028765E+03   -0.43025E-05   -0.24130E-06  4899   0.390E-03
  31 F= -.70559603E+03 E0= -.70497660E+03  d E =-.252415E-02  mag=     7.4752
       N       E                     dE             d eps       ncg     rms          rms(c)
DAV:   1    -0.705596544737E+03   -0.52027E-03   -0.78577E-03 13952   0.126E-01    0.272E-02
RMM:   2    -0.705596574703E+03   -0.29966E-04   -0.14435E-04  7507   0.227E-02    0.550E-02
RMM:   3    -0.705596579441E+03   -0.47388E-05   -0.24812E-05  7161   0.112E-02    0.507E-02
RMM:   4    -0.705596568521E+03    0.10921E-04   -0.63106E-06  6334   0.512E-03    0.190E-02
RMM:   5    -0.705596577971E+03   -0.94506E-05   -0.27576E-06  4797   0.364E-03    0.385E-02
RMM:   6    -0.705596580839E+03   -0.28680E-05   -0.80629E-07  2897   0.304E-03    0.206E-02
RMM:   7    -0.705596595073E+03   -0.14234E-04   -0.38389E-06  5600   0.373E-03    0.142E-02
RMM:   8    -0.705596600098E+03   -0.50246E-05   -0.41853E-07  2482   0.285E-03
  32 F= -.70559660E+03 E0= -.70497721E+03  d E =-.571332E-03  mag=     7.4787
       N       E                     dE             d eps       ncg     rms          rms(c)
DAV:   1    -0.705597924308E+03   -0.13292E-02   -0.70762E-02 13936   0.379E-01    0.740E-02
RMM:   2    -0.705598169576E+03   -0.24527E-03   -0.12365E-03 13051   0.672E-02    0.200E-01
RMM:   3    -0.705598067268E+03    0.10231E-03   -0.24029E-04  8606   0.279E-02    0.975E-02
RMM:   4    -0.705598112583E+03   -0.45316E-04   -0.72769E-05  7562   0.181E-02    0.152E-01
RMM:   5    -0.705598053898E+03    0.58685E-04   -0.31619E-05  7174   0.107E-02    0.106E-01
RMM:   6    -0.705597994806E+03    0.59093E-04   -0.19268E-05  6882   0.770E-03    0.556E-02
RMM:   7    -0.705597980159E+03    0.14647E-04   -0.15006E-05  6736   0.679E-03    0.363E-02
RMM:   8    -0.705597976953E+03    0.32058E-05   -0.72138E-06  6216   0.551E-03
  33 F= -.70559798E+03 E0= -.70497868E+03  d E =-.194819E-02  mag=     7.4830
       N       E                     dE             d eps       ncg     rms          rms(c)
DAV:   1    -0.705599557944E+03   -0.15778E-02   -0.28306E-01 13504   0.758E-01    0.145E-01
RMM:   2    -0.705600242819E+03   -0.68487E-03   -0.48901E-03 13419   0.135E-01    0.309E-01
RMM:   3    -0.705600108574E+03    0.13425E-03   -0.98094E-04 13198   0.542E-02    0.178E-01
RMM:   4    -0.705600396253E+03   -0.28768E-03   -0.26123E-04  8992   0.280E-02    0.324E-01
RMM:   5    -0.705600097576E+03    0.29868E-03   -0.11908E-04  7935   0.225E-02    0.222E-01
RMM:   6    -0.705599859165E+03    0.23841E-03   -0.85114E-05  7682   0.156E-02    0.107E-01
RMM:   7    -0.705599779657E+03    0.79509E-04   -0.72843E-05  7595   0.141E-02    0.651E-02
RMM:   8    -0.705599757956E+03    0.21700E-04   -0.26697E-05  7096   0.111E-02
  34 F= -.70559976E+03 E0= -.70498074E+03  d E =-.372919E-02  mag=     7.4888
       N       E                     dE             d eps       ncg     rms          rms(c)
DAV:   1    -0.705603722599E+03   -0.39429E-02   -0.56174E-02 14096   0.348E-01    0.697E-02
RMM:   2    -0.705603860514E+03   -0.13792E-03   -0.10038E-03 12898   0.610E-02    0.130E-01
RMM:   3    -0.705603840169E+03    0.20346E-04   -0.19252E-04  8191   0.246E-02    0.828E-02
RMM:   4    -0.705603907050E+03   -0.66881E-04   -0.59690E-05  7523   0.165E-02    0.150E-01
RMM:   5    -0.705603844041E+03    0.63009E-04   -0.25202E-05  7183   0.982E-03    0.952E-02
RMM:   6    -0.705603798279E+03    0.45762E-04   -0.13992E-05  6757   0.726E-03    0.394E-02
RMM:   7    -0.705603802673E+03   -0.43938E-05   -0.92055E-06  6434   0.531E-03    0.358E-02
RMM:   8    -0.705603807789E+03   -0.51168E-05   -0.39071E-06  5698   0.446E-03
  35 F= -.70560381E+03 E0= -.70498490E+03  d E =-.404983E-02  mag=     7.4950
       N       E                     dE             d eps       ncg     rms          rms(c)
DAV:   1    -0.705609150317E+03   -0.53476E-02   -0.50728E-01 13632   0.105E+00    0.192E-01
RMM:   2    -0.705610496855E+03   -0.13465E-02   -0.89748E-03 13435   0.182E-01    0.428E-01
RMM:   3    -0.705610136514E+03    0.36034E-03   -0.17548E-03 14103   0.728E-02    0.237E-01
RMM:   4    -0.705610473662E+03   -0.33715E-03   -0.42881E-04 11291   0.364E-02    0.377E-01
RMM:   5    -0.705610070616E+03    0.40305E-03   -0.19870E-04  8561   0.267E-02    0.259E-01
RMM:   6    -0.705609769755E+03    0.30086E-03   -0.15813E-04  8172   0.230E-02    0.138E-01
RMM:   7    -0.705609675271E+03    0.94483E-04   -0.12481E-04  7914   0.191E-02    0.852E-02
RMM:   8    -0.705609630535E+03    0.44736E-04   -0.49037E-05  7573   0.150E-02
  36 F= -.70560963E+03 E0= -.70499100E+03  d E =-.987258E-02  mag=     7.5029
       N       E                     dE             d eps       ncg     rms          rms(c)
DAV:   1    -0.705614301115E+03   -0.46258E-02   -0.71131E-02 14080   0.407E-01    0.822E-02
RMM:   2    -0.705614504446E+03   -0.20333E-03   -0.12978E-03 13139   0.698E-02    0.154E-01
RMM:   3    -0.705614502766E+03    0.16792E-05   -0.24343E-04  8672   0.279E-02    0.981E-02
RMM:   4    -0.705614533224E+03   -0.30458E-04   -0.63576E-05  7603   0.177E-02    0.110E-01
RMM:   5    -0.705614532002E+03    0.12220E-05   -0.29606E-05  7387   0.108E-02    0.856E-02
RMM:   6    -0.705614561044E+03   -0.29042E-04   -0.25015E-05  7066   0.915E-03    0.508E-02
RMM:   7    -0.705614594940E+03   -0.33896E-04   -0.12700E-05  6560   0.730E-03    0.350E-02
RMM:   8    -0.705614621271E+03   -0.26331E-04   -0.55388E-06  5921   0.484E-03
  37 F= -.70561462E+03 E0= -.70499619E+03  d E =-.499074E-02  mag=     7.5097
       N       E                     dE             d eps       ncg     rms          rms(c)
DAV:   1    -0.705621183543E+03   -0.65886E-02   -0.64114E-01 13696   0.122E+00    0.210E-01
RMM:   2    -0.705622642608E+03   -0.14591E-02   -0.11449E-02 13440   0.207E-01    0.402E-01
RMM:   3    -0.705622493887E+03    0.14872E-03   -0.21388E-03 14318   0.813E-02    0.251E-01
RMM:   4    -0.705623109584E+03   -0.61570E-03   -0.46868E-04 11175   0.379E-02    0.400E-01
RMM:   5    -0.705622527322E+03    0.58226E-03   -0.25196E-04  8965   0.292E-02    0.252E-01
RMM:   6    -0.705622424144E+03    0.10318E-03   -0.14411E-04  8084   0.229E-02    0.147E-01
RMM:   7    -0.705622461107E+03   -0.36963E-04   -0.11626E-04  7911   0.176E-02    0.957E-02
RMM:   8    -0.705622467356E+03   -0.62496E-05   -0.54079E-05  7556   0.147E-02
  38 F= -.70562247E+03 E0= -.70500440E+03  d E =-.128368E-01  mag=     7.5155
       N       E                     dE             d eps       ncg     rms          rms(c)
DAV:   1    -0.705629454661E+03   -0.69936E-02   -0.98591E-02 14000   0.495E-01    0.115E-01
RMM:   2    -0.705629812933E+03   -0.35827E-03   -0.18527E-03 13299   0.826E-02    0.197E-01
RMM:   3    -0.705629845508E+03   -0.32575E-04   -0.35267E-04  9994   0.340E-02    0.183E-01
RMM:   4    -0.705629754062E+03    0.91446E-04   -0.10945E-04  7714   0.210E-02    0.136E-01
RMM:   5    -0.705629760293E+03   -0.62314E-05   -0.40967E-05  7488   0.136E-02    0.746E-02
RMM:   6    -0.705629800253E+03   -0.39960E-04   -0.41170E-05  7320   0.108E-02    0.767E-02
RMM:   7    -0.705629807395E+03   -0.71412E-05   -0.24706E-05  7062   0.105E-02    0.404E-02
RMM:   8    -0.705629815536E+03   -0.81411E-05   -0.54757E-06  6026   0.504E-03
  39 F= -.70562982E+03 E0= -.70501185E+03  d E =-.734818E-02  mag=     7.5197
       N       E                     dE             d eps       ncg     rms          rms(c)
DAV:   1    -0.705633658266E+03   -0.38509E-02   -0.55862E-01 13840   0.118E+00    0.207E-01
RMM:   2    -0.705634753353E+03   -0.10951E-02   -0.10024E-02 13440   0.192E-01    0.345E-01
RMM:   3    -0.705634732029E+03    0.21324E-04   -0.17547E-03 13959   0.753E-02    0.183E-01
RMM:   4    -0.705635466483E+03   -0.73445E-03   -0.44087E-04 11340   0.367E-02    0.403E-01
RMM:   5    -0.705635063818E+03    0.40266E-03   -0.17976E-04  8218   0.254E-02    0.305E-01
RMM:   6    -0.705634773504E+03    0.29031E-03   -0.13123E-04  8034   0.205E-02    0.118E-01
RMM:   7    -0.705634813122E+03   -0.39617E-04   -0.86779E-05  7706   0.161E-02    0.963E-02
RMM:   8    -0.705634806070E+03    0.70520E-05   -0.33934E-05  7285   0.127E-02
  40 F= -.70563481E+03 E0= -.70501719E+03  d E =-.123387E-01  mag=     7.5228
       N       E                     dE             d eps       ncg     rms          rms(c)
DAV:   1    -0.705635457339E+03   -0.64422E-03   -0.56597E-02 14160   0.374E-01    0.794E-02
RMM:   2    -0.705635726479E+03   -0.26914E-03   -0.10622E-03 13037   0.627E-02    0.196E-01
RMM:   3    -0.705635679600E+03    0.46879E-04   -0.19150E-04  7733   0.278E-02    0.150E-01
RMM:   4    -0.705635572436E+03    0.10716E-03   -0.48140E-05  7186   0.155E-02    0.597E-02
RMM:   5    -0.705635595593E+03   -0.23157E-04   -0.18936E-05  6989   0.799E-03    0.609E-02
RMM:   6    -0.705635599409E+03   -0.38155E-05   -0.15398E-05  6664   0.732E-03    0.479E-02
RMM:   7    -0.705635616286E+03   -0.16878E-04   -0.16384E-05  6702   0.732E-03    0.281E-02
RMM:   8    -0.705635625806E+03   -0.95201E-05   -0.56445E-06  6016   0.497E-03
  41 F= -.70563563E+03 E0= -.70501789E+03  d E =-.131584E-01  mag=     7.5249
       N       E                     dE             d eps       ncg     rms          rms(c)
DAV:   1    -0.705644074043E+03   -0.84578E-02   -0.10029E-01 13968   0.509E-01    0.113E-01
RMM:   2    -0.705644348185E+03   -0.27414E-03   -0.22539E-03 13333   0.904E-02    0.175E-01
RMM:   3    -0.705644273781E+03    0.74404E-04   -0.38313E-04 10080   0.359E-02    0.870E-02
RMM:   4    -0.705644311298E+03   -0.37517E-04   -0.10630E-04  7650   0.218E-02    0.105E-01
RMM:   5    -0.705644515264E+03   -0.20397E-03   -0.54378E-05  7506   0.138E-02    0.217E-01
RMM:   6    -0.705644314385E+03    0.20088E-03   -0.35386E-05  7256   0.111E-02    0.697E-02
RMM:   7    -0.705644330127E+03   -0.15741E-04   -0.24533E-05  7101   0.901E-03    0.550E-02
RMM:   8    -0.705644317678E+03    0.12449E-04   -0.10762E-05  6469   0.708E-03
  42 F= -.70564432E+03 E0= -.70502663E+03  d E =-.869187E-02  mag=     7.5263
       N       E                     dE             d eps       ncg     rms          rms(c)
DAV:   1    -0.705646407495E+03   -0.20774E-02   -0.10328E-01 14112   0.516E-01    0.116E-01
RMM:   2    -0.705646727320E+03   -0.31982E-03   -0.23332E-03 13338   0.917E-02    0.184E-01
RMM:   3    -0.705646776925E+03   -0.49606E-04   -0.42190E-04 10604   0.369E-02    0.201E-01
RMM:   4    -0.705646631934E+03    0.14499E-03   -0.10658E-04  7693   0.209E-02    0.106E-01
RMM:   5    -0.705646630313E+03    0.16210E-05   -0.36605E-05  7385   0.123E-02    0.802E-02
RMM:   6    -0.705646641678E+03   -0.11364E-04   -0.43991E-05  7293   0.109E-02    0.621E-02
RMM:   7    -0.705646650610E+03   -0.89329E-05   -0.24657E-05  7079   0.981E-03    0.501E-02
RMM:   8    -0.705646640748E+03    0.98630E-05   -0.87923E-06  6446   0.650E-03
  43 F= -.70564664E+03 E0= -.70502905E+03  d E =-.110149E-01  mag=     7.5269
       N       E                     dE             d eps       ncg     rms          rms(c)
DAV:   1    -0.705646740296E+03   -0.89685E-04   -0.31954E-03 13680   0.910E-02    0.192E-02
RMM:   2    -0.705646777444E+03   -0.37148E-04   -0.78431E-05  7276   0.167E-02    0.756E-02
RMM:   3    -0.705646754870E+03    0.22574E-04   -0.12035E-05  7041   0.816E-03    0.281E-02
RMM:   4    -0.705646755273E+03   -0.40238E-06   -0.23105E-06  4535   0.352E-03    0.278E-02
RMM:   5    -0.705646758480E+03   -0.32074E-05   -0.61519E-07  2729   0.297E-03    0.251E-02
RMM:   6    -0.705646762192E+03   -0.37118E-05   -0.66792E-07  2604   0.305E-03    0.151E-02
RMM:   7    -0.705646766162E+03   -0.39702E-05   -0.10960E-06  2823   0.308E-03    0.644E-03
RMM:   8    -0.705646770021E+03   -0.38593E-05   -0.38648E-07  1682   0.271E-03
  44 F= -.70564677E+03 E0= -.70502917E+03  d E =-.111442E-01  mag=     7.5272
       N       E                     dE             d eps       ncg     rms          rms(c)
DAV:   1    -0.705649063237E+03   -0.22971E-02   -0.54806E-02 13936   0.374E-01    0.643E-02
RMM:   2    -0.705649213465E+03   -0.15023E-03   -0.12577E-03 13174   0.710E-02    0.162E-01
RMM:   3    -0.705649205805E+03    0.76598E-05   -0.21112E-04  8064   0.265E-02    0.944E-02
RMM:   4    -0.705649291126E+03   -0.85321E-04   -0.55939E-05  7386   0.155E-02    0.161E-01
RMM:   5    -0.705649181081E+03    0.11004E-03   -0.18440E-05  7096   0.894E-03    0.607E-02
RMM:   6    -0.705649181896E+03   -0.81561E-06   -0.75408E-06  6368   0.532E-03    0.754E-02
RMM:   7    -0.705649185306E+03   -0.34095E-05   -0.79318E-06  6537   0.506E-03    0.683E-02
RMM:   8    -0.705649172072E+03    0.13234E-04   -0.56033E-06  6222   0.468E-03
  45 F= -.70564917E+03 E0= -.70503160E+03  d E =-.240205E-02  mag=     7.5267
       N       E                     dE             d eps       ncg     rms          rms(c)
DAV:   1    -0.705649178373E+03    0.69334E-05   -0.29159E-04 12928   0.277E-02    0.454E-02
RMM:   2    -0.705649227355E+03   -0.48982E-04   -0.17309E-05  7103   0.716E-03    0.932E-02
RMM:   3    -0.705649217013E+03    0.10342E-04   -0.12555E-05  6665   0.682E-03    0.909E-02
RMM:   4    -0.705649195853E+03    0.21160E-04   -0.95504E-06  6347   0.572E-03    0.509E-02
RMM:   5    -0.705649186410E+03    0.94428E-05   -0.36806E-06  5637   0.457E-03    0.166E-02
RMM:   6    -0.705649186964E+03   -0.55346E-06   -0.54609E-07  2205   0.267E-03    0.823E-03
RMM:   7    -0.705649187452E+03   -0.48845E-06   -0.25858E-08  1415   0.241E-03    0.500E-03
RMM:   8    -0.705649188471E+03   -0.10187E-05   -0.22450E-09  1042   0.229E-03
  46 F= -.70564919E+03 E0= -.70503160E+03  d E =-.241845E-02  mag=     7.5262
       N       E                     dE             d eps       ncg     rms          rms(c)
DAV:   1    -0.705651010152E+03   -0.18227E-02   -0.49199E-02 13984   0.338E-01    0.580E-02
RMM:   2    -0.705651145476E+03   -0.13532E-03   -0.10189E-03 13155   0.642E-02    0.141E-01
RMM:   3    -0.705651115238E+03    0.30238E-04   -0.19034E-04  7945   0.248E-02    0.711E-02
RMM:   4    -0.705651191091E+03   -0.75853E-04   -0.44998E-05  7383   0.153E-02    0.143E-01
RMM:   5    -0.705651101981E+03    0.89110E-04   -0.23020E-05  7138   0.898E-03    0.657E-02
RMM:   6    -0.705651094653E+03    0.73285E-05   -0.11325E-05  6700   0.647E-03    0.550E-02
RMM:   7    -0.705651092862E+03    0.17908E-05   -0.60961E-06  6113   0.467E-03    0.474E-02
RMM:   8    -0.705651084633E+03    0.82293E-05   -0.65486E-06  6236   0.436E-03
  47 F= -.70565108E+03 E0= -.70503345E+03  d E =-.189616E-02  mag=     7.5252
       N       E                     dE             d eps       ncg     rms          rms(c)
DAV:   1    -0.705651287847E+03   -0.19499E-03   -0.12873E-02 14224   0.173E-01    0.454E-02
RMM:   2    -0.705651334533E+03   -0.46685E-04   -0.28651E-04  8493   0.332E-02    0.835E-02
RMM:   3    -0.705651319483E+03    0.15050E-04   -0.46559E-05  7228   0.153E-02    0.544E-02
RMM:   4    -0.705651318725E+03    0.75799E-06   -0.14913E-05  6948   0.787E-03    0.505E-02
RMM:   5    -0.705651321500E+03   -0.27749E-05   -0.94852E-06  6628   0.620E-03    0.526E-02
RMM:   6    -0.705651308113E+03    0.13387E-04   -0.62784E-06  6132   0.520E-03    0.225E-02
RMM:   7    -0.705651306754E+03    0.13593E-05   -0.18765E-06  4307   0.351E-03    0.162E-02
RMM:   8    -0.705651306027E+03    0.72606E-06   -0.19940E-07  2190   0.277E-03
  48 F= -.70565131E+03 E0= -.70503365E+03  d E =-.211756E-02  mag=     7.5239
       N       E                     dE             d eps       ncg     rms          rms(c)
DAV:   1    -0.705653044092E+03   -0.17373E-02   -0.50428E-02 14112   0.325E-01    0.673E-02
RMM:   2    -0.705653270492E+03   -0.22640E-03   -0.10527E-03 13146   0.617E-02    0.193E-01
RMM:   3    -0.705653168303E+03    0.10219E-03   -0.19241E-04  8093   0.260E-02    0.120E-01
RMM:   4    -0.705653127640E+03    0.40662E-04   -0.52169E-05  7438   0.166E-02    0.783E-02
RMM:   5    -0.705653115302E+03    0.12339E-04   -0.24549E-05  7094   0.856E-03    0.698E-02
RMM:   6    -0.705653100145E+03    0.15157E-04   -0.13840E-05  6903   0.716E-03    0.445E-02
RMM:   7    -0.705653092463E+03    0.76822E-05   -0.11001E-05  6624   0.580E-03    0.261E-02
RMM:   8    -0.705653084433E+03    0.80301E-05   -0.71835E-06  6265   0.503E-03
  49 F= -.70565308E+03 E0= -.70503540E+03  d E =-.177841E-02  mag=     7.5222
       N       E                     dE             d eps       ncg     rms          rms(c)
DAV:   1    -0.705653666637E+03   -0.57417E-03   -0.91770E-02 14064   0.439E-01    0.938E-02
RMM:   2    -0.705654059819E+03   -0.39318E-03   -0.19254E-03 13366   0.832E-02    0.257E-01
RMM:   3    -0.705653879796E+03    0.18002E-03   -0.34432E-04 10169   0.350E-02    0.153E-01
RMM:   4    -0.705653822887E+03    0.56909E-04   -0.96400E-05  7804   0.200E-02    0.106E-01
RMM:   5    -0.705653796676E+03    0.26211E-04   -0.45582E-05  7444   0.126E-02    0.942E-02
RMM:   6    -0.705653768607E+03    0.28068E-04   -0.25049E-05  7161   0.934E-03    0.565E-02
RMM:   7    -0.705653754906E+03    0.13702E-04   -0.21491E-05  7057   0.807E-03    0.363E-02
RMM:   8    -0.705653743397E+03    0.11508E-04   -0.12150E-05  6537   0.678E-03
  50 F= -.70565374E+03 E0= -.70503606E+03  d E =-.243737E-02  mag=     7.5198
       N       E                     dE             d eps       ncg     rms          rms(c)
DAV:   1    -0.705654474999E+03   -0.72009E-03   -0.41006E-02 14112   0.309E-01    0.541E-02
RMM:   2    -0.705654592219E+03   -0.11722E-03   -0.85424E-04 13014   0.571E-02    0.116E-01
RMM:   3    -0.705654581148E+03    0.11071E-04   -0.16072E-04  7743   0.230E-02    0.864E-02
RMM:   4    -0.705654564390E+03    0.16758E-04   -0.37919E-05  7287   0.147E-02    0.670E-02
RMM:   5    -0.705654557582E+03    0.68089E-05   -0.17490E-05  7007   0.741E-03    0.688E-02
RMM:   6    -0.705654537131E+03    0.20451E-04   -0.80091E-06  6479   0.605E-03    0.388E-02
RMM:   7    -0.705654530993E+03    0.61372E-05   -0.68957E-06  6372   0.455E-03    0.331E-02
RMM:   8    -0.705654518993E+03    0.12001E-04   -0.51637E-06  6050   0.456E-03
  51 F= -.70565452E+03 E0= -.70503684E+03  d E =-.775595E-03  mag=     7.5170
       N       E                     dE             d eps       ncg     rms          rms(c)
DAV:   1    -0.705654529881E+03    0.11120E-05   -0.38681E-04 13264   0.302E-02    0.113E-02
RMM:   2    -0.705654536619E+03   -0.67374E-05   -0.10237E-05  6959   0.652E-03    0.290E-02
RMM:   3    -0.705654537604E+03   -0.98476E-06   -0.22003E-06  5475   0.387E-03    0.241E-02
RMM:   4    -0.705654536305E+03    0.12985E-05   -0.18095E-08  1108   0.205E-03    0.600E-03
RMM:   5    -0.705654542374E+03   -0.60684E-05   -0.78985E-09  1142   0.208E-03    0.762E-03
RMM:   6    -0.705654545991E+03   -0.36179E-05   -0.18498E-08  1106   0.212E-03    0.593E-03
RMM:   7    -0.705654558381E+03   -0.12390E-04   -0.14787E-07  1601   0.241E-03    0.464E-03
RMM:   8    -0.705654563253E+03   -0.48719E-05   -0.64451E-08  1322   0.242E-03
  52 F= -.70565456E+03 E0= -.70503689E+03  d E =-.819856E-03  mag=     7.5149
       N       E                     dE             d eps       ncg     rms          rms(c)
DAV:   1    -0.705654967011E+03   -0.40863E-03   -0.26804E-02 13936   0.251E-01    0.444E-02
RMM:   2    -0.705655043375E+03   -0.76364E-04   -0.55067E-04 11909   0.468E-02    0.978E-02
RMM:   3    -0.705655034278E+03    0.90969E-05   -0.10195E-04  7309   0.192E-02    0.464E-02
RMM:   4    -0.705655111375E+03   -0.77098E-04   -0.28470E-05  7233   0.117E-02    0.133E-01
RMM:   5    -0.705655033335E+03    0.78041E-04   -0.11683E-05  6860   0.700E-03    0.368E-02
RMM:   6    -0.705655039538E+03   -0.62039E-05   -0.64725E-06  6213   0.487E-03    0.434E-02
RMM:   7    -0.705655043529E+03   -0.39902E-05   -0.29119E-06  5372   0.388E-03    0.351E-02
RMM:   8    -0.705655048376E+03   -0.48474E-05   -0.15823E-06  3581   0.314E-03
  53 F= -.70565505E+03 E0= -.70503738E+03  d E =-.485123E-03  mag=     7.5132
       N       E                     dE             d eps       ncg     rms          rms(c)
DAV:   1    -0.705655074171E+03   -0.30642E-04   -0.95195E-04 13200   0.475E-02    0.192E-02
RMM:   2    -0.705655111081E+03   -0.36910E-04   -0.26547E-05  7157   0.997E-03    0.781E-02
RMM:   3    -0.705655093072E+03    0.18008E-04   -0.83610E-06  6868   0.646E-03    0.477E-02
RMM:   4    -0.705655083982E+03    0.90908E-05   -0.86709E-07  3276   0.303E-03    0.144E-02
RMM:   5    -0.705655087703E+03   -0.37215E-05   -0.11736E-07  1411   0.267E-03    0.854E-03
RMM:   6    -0.705655091914E+03   -0.42108E-05   -0.10743E-07  1259   0.262E-03    0.105E-02
RMM:   7    -0.705655098429E+03   -0.65147E-05   -0.32218E-07  1693   0.277E-03    0.688E-03
RMM:   8    -0.705655103426E+03   -0.49977E-05   -0.29191E-07  1638   0.270E-03
  54 F= -.70565510E+03 E0= -.70503746E+03  d E =-.540173E-03  mag=     7.5119
       N       E                     dE             d eps       ncg     rms          rms(c)
DAV:   1    -0.705655417073E+03   -0.31864E-03   -0.90321E-03 14016   0.138E-01    0.278E-02
RMM:   2    -0.705655461494E+03   -0.44421E-04   -0.18588E-04  7568   0.263E-02    0.909E-02
RMM:   3    -0.705655438192E+03    0.23303E-04   -0.32430E-05  7156   0.135E-02    0.341E-02
RMM:   4    -0.705655449880E+03   -0.11689E-04   -0.94963E-06  6845   0.586E-03    0.589E-02
RMM:   5    -0.705655435964E+03    0.13917E-04   -0.49565E-06  6222   0.481E-03    0.210E-02
RMM:   6    -0.705655435871E+03    0.92179E-07   -0.15302E-06  3850   0.327E-03    0.194E-02
RMM:   7    -0.705655435790E+03    0.80996E-07   -0.11370E-06  3480   0.317E-03    0.100E-02
RMM:   8    -0.705655437850E+03   -0.20593E-05   -0.14786E-06  3153   0.303E-03
  55 F= -.70565544E+03 E0= -.70503781E+03  d E =-.334423E-03  mag=     7.5107
       N       E                     dE             d eps       ncg     rms          rms(c)
DAV:   1    -0.705655498925E+03   -0.63135E-04   -0.54687E-03 13888   0.108E-01    0.209E-02
RMM:   2    -0.705655522350E+03   -0.23424E-04   -0.11296E-04  7237   0.205E-02    0.656E-02
RMM:   3    -0.705655513029E+03    0.93210E-05   -0.18979E-05  7144   0.104E-02    0.272E-02
RMM:   4    -0.705655516832E+03   -0.38033E-05   -0.56187E-06  6571   0.459E-03    0.393E-02
RMM:   5    -0.705655512283E+03    0.45492E-05   -0.30426E-06  5699   0.397E-03    0.231E-02
RMM:   6    -0.705655512133E+03    0.15021E-06   -0.49489E-07  2698   0.285E-03    0.155E-02
RMM:   7    -0.705655512561E+03   -0.42830E-06   -0.35901E-07  2200   0.287E-03    0.938E-03
RMM:   8    -0.705655514605E+03   -0.20439E-05   -0.66567E-07  2326   0.295E-03
  56 F= -.70565551E+03 E0= -.70503795E+03  d E =-.411178E-03  mag=     7.5096
       N       E                     dE             d eps       ncg     rms          rms(c)
DAV:   1    -0.705655679839E+03   -0.16728E-03   -0.10397E-02 13984   0.143E-01    0.314E-02
RMM:   2    -0.705655740974E+03   -0.61136E-04   -0.21315E-04  7894   0.287E-02    0.105E-01
RMM:   3    -0.705655705480E+03    0.35494E-04   -0.40667E-05  7195   0.149E-02    0.465E-02
RMM:   4    -0.705655704435E+03    0.10444E-05   -0.11457E-05  6877   0.657E-03    0.428E-02
RMM:   5    -0.705655699064E+03    0.53715E-05   -0.58066E-06  6324   0.508E-03    0.265E-02
RMM:   6    -0.705655696812E+03    0.22516E-05   -0.32996E-06  5238   0.370E-03    0.217E-02
RMM:   7    -0.705655695733E+03    0.10791E-05   -0.16230E-06  4109   0.332E-03    0.102E-02
RMM:   8    -0.705655696519E+03   -0.78599E-06   -0.94211E-07  2789   0.290E-03
  57 F= -.70565570E+03 E0= -.70503814E+03  d E =-.181914E-03  mag=     7.5086
       N       E                     dE             d eps       ncg     rms          rms(c)
DAV:   1    -0.705655698311E+03   -0.25776E-05   -0.47810E-05  7728   0.106E-02    0.848E-03
RMM:   2    -0.705655704556E+03   -0.62455E-05   -0.58775E-06  6334   0.567E-03    0.250E-02
RMM:   3    -0.705655702769E+03    0.17870E-05   -0.10778E-06  3664   0.333E-03    0.151E-02
RMM:   4    -0.705655702561E+03    0.20835E-06   -0.53829E-08  1426   0.253E-03    0.872E-03
RMM:   5    -0.705655703884E+03   -0.13225E-05   -0.41862E-08  1339   0.247E-03    0.775E-03
RMM:   6    -0.705655705972E+03   -0.20883E-05   -0.56054E-09   965   0.243E-03    0.574E-03
RMM:   7    -0.705655709462E+03   -0.34899E-05   -0.83777E-09   991   0.245E-03    0.386E-03
RMM:   8    -0.705655712460E+03   -0.29983E-05   -0.28049E-08  1058   0.247E-03
  58 F= -.70565571E+03 E0= -.70503817E+03  d E =-.197855E-03  mag=     7.5077
       N       E                     dE             d eps       ncg     rms          rms(c)
DAV:   1    -0.705655873421E+03   -0.16396E-03   -0.88312E-03 13968   0.130E-01    0.247E-02
RMM:   2    -0.705655903369E+03   -0.29948E-04   -0.16684E-04  7508   0.255E-02    0.724E-02
RMM:   3    -0.705655890535E+03    0.12834E-04   -0.30047E-05  7157   0.129E-02    0.259E-02
RMM:   4    -0.705655903928E+03   -0.13392E-04   -0.94683E-06  6712   0.581E-03    0.600E-02
RMM:   5    -0.705655886170E+03    0.17758E-04   -0.47934E-06  6250   0.483E-03    0.182E-02
RMM:   6    -0.705655883535E+03    0.26349E-05   -0.96968E-07  3197   0.310E-03    0.154E-02
RMM:   7    -0.705655881597E+03    0.19376E-05   -0.15432E-06  3628   0.322E-03    0.116E-02
RMM:   8    -0.705655881232E+03    0.36552E-06   -0.15277E-06  3066   0.301E-03
  59 F= -.70565588E+03 E0= -.70503836E+03  d E =-.168772E-03  mag=     7.5068
       N       E                     dE             d eps       ncg     rms          rms(c)
DAV:   1    -0.705655890174E+03   -0.85770E-05   -0.78685E-04 13216   0.391E-02    0.100E-02
RMM:   2    -0.705655898477E+03   -0.83028E-05   -0.16664E-05  7074   0.801E-03    0.341E-02
RMM:   3    -0.705655893999E+03    0.44780E-05   -0.35007E-06  6527   0.449E-03    0.171E-02
RMM:   4    -0.705655892970E+03    0.10292E-05   -0.20391E-08  1588   0.226E-03    0.644E-03
RMM:   5    -0.705655893770E+03   -0.79935E-06   -0.15452E-08  1393   0.228E-03    0.101E-02
RMM:   6    -0.705655894119E+03   -0.34991E-06   -0.18466E-09  1157   0.229E-03    0.718E-03
RMM:   7    -0.705655894934E+03   -0.81431E-06   -0.12079E-09  1006   0.230E-03    0.479E-03
RMM:   8    -0.705655895951E+03   -0.10174E-05   -0.18229E-09   908   0.233E-03
  60 F= -.70565590E+03 E0= -.70503838E+03  d E =-.183491E-03  mag=     7.5060
       N       E                     dE             d eps       ncg     rms          rms(c)
DAV:   1    -0.705656005250E+03   -0.11032E-03   -0.69015E-03 13904   0.112E-01    0.220E-02
RMM:   2    -0.705656025760E+03   -0.20511E-04   -0.12771E-04  7284   0.224E-02    0.547E-02
RMM:   3    -0.705656019439E+03    0.63217E-05   -0.23475E-05  7150   0.112E-02    0.268E-02
RMM:   4    -0.705656025201E+03   -0.57626E-05   -0.72728E-06  6437   0.523E-03    0.456E-02
RMM:   5    -0.705656014356E+03    0.10845E-04   -0.39407E-06  6064   0.434E-03    0.200E-02
RMM:   6    -0.705656010410E+03    0.39455E-05   -0.10548E-06  3203   0.313E-03    0.119E-02
RMM:   7    -0.705656008273E+03    0.21378E-05   -0.10305E-06  3010   0.310E-03    0.697E-03
RMM:   8    -0.705656007615E+03    0.65775E-06   -0.48572E-07  1880   0.285E-03
  61 F= -.70565601E+03 E0= -.70503850E+03  d E =-.111664E-03  mag=     7.5050
       N       E                     dE             d eps       ncg     rms          rms(c)
DAV:   1    -0.705656013918E+03   -0.56453E-05   -0.50926E-04 13216   0.305E-02    0.818E-03
RMM:   2    -0.705656020329E+03   -0.64111E-05   -0.10603E-05  7111   0.646E-03    0.306E-02
RMM:   3    -0.705656016716E+03    0.36129E-05   -0.17547E-06  4839   0.364E-03    0.152E-02
RMM:   4    -0.705656016105E+03    0.61110E-06   -0.20130E-08  1339   0.240E-03    0.679E-03
RMM:   5    -0.705656016767E+03   -0.66261E-06   -0.90960E-09  1143   0.238E-03    0.855E-03
RMM:   6    -0.705656017891E+03   -0.11240E-05   -0.27410E-08  1066   0.240E-03    0.643E-03
RMM:   7    -0.705656019059E+03   -0.11678E-05   -0.72036E-09   951   0.238E-03    0.347E-03
RMM:   8    -0.705656020016E+03   -0.95699E-06   -0.13340E-09   879   0.238E-03
  62 F= -.70565602E+03 E0= -.70503851E+03  d E =-.124065E-03  mag=     7.5041
       N       E                     dE             d eps       ncg     rms          rms(c)
DAV:   1    -0.705656114998E+03   -0.95938E-04   -0.48796E-03 13920   0.936E-02    0.183E-02
RMM:   2    -0.705656126507E+03   -0.11509E-04   -0.90442E-05  7143   0.189E-02    0.338E-02
RMM:   3    -0.705656125156E+03    0.13501E-05   -0.16329E-05  7102   0.944E-03    0.166E-02
RMM:   4    -0.705656133079E+03   -0.79225E-05   -0.51084E-06  6173   0.442E-03    0.425E-02
RMM:   5    -0.705656124146E+03    0.89327E-05   -0.20964E-06  5070   0.359E-03    0.166E-02
RMM:   6    -0.705656123256E+03    0.89012E-06   -0.58806E-07  2583   0.276E-03    0.112E-02
RMM:   7    -0.705656123003E+03    0.25359E-06   -0.22311E-07  1897   0.270E-03    0.988E-03
RMM:   8    -0.705656122985E+03    0.17768E-07   -0.32906E-07  1718   0.279E-03
  63 F= -.70565612E+03 E0= -.70503862E+03  d E =-.102969E-03  mag=     7.5033
       N       E                     dE             d eps       ncg     rms          rms(c)
DAV:   1    -0.705656137817E+03   -0.14814E-04   -0.14333E-03 13264   0.508E-02    0.102E-02
RMM:   2    -0.705656144824E+03   -0.70074E-05   -0.28424E-05  7147   0.109E-02    0.264E-02
RMM:   3    -0.705656142401E+03    0.24234E-05   -0.56715E-06  7010   0.546E-03    0.146E-02
RMM:   4    -0.705656141933E+03    0.46738E-06   -0.18685E-07  2101   0.275E-03    0.740E-03
RMM:   5    -0.705656142099E+03   -0.16535E-06   -0.22706E-08  1543   0.271E-03    0.837E-03
RMM:   6    -0.705656142551E+03   -0.45264E-06   -0.23044E-09  1235   0.272E-03    0.493E-03
RMM:   7    -0.705656143097E+03   -0.54613E-06   -0.56807E-08  1165   0.282E-03    0.369E-03
RMM:   8    -0.705656143872E+03   -0.77482E-06   -0.10436E-07  1072   0.284E-03
  64 F= -.70565614E+03 E0= -.70503864E+03  d E =-.123856E-03  mag=     7.5025
       N       E                     dE             d eps       ncg     rms          rms(c)
DAV:   1    -0.705656214146E+03   -0.71049E-04   -0.29342E-03 13408   0.721E-02    0.138E-02
RMM:   2    -0.705656227112E+03   -0.12965E-04   -0.56424E-05  7149   0.155E-02    0.389E-02
RMM:   3    -0.705656222198E+03    0.49134E-05   -0.11284E-05  7098   0.762E-03    0.196E-02
RMM:   4    -0.705656220960E+03    0.12387E-05   -0.30736E-06  5819   0.390E-03    0.142E-02
RMM:   5    -0.705656220863E+03    0.96938E-07   -0.25786E-07  2357   0.281E-03    0.122E-02
RMM:   6    -0.705656220044E+03    0.81878E-06   -0.28626E-07  2049   0.287E-03    0.861E-03
RMM:   7    -0.705656219963E+03    0.80676E-07   -0.54456E-07  2286   0.295E-03    0.555E-03
RMM:   8    -0.705656220238E+03   -0.27496E-06   -0.53131E-07  1936   0.284E-03
  65 F= -.70565622E+03 E0= -.70503873E+03  d E =-.763661E-04  mag=     7.5017
       N       E                     dE             d eps       ncg     rms          rms(c)
DAV:   1    -0.705656244241E+03   -0.24278E-04   -0.38256E-03 13552   0.826E-02    0.166E-02
RMM:   2    -0.705656260550E+03   -0.16309E-04   -0.71344E-05  7148   0.169E-02    0.473E-02
RMM:   3    -0.705656255168E+03    0.53820E-05   -0.14373E-05  7131   0.864E-03    0.275E-02
RMM:   4    -0.705656251788E+03    0.33797E-05   -0.41898E-06  6233   0.435E-03    0.153E-02
RMM:   5    -0.705656251568E+03    0.21946E-06   -0.61786E-07  2994   0.294E-03    0.143E-02
RMM:   6    -0.705656249835E+03    0.17336E-05   -0.36963E-07  2089   0.284E-03    0.634E-03
RMM:   7    -0.705656249527E+03    0.30821E-06   -0.53032E-07  2267   0.290E-03    0.756E-03
RMM:   8    -0.705656249501E+03    0.25240E-07   -0.12627E-07  1409   0.270E-03
  66 F= -.70565625E+03 E0= -.70503878E+03  d E =-.105629E-03  mag=     7.5008
       N       E                     dE             d eps       ncg     rms          rms(c)
DAV:   1    -0.705656315324E+03   -0.65797E-04   -0.27690E-03 13456   0.702E-02    0.133E-02
RMM:   2    -0.705656320856E+03   -0.55324E-05   -0.50323E-05  7122   0.145E-02    0.201E-02
RMM:   3    -0.705656321637E+03   -0.78100E-06   -0.93802E-06  7004   0.709E-03    0.106E-02
RMM:   4    -0.705656327131E+03   -0.54938E-05   -0.22854E-06  4634   0.354E-03    0.319E-02
RMM:   5    -0.705656323238E+03    0.38933E-05   -0.36093E-07  2685   0.297E-03    0.150E-02
RMM:   6    -0.705656323351E+03   -0.11364E-06   -0.14722E-07  1762   0.286E-03    0.757E-03
RMM:   7    -0.705656324392E+03   -0.10400E-05   -0.28959E-07  1835   0.289E-03    0.576E-03
RMM:   8    -0.705656325389E+03   -0.99748E-06   -0.28913E-07  1499   0.282E-03
  67 F= -.70565633E+03 E0= -.70503888E+03  d E =-.758875E-04  mag=     7.5001
       N       E                     dE             d eps       ncg     rms          rms(c)
DAV:   1    -0.705656352468E+03   -0.28077E-04   -0.52851E-03 13936   0.969E-02    0.195E-02
RMM:   2    -0.705656368038E+03   -0.15570E-04   -0.93909E-05  7223   0.196E-02    0.423E-02
RMM:   3    -0.705656366858E+03    0.11799E-05   -0.18417E-05  7102   0.971E-03    0.331E-02
RMM:   4    -0.705656363311E+03    0.35464E-05   -0.50258E-06  6167   0.480E-03    0.137E-02
RMM:   5    -0.705656364821E+03   -0.15093E-05   -0.17290E-06  4318   0.357E-03    0.212E-02
RMM:   6    -0.705656364660E+03    0.16099E-06   -0.17367E-06  4482   0.329E-03    0.131E-02
RMM:   7    -0.705656364952E+03   -0.29170E-06   -0.46564E-07  2266   0.287E-03    0.606E-03
RMM:   8    -0.705656365475E+03   -0.52302E-06   -0.15830E-07  1599   0.265E-03
  68 F= -.70565637E+03 E0= -.70503893E+03  d E =-.115973E-03  mag=     7.4995
       N       E                     dE             d eps       ncg     rms          rms(c)
DAV:   1    -0.705656439191E+03   -0.74240E-04   -0.42148E-03 13920   0.871E-02    0.182E-02
RMM:   2    -0.705656451423E+03   -0.12232E-04   -0.78527E-05  7222   0.178E-02    0.455E-02
RMM:   3    -0.705656448113E+03    0.33098E-05   -0.14804E-05  7121   0.879E-03    0.211E-02
RMM:   4    -0.705656452555E+03   -0.44418E-05   -0.46968E-06  6095   0.437E-03    0.409E-02
RMM:   5    -0.705656448881E+03    0.36745E-05   -0.14619E-06  4365   0.338E-03    0.239E-02
RMM:   6    -0.705656445923E+03    0.29575E-05   -0.83090E-07  2995   0.293E-03    0.118E-02
RMM:   7    -0.705656445615E+03    0.30798E-06   -0.39508E-07  2182   0.272E-03    0.888E-03
RMM:   8    -0.705656445804E+03   -0.18925E-06   -0.20467E-07  1487   0.263E-03
  69 F= -.70565645E+03 E0= -.70503907E+03  d E =-.803298E-04  mag=     7.4988
       N       E                     dE             d eps       ncg     rms          rms(c)
DAV:   1    -0.705656461848E+03   -0.16233E-04   -0.23661E-03 13440   0.652E-02    0.157E-02
RMM:   2    -0.705656475401E+03   -0.13552E-04   -0.45758E-05  7175   0.139E-02    0.423E-02
RMM:   3    -0.705656470045E+03    0.53556E-05   -0.97833E-06  7076   0.698E-03    0.322E-02
RMM:   4    -0.705656467563E+03    0.24822E-05   -0.20554E-06  4862   0.351E-03    0.158E-02
RMM:   5    -0.705656466907E+03    0.65571E-06   -0.14060E-07  2008   0.276E-03    0.141E-02
RMM:   6    -0.705656467365E+03   -0.45722E-06   -0.10926E-07  1672   0.275E-03    0.123E-02
RMM:   7    -0.705656467448E+03   -0.83492E-07   -0.48180E-07  2304   0.293E-03    0.836E-03
RMM:   8    -0.705656467364E+03    0.84096E-07   -0.67650E-08  1281   0.271E-03
  70 F= -.70565647E+03 E0= -.70503911E+03  d E =-.101889E-03  mag=     7.4982
       N       E                     dE             d eps       ncg     rms          rms(c)
DAV:   1    -0.705656533150E+03   -0.65702E-04   -0.42900E-03 13520   0.917E-02    0.187E-02
RMM:   2    -0.705656542828E+03   -0.96774E-05   -0.84466E-05  7183   0.182E-02    0.370E-02
RMM:   3    -0.705656542447E+03    0.38090E-06   -0.14421E-05  7086   0.884E-03    0.212E-02
RMM:   4    -0.705656546384E+03   -0.39370E-05   -0.41539E-06  6232   0.411E-03    0.296E-02
RMM:   5    -0.705656544436E+03    0.19474E-05   -0.19722E-06  4759   0.353E-03    0.260E-02
RMM:   6    -0.705656543999E+03    0.43734E-06   -0.65490E-07  2900   0.293E-03    0.166E-02
RMM:   7    -0.705656544893E+03   -0.89389E-06   -0.54691E-07  2312   0.282E-03    0.103E-02
RMM:   8    -0.705656545481E+03   -0.58798E-06   -0.52038E-07  2109   0.274E-03
  71 F= -.70565655E+03 E0= -.70503921E+03  d E =-.781168E-04  mag=     7.4977
       N       E                     dE             d eps       ncg     rms          rms(c)
DAV:   1    -0.705656549712E+03   -0.48193E-05   -0.58279E-04 13184   0.339E-02    0.924E-03
RMM:   2    -0.705656554276E+03   -0.45637E-05   -0.12927E-05  7119   0.736E-03    0.245E-02
RMM:   3    -0.705656552510E+03    0.17660E-05   -0.20241E-06  5236   0.373E-03    0.105E-02
RMM:   4    -0.705656553313E+03   -0.80370E-06   -0.28645E-08  1537   0.243E-03    0.122E-02
RMM:   5    -0.705656553760E+03   -0.44687E-06   -0.42507E-09  1223   0.238E-03    0.414E-03
RMM:   6    -0.705656555880E+03   -0.21196E-05   -0.56863E-09  1126   0.235E-03    0.670E-03
RMM:   7    -0.705656556518E+03   -0.63856E-06   -0.50929E-09   989   0.235E-03    0.311E-03
RMM:   8    -0.705656557120E+03   -0.60152E-06   -0.44285E-16   844   0.234E-03
  72 F= -.70565656E+03 E0= -.70503924E+03  d E =-.897560E-04  mag=     7.4973
       N       E                     dE             d eps       ncg     rms          rms(c)
DAV:   1    -0.705656604787E+03   -0.48269E-04   -0.31527E-03 13328   0.776E-02    0.152E-02
RMM:   2    -0.705656611893E+03   -0.71057E-05   -0.63327E-05  7141   0.162E-02    0.311E-02
RMM:   3    -0.705656611885E+03    0.76543E-08   -0.11251E-05  7054   0.781E-03    0.132E-02
RMM:   4    -0.705656621764E+03   -0.98794E-05   -0.32691E-06  5332   0.392E-03    0.478E-02
RMM:   5    -0.705656612229E+03    0.95352E-05   -0.86596E-07  3556   0.321E-03    0.148E-02
RMM:   6    -0.705656613125E+03   -0.89590E-06   -0.60397E-07  2476   0.290E-03    0.100E-02
RMM:   7    -0.705656613777E+03   -0.65185E-06   -0.51711E-07  2225   0.274E-03    0.854E-03
RMM:   8    -0.705656614322E+03   -0.54452E-06   -0.18097E-07  1397   0.255E-03
  73 F= -.70565661E+03 E0= -.70503933E+03  d E =-.572015E-04  mag=     7.4970
       N       E                     dE             d eps       ncg     rms          rms(c)
DAV:   1    -0.705656622831E+03   -0.90542E-05   -0.14556E-03 13392   0.527E-02    0.120E-02
RMM:   2    -0.705656628162E+03   -0.53306E-05   -0.29989E-05  7135   0.111E-02    0.228E-02
RMM:   3    -0.705656627543E+03    0.61859E-06   -0.55840E-06  6919   0.542E-03    0.190E-02
RMM:   4    -0.705656626804E+03    0.73954E-06   -0.26971E-07  2118   0.266E-03    0.705E-03
RMM:   5    -0.705656628621E+03   -0.18173E-05   -0.15519E-07  2009   0.269E-03    0.206E-02
RMM:   6    -0.705656628048E+03    0.57249E-06   -0.11457E-08  1454   0.261E-03    0.798E-03
RMM:   7    -0.705656628619E+03   -0.57112E-06   -0.92215E-08  1280   0.275E-03    0.475E-03
RMM:   8    -0.705656629040E+03   -0.42004E-06   -0.74698E-09  1010   0.270E-03
  74 F= -.70565663E+03 E0= -.70503936E+03  d E =-.719195E-04  mag=     7.4968
       N       E                     dE             d eps       ncg     rms          rms(c)
DAV:   1    -0.705656671025E+03   -0.42405E-04   -0.11131E-03 13184   0.479E-02    0.827E-03
RMM:   2    -0.705656674481E+03   -0.34566E-05   -0.23536E-05  7118   0.984E-03    0.152E-02
RMM:   3    -0.705656674321E+03    0.16022E-06   -0.39906E-06  6865   0.474E-03    0.649E-03
RMM:   4    -0.705656676194E+03   -0.18731E-05   -0.77326E-09  1500   0.231E-03    0.160E-02
RMM:   5    -0.705656675543E+03    0.65163E-06   -0.45526E-09  1451   0.231E-03    0.919E-03
RMM:   6    -0.705656676075E+03   -0.53241E-06   -0.42730E-09  1212   0.231E-03    0.552E-03
RMM:   7    -0.705656676950E+03   -0.87497E-06   -0.98796E-09  1109   0.235E-03    0.226E-03
RMM:   8    -0.705656677574E+03   -0.62373E-06   -0.66449E-09   936   0.240E-03
  75 F= -.70565668E+03 E0= -.70503942E+03  d E =-.485342E-04  mag=     7.4966
