       N       E                     dE             d eps       ncg     rms          rms(c)
DAV:   1     0.784382889848E+04    0.78438E+04   -0.31223E+05 13664   0.127E+03
DAV:   2     0.606558693102E+03   -0.72373E+04   -0.65462E+04 14528   0.374E+02
DAV:   3    -0.790227704172E+03   -0.13968E+04   -0.13375E+04 17040   0.165E+02
DAV:   4    -0.867024580256E+03   -0.76797E+02   -0.74845E+02 18720   0.431E+01
DAV:   5    -0.868596977297E+03   -0.15724E+01   -0.15496E+01 17472   0.575E+00    0.197E+02
RMM:   6    -0.767041167725E+03    0.10156E+03   -0.70865E+02 13483   0.426E+01    0.206E+02
RMM:   7    -0.105468489211E+04   -0.28764E+03   -0.25441E+02 14091   0.260E+01    0.360E+02
RMM:   8    -0.931989030313E+03    0.12270E+03   -0.75134E+01 16111   0.973E+00    0.328E+02
RMM:   9    -0.125316884738E+04   -0.32118E+03   -0.35059E+02 18822   0.244E+01    0.364E+02
RMM:  10    -0.875307400815E+03    0.37786E+03   -0.11680E+02 15875   0.153E+01    0.170E+02
RMM:  11    -0.729780966160E+03    0.14553E+03   -0.44140E+01 13607   0.113E+01    0.103E+02
RMM:  12    -0.712932431232E+03    0.16849E+02   -0.69589E+01 15587   0.115E+01    0.113E+02
RMM:  13    -0.691894187352E+03    0.21038E+02   -0.95196E+00 14308   0.504E+00    0.100E+02
RMM:  14    -0.653833697317E+03    0.38060E+02   -0.56476E+00 13458   0.343E+00    0.709E+01
RMM:  15    -0.649845397416E+03    0.39883E+01   -0.28645E+00 14501   0.243E+00    0.622E+01
RMM:  16    -0.654408304742E+03   -0.45629E+01   -0.57111E+00 15676   0.344E+00    0.524E+01
RMM:  17    -0.658824337787E+03   -0.44160E+01   -0.40051E+00 14672   0.299E+00    0.412E+01
RMM:  18    -0.661019198116E+03   -0.21949E+01   -0.33524E+00 14811   0.266E+00    0.323E+01
RMM:  19    -0.661867690487E+03   -0.84849E+00   -0.13933E+00 13672   0.187E+00    0.313E+01
RMM:  20    -0.668362426276E+03   -0.64947E+01   -0.77738E+00 17904   0.380E+00    0.248E+01
RMM:  21    -0.674843291861E+03   -0.64809E+01   -0.37873E+00 16249   0.277E+00    0.181E+01
RMM:  22    -0.680818267854E+03   -0.59750E+01   -0.26042E+00 15147   0.226E+00    0.184E+01
RMM:  23    -0.683298639089E+03   -0.24804E+01   -0.82816E-01 13637   0.141E+00    0.176E+01
RMM:  24    -0.687970979877E+03   -0.46723E+01   -0.22127E+00 15379   0.201E+00    0.171E+01
RMM:  25    -0.689731899219E+03   -0.17609E+01   -0.64612E-01 13906   0.123E+00    0.169E+01
RMM:  26    -0.692122780611E+03   -0.23909E+01   -0.59542E-01 14459   0.106E+00    0.185E+01
RMM:  27    -0.692992567623E+03   -0.86979E+00   -0.30683E-01 13807   0.803E-01    0.166E+01
RMM:  28    -0.694120477820E+03   -0.11279E+01   -0.30318E-01 14521   0.733E-01    0.142E+01
RMM:  29    -0.695880946688E+03   -0.17605E+01   -0.36327E-01 15497   0.787E-01    0.123E+01
RMM:  30    -0.698953117171E+03   -0.30722E+01   -0.85419E-01 17892   0.115E+00    0.779E+00
RMM:  31    -0.700926195866E+03   -0.19731E+01   -0.25621E-01 15131   0.676E-01    0.605E+00
RMM:  32    -0.702143460412E+03   -0.12173E+01   -0.16223E-01 14312   0.540E-01    0.555E+00
RMM:  33    -0.703390236491E+03   -0.12468E+01   -0.17085E-01 15295   0.528E-01    0.457E+00
RMM:  34    -0.704733779287E+03   -0.13435E+01   -0.25460E-01 16475   0.619E-01    0.391E+00
RMM:  35    -0.706037143882E+03   -0.13034E+01   -0.30770E-01 16408   0.663E-01    0.381E+00
RMM:  36    -0.706702677713E+03   -0.66553E+00   -0.90907E-02 14485   0.395E-01    0.324E+00
RMM:  37    -0.707220245283E+03   -0.51757E+00   -0.47678E-02 13891   0.306E-01    0.264E+00
RMM:  38    -0.707591621860E+03   -0.37138E+00   -0.52184E-02 14804   0.281E-01    0.225E+00
RMM:  39    -0.707832302338E+03   -0.24068E+00   -0.29883E-02 14291   0.224E-01    0.189E+00
RMM:  40    -0.708108456403E+03   -0.27615E+00   -0.35333E-02 15212   0.228E-01    0.185E+00
RMM:  41    -0.708472106755E+03   -0.36365E+00   -0.34893E-02 15276   0.224E-01    0.175E+00
RMM:  42    -0.708783230313E+03   -0.31112E+00   -0.42630E-02 16206   0.243E-01    0.152E+00
RMM:  43    -0.708890713510E+03   -0.10748E+00   -0.36360E-02 16033   0.205E-01    0.127E+00
RMM:  44    -0.708947634191E+03   -0.56921E-01   -0.92947E-03 14139   0.120E-01    0.116E+00
RMM:  45    -0.709001556371E+03   -0.53922E-01   -0.35006E-03 13226   0.751E-02    0.108E+00
RMM:  46    -0.709070460826E+03   -0.68904E-01   -0.25914E-03 13411   0.638E-02    0.993E-01
RMM:  47    -0.709153015878E+03   -0.82555E-01   -0.19321E-03 13841   0.617E-02    0.919E-01
RMM:  48    -0.709239084612E+03   -0.86069E-01   -0.13120E-03 13464   0.549E-02    0.875E-01
RMM:  49    -0.709312072294E+03   -0.72988E-01   -0.74900E-04 12395   0.429E-02    0.795E-01
RMM:  50    -0.709363440416E+03   -0.51368E-01   -0.50592E-04 11616   0.341E-02    0.682E-01
RMM:  51    -0.709369302015E+03   -0.58616E-02   -0.21277E-03 14605   0.516E-02    0.646E-01
RMM:  52    -0.709405835748E+03   -0.36534E-01   -0.26706E-04  9315   0.246E-02    0.433E-01
RMM:  53    -0.709420181888E+03   -0.14346E-01   -0.24503E-04  9044   0.239E-02    0.333E-01
RMM:  54    -0.709434315233E+03   -0.14133E-01   -0.20267E-04  8625   0.231E-02    0.180E-01
RMM:  55    -0.709450481029E+03   -0.16166E-01   -0.16491E-04  8581   0.197E-02    0.111E-01
RMM:  56    -0.709441387990E+03    0.90930E-02   -0.14758E-04  8402   0.196E-02    0.800E-02
RMM:  57    -0.709455720626E+03   -0.14333E-01   -0.60643E-05  8148   0.135E-02    0.478E-02
RMM:  58    -0.709463979490E+03   -0.82589E-02   -0.44443E-05  7739   0.936E-03    0.386E-02
RMM:  59    -0.709471811547E+03   -0.78321E-02   -0.35446E-05  7520   0.794E-03    0.348E-02
RMM:  60    -0.709475527977E+03   -0.37164E-02   -0.19718E-05  6520   0.622E-03    0.233E-02
RMM:  61    -0.709477441740E+03   -0.19138E-02   -0.18540E-05  6552   0.546E-03    0.223E-02
RMM:  62    -0.709479939414E+03   -0.24977E-02   -0.22857E-05  6358   0.539E-03    0.164E-02
RMM:  63    -0.709480640928E+03   -0.70151E-03   -0.90487E-06  5190   0.461E-03    0.120E-02
RMM:  64    -0.709481075892E+03   -0.43496E-03   -0.66830E-06  4635   0.376E-03    0.810E-03
RMM:  65    -0.709481408827E+03   -0.33293E-03   -0.38760E-06  4410   0.367E-03    0.775E-03
RMM:  66    -0.709481487047E+03   -0.78220E-04   -0.24840E-06  3886   0.318E-03
   1 F= -.70948149E+03 E0= -.70886228E+03  d E =-.709481E+03  mag=     7.2793
       N       E                     dE             d eps       ncg     rms          rms(c)
DAV:   1    -0.708893571888E+03    0.58784E+00   -0.25557E+02 13888   0.210E+01    0.643E+00
RMM:   2    -0.709999428394E+03   -0.11059E+01   -0.80195E+00 13445   0.401E+00    0.105E+01
RMM:   3    -0.710432553542E+03   -0.43313E+00   -0.17647E+00 14644   0.191E+00    0.119E+01
RMM:   4    -0.710428964452E+03    0.35891E-02   -0.40977E-01 13446   0.101E+00    0.131E+01
RMM:   5    -0.709658187998E+03    0.77078E+00   -0.14958E-01 13516   0.704E-01    0.629E+00
RMM:   6    -0.709546126794E+03    0.11206E+00   -0.66796E-02 13791   0.396E-01    0.418E+00
RMM:   7    -0.709521793070E+03    0.24334E-01   -0.45054E-02 13670   0.313E-01    0.337E+00
RMM:   8    -0.709508019116E+03    0.13774E-01   -0.26928E-02 13717   0.278E-01    0.258E+00
RMM:   9    -0.709482429974E+03    0.25589E-01   -0.18263E-02 13774   0.215E-01    0.120E+00
RMM:  10    -0.709482228999E+03    0.20097E-03   -0.64260E-03 13776   0.126E-01    0.834E-01
RMM:  11    -0.709482763020E+03   -0.53402E-03   -0.33891E-03 13681   0.814E-02    0.524E-01
RMM:  12    -0.709483782770E+03   -0.10197E-02   -0.17692E-03 12969   0.587E-02    0.359E-01
RMM:  13    -0.709484555678E+03   -0.77291E-03   -0.12615E-03 12941   0.497E-02    0.268E-01
RMM:  14    -0.709485529171E+03   -0.97349E-03   -0.10268E-03 12507   0.443E-02    0.211E-01
RMM:  15    -0.709486292904E+03   -0.76373E-03   -0.47290E-04 10714   0.320E-02    0.160E-01
RMM:  16    -0.709487049405E+03   -0.75650E-03   -0.35291E-04  9708   0.263E-02    0.147E-01
RMM:  17    -0.709487793584E+03   -0.74418E-03   -0.48097E-04  9979   0.279E-02    0.135E-01
RMM:  18    -0.709488187770E+03   -0.39419E-03   -0.34039E-04  9275   0.245E-02    0.123E-01
RMM:  19    -0.709488073184E+03    0.11459E-03   -0.87704E-04 11302   0.349E-02    0.109E-01
RMM:  20    -0.709485888526E+03    0.21847E-02   -0.13892E-03 12144   0.428E-02    0.817E-02
RMM:  21    -0.709485255333E+03    0.63319E-03   -0.12645E-04  8173   0.216E-02    0.563E-02
RMM:  22    -0.709485463480E+03   -0.20815E-03   -0.52200E-05  7825   0.149E-02    0.427E-02
RMM:  23    -0.709485552912E+03   -0.89433E-04   -0.23455E-05  7130   0.821E-03
   2 F= -.70948555E+03 E0= -.70886762E+03  d E =-.406587E-02  mag=     7.2661
       N       E                     dE             d eps       ncg     rms          rms(c)
DAV:   1    -0.709558434120E+03   -0.72971E-01   -0.76008E+01 13824   0.116E+01    0.325E+00
RMM:   2    -0.709835253159E+03   -0.27682E+00   -0.16699E+00 13440   0.220E+00    0.693E+00
RMM:   3    -0.709874210546E+03   -0.38957E-01   -0.31552E-01 13629   0.968E-01    0.544E+00
RMM:   4    -0.709875680263E+03   -0.14697E-02   -0.11160E-01 13827   0.532E-01    0.598E+00
RMM:   5    -0.709731174597E+03    0.14451E+00   -0.34495E-02 13470   0.352E-01    0.330E+00
RMM:   6    -0.709700087060E+03    0.31088E-01   -0.23526E-02 13694   0.226E-01    0.179E+00
RMM:   7    -0.709690201357E+03    0.98857E-02   -0.12689E-02 13595   0.167E-01    0.827E-01
RMM:   8    -0.709692842873E+03   -0.26415E-02   -0.65155E-03 13526   0.129E-01    0.796E-01
RMM:   9    -0.709690575700E+03    0.22672E-02   -0.23384E-03 13070   0.848E-02    0.358E-01
RMM:  10    -0.709690583229E+03   -0.75290E-05   -0.11384E-03 12994   0.469E-02    0.320E-01
RMM:  11    -0.709690041686E+03    0.54154E-03   -0.45317E-04 11087   0.325E-02    0.231E-01
RMM:  12    -0.709688950311E+03    0.10914E-02   -0.55182E-04 10987   0.320E-02    0.121E-01
RMM:  13    -0.709687984757E+03    0.96555E-03   -0.42413E-04 10525   0.290E-02    0.863E-02
RMM:  14    -0.709687693834E+03    0.29092E-03   -0.14516E-04  8191   0.205E-02    0.721E-02
RMM:  15    -0.709687754795E+03   -0.60961E-04   -0.81449E-05  7915   0.153E-02
   3 F= -.70968775E+03 E0= -.70906946E+03  d E =-.206268E+00  mag=     7.2828
       N       E                     dE             d eps       ncg     rms          rms(c)
DAV:   1    -0.709021702588E+03    0.66599E+00   -0.14783E+02 13744   0.176E+01    0.452E+00
RMM:   2    -0.709905402825E+03   -0.88370E+00   -0.45930E+00 13523   0.311E+00    0.916E+00
RMM:   3    -0.709891746108E+03    0.13657E-01   -0.79917E-01 14539   0.132E+00    0.967E+00
RMM:   4    -0.709509317364E+03    0.38243E+00   -0.19349E-01 13472   0.752E-01    0.607E+00
RMM:   5    -0.709413337184E+03    0.95980E-01   -0.88257E-02 13657   0.494E-01    0.425E+00
RMM:   6    -0.709391202926E+03    0.22134E-01   -0.47973E-02 13690   0.352E-01    0.358E+00
RMM:   7    -0.709310944343E+03    0.80259E-01   -0.31052E-02 13772   0.281E-01    0.126E+00
RMM:   8    -0.709297216010E+03    0.13728E-01   -0.14614E-02 13551   0.196E-01    0.109E+00
RMM:   9    -0.709293652922E+03    0.35631E-02   -0.54474E-03 13461   0.119E-01    0.731E-01
RMM:  10    -0.709291657347E+03    0.19956E-02   -0.21693E-03 13474   0.703E-02    0.623E-01
RMM:  11    -0.709290250464E+03    0.14069E-02   -0.94593E-04 12230   0.487E-02    0.368E-01
RMM:  12    -0.709289390079E+03    0.86038E-03   -0.57044E-04 10941   0.320E-02    0.356E-01
RMM:  13    -0.709289713989E+03   -0.32391E-03   -0.89264E-05  7990   0.182E-02    0.364E-01
RMM:  14    -0.709289340477E+03    0.37351E-03   -0.30013E-05  7335   0.944E-03    0.360E-01
RMM:  15    -0.709289698865E+03   -0.35839E-03   -0.19027E-05  7430   0.734E-03    0.373E-01
RMM:  16    -0.709291991105E+03   -0.22922E-02   -0.14405E-04  8295   0.187E-02    0.363E-01
RMM:  17    -0.709304345227E+03   -0.12354E-01   -0.48538E-03 14733   0.833E-02    0.445E-01
RMM:  18    -0.709320601739E+03   -0.16257E-01   -0.83011E-03 16960   0.104E-01    0.645E-01
RMM:  19    -0.709323350104E+03   -0.27484E-02   -0.44934E-04 10389   0.457E-02    0.580E-01
RMM:  20    -0.709320827899E+03    0.25222E-02   -0.49796E-04 10277   0.413E-02    0.364E-01
RMM:  21    -0.709320008039E+03    0.81986E-03   -0.52185E-04 10400   0.346E-02    0.193E-01
RMM:  22    -0.709322268085E+03   -0.22600E-02   -0.16615E-04  8384   0.216E-02    0.141E-01
RMM:  23    -0.709327165229E+03   -0.48971E-02   -0.35153E-04  9206   0.262E-02    0.103E-01
RMM:  24    -0.709329846038E+03   -0.26808E-02   -0.71055E-05  7614   0.145E-02    0.677E-02
RMM:  25    -0.709331410665E+03   -0.15646E-02   -0.41613E-05  7351   0.108E-02    0.476E-02
RMM:  26    -0.709333678767E+03   -0.22681E-02   -0.30820E-05  7082   0.776E-03    0.297E-02
RMM:  27    -0.709335790801E+03   -0.21120E-02   -0.31746E-05  7151   0.733E-03    0.334E-02
RMM:  28    -0.709336984013E+03   -0.11932E-02   -0.15994E-05  6191   0.600E-03    0.286E-02
RMM:  29    -0.709339332858E+03   -0.23488E-02   -0.39665E-05  7035   0.679E-03    0.328E-02
RMM:  30    -0.709340713217E+03   -0.13804E-02   -0.29506E-05  6482   0.594E-03    0.333E-02
RMM:  31    -0.709341723887E+03   -0.10107E-02   -0.34839E-05  6946   0.655E-03    0.367E-02
RMM:  32    -0.709342301414E+03   -0.57753E-03   -0.23831E-05  5907   0.573E-03    0.266E-02
RMM:  33    -0.709342643610E+03   -0.34220E-03   -0.14748E-05  5477   0.513E-03    0.217E-02
RMM:  34    -0.709342952638E+03   -0.30903E-03   -0.99040E-06  5285   0.448E-03    0.121E-02
RMM:  35    -0.709343235018E+03   -0.28238E-03   -0.69126E-06  4831   0.399E-03    0.774E-03
RMM:  36    -0.709343451150E+03   -0.21613E-03   -0.31071E-06  3949   0.346E-03    0.660E-03
RMM:  37    -0.709343693585E+03   -0.24244E-03   -0.21653E-06  3460   0.313E-03    0.651E-03
RMM:  38    -0.709343838230E+03   -0.14465E-03   -0.11240E-06  2964   0.296E-03    0.601E-03
RMM:  39    -0.709344112735E+03   -0.27450E-03   -0.56542E-07  2441   0.281E-03    0.529E-03
RMM:  40    -0.709344260380E+03   -0.14765E-03   -0.87078E-07  2706   0.290E-03    0.498E-03
RMM:  41    -0.709344449836E+03   -0.18946E-03   -0.94020E-07  2590   0.283E-03    0.464E-03
RMM:  42    -0.709344597629E+03   -0.14779E-03   -0.10463E-06  2600   0.283E-03    0.397E-03
RMM:  43    -0.709344703874E+03   -0.10624E-03   -0.11079E-06  2597   0.283E-03    0.309E-03
RMM:  44    -0.709344814864E+03   -0.11099E-03   -0.15658E-06  2826   0.287E-03    0.259E-03
RMM:  45    -0.709344860796E+03   -0.45932E-04   -0.91661E-07  2560   0.283E-03
   4 F= -.70934486E+03 E0= -.70872130E+03  d E =0.342894E+00  mag=     7.0836
       N       E                     dE             d eps       ncg     rms          rms(c)
DAV:   1    -0.709495068531E+03   -0.15025E+00   -0.41853E+01 13696   0.941E+00    0.196E+00
RMM:   2    -0.709650043270E+03   -0.15497E+00   -0.89920E-01 13440   0.153E+00    0.459E+00
RMM:   3    -0.709623031875E+03    0.27011E-01   -0.15205E-01 14062   0.653E-01    0.333E+00
RMM:   4    -0.709618200926E+03    0.48309E-02   -0.37765E-02 13601   0.337E-01    0.346E+00
RMM:   5    -0.709587001822E+03    0.31199E-01   -0.13608E-02 13572   0.209E-01    0.220E+00
RMM:   6    -0.709577842970E+03    0.91589E-02   -0.91628E-03 13600   0.156E-01    0.174E+00
RMM:   7    -0.709562091617E+03    0.15751E-01   -0.80369E-03 13993   0.147E-01    0.621E-01
RMM:   8    -0.709559668818E+03    0.24228E-02   -0.29487E-03 13030   0.885E-02    0.297E-01
RMM:   9    -0.709558890425E+03    0.77839E-03   -0.94013E-04 12443   0.554E-02    0.275E-01
RMM:  10    -0.709558790322E+03    0.10010E-03   -0.34604E-04  9913   0.266E-02    0.222E-01
RMM:  11    -0.709558863917E+03   -0.73594E-04   -0.13570E-04  8231   0.200E-02
   5 F= -.70955886E+03 E0= -.70893787E+03  d E =0.128891E+00  mag=     7.1213
       N       E                     dE             d eps       ncg     rms          rms(c)
DAV:   1    -0.709679158501E+03   -0.12037E+00   -0.73738E+00 13824   0.393E+00    0.842E-01
RMM:   2    -0.709700362116E+03   -0.21204E-01   -0.16339E-01 13440   0.643E-01    0.160E+00
RMM:   3    -0.709698640382E+03    0.17217E-02   -0.24967E-02 14046   0.270E-01    0.129E+00
RMM:   4    -0.709701995837E+03   -0.33555E-02   -0.70784E-03 13700   0.139E-01    0.159E+00
RMM:   5    -0.709693212914E+03    0.87829E-02   -0.25382E-03 12994   0.908E-02    0.850E-01
RMM:   6    -0.709691636706E+03    0.15762E-02   -0.18144E-03 12985   0.704E-02    0.721E-01
RMM:   7    -0.709688459883E+03    0.31768E-02   -0.13807E-03 12936   0.627E-02    0.246E-01
RMM:   8    -0.709688061038E+03    0.39884E-03   -0.51250E-04 11565   0.388E-02    0.145E-01
RMM:   9    -0.709688215759E+03   -0.15472E-03   -0.18401E-04  8687   0.255E-02    0.129E-01
RMM:  10    -0.709688448091E+03   -0.23233E-03   -0.57585E-05  7810   0.142E-02    0.788E-02
RMM:  11    -0.709689001529E+03   -0.55344E-03   -0.32000E-05  7291   0.914E-03    0.637E-02
RMM:  12    -0.709689989838E+03   -0.98831E-03   -0.45742E-05  7613   0.954E-03    0.397E-02
RMM:  13    -0.709690831846E+03   -0.84201E-03   -0.26701E-05  7032   0.793E-03    0.277E-02
RMM:  14    -0.709691523376E+03   -0.69153E-03   -0.15021E-05  6375   0.600E-03    0.230E-02
RMM:  15    -0.709692191397E+03   -0.66802E-03   -0.90723E-06  5189   0.443E-03    0.221E-02
RMM:  16    -0.709693270290E+03   -0.10789E-02   -0.16632E-05  5974   0.485E-03    0.221E-02
RMM:  17    -0.709694618543E+03   -0.13483E-02   -0.31591E-05  6926   0.578E-03    0.234E-02
RMM:  18    -0.709695593407E+03   -0.97486E-03   -0.30977E-05  6469   0.554E-03    0.183E-02
RMM:  19    -0.709696192139E+03   -0.59873E-03   -0.21414E-05  6095   0.522E-03    0.157E-02
RMM:  20    -0.709696625906E+03   -0.43377E-03   -0.14004E-05  5408   0.479E-03    0.127E-02
RMM:  21    -0.709697054600E+03   -0.42869E-03   -0.12985E-05  5260   0.453E-03    0.897E-03
RMM:  22    -0.709697253328E+03   -0.19873E-03   -0.65129E-06  4467   0.407E-03    0.935E-03
RMM:  23    -0.709697414633E+03   -0.16131E-03   -0.33019E-06  3519   0.337E-03    0.542E-03
RMM:  24    -0.709697536173E+03   -0.12154E-03   -0.15288E-06  2951   0.311E-03    0.703E-03
RMM:  25    -0.709697734433E+03   -0.19826E-03   -0.13996E-06  2811   0.299E-03    0.468E-03
RMM:  26    -0.709697869114E+03   -0.13468E-03   -0.10406E-06  2740   0.300E-03    0.435E-03
RMM:  27    -0.709698029014E+03   -0.15990E-03   -0.60359E-07  2495   0.290E-03    0.400E-03
RMM:  28    -0.709698162606E+03   -0.13359E-03   -0.49359E-07  2388   0.288E-03    0.343E-03
RMM:  29    -0.709698260632E+03   -0.98026E-04   -0.66391E-07  2532   0.290E-03
   6 F= -.70969826E+03 E0= -.70907867E+03  d E =-.105058E-01  mag=     7.2732
       N       E                     dE             d eps       ncg     rms          rms(c)
DAV:   1    -0.709731280524E+03   -0.33118E-01   -0.23777E+00 13664   0.223E+00    0.485E-01
RMM:   2    -0.709739916377E+03   -0.86359E-02   -0.53648E-02 13440   0.367E-01    0.108E+00
RMM:   3    -0.709738613324E+03    0.13031E-02   -0.81997E-03 13959   0.156E-01    0.844E-01
RMM:   4    -0.709737656229E+03    0.95709E-03   -0.23890E-03 13203   0.816E-02    0.773E-01
RMM:   5    -0.709735891609E+03    0.17646E-02   -0.87558E-04 12276   0.525E-02    0.491E-01
RMM:   6    -0.709735416936E+03    0.47467E-03   -0.55636E-04 11802   0.399E-02    0.401E-01
RMM:   7    -0.709734277858E+03    0.11391E-02   -0.48567E-04 11078   0.365E-02    0.120E-01
RMM:   8    -0.709734066277E+03    0.21158E-03   -0.16381E-04  8263   0.230E-02    0.946E-02
RMM:   9    -0.709733998498E+03    0.67779E-04   -0.57641E-05  7642   0.166E-02
   7 F= -.70973400E+03 E0= -.70911499E+03  d E =-.462437E-01  mag=     7.2835
       N       E                     dE             d eps       ncg     rms          rms(c)
DAV:   1    -0.709505985548E+03    0.22808E+00   -0.48419E+01 13456   0.101E+01    0.247E+00
RMM:   2    -0.709911684610E+03   -0.40570E+00   -0.13905E+00 13446   0.168E+00    0.804E+00
RMM:   3    -0.709652649213E+03    0.25904E+00   -0.22517E-01 14515   0.737E-01    0.320E+00
RMM:   4    -0.709714192819E+03   -0.61544E-01   -0.65673E-02 13511   0.404E-01    0.518E+00
RMM:   5    -0.709617921087E+03    0.96272E-01   -0.29235E-02 13651   0.293E-01    0.314E+00
RMM:   6    -0.709612880106E+03    0.50410E-02   -0.11108E-02 13401   0.175E-01    0.237E+00
RMM:   7    -0.709590204017E+03    0.22676E-01   -0.16339E-02 14299   0.166E-01    0.119E+00
RMM:   8    -0.709588472575E+03    0.17314E-02   -0.47202E-03 13311   0.121E-01    0.622E-01
RMM:   9    -0.709589242155E+03   -0.76958E-03   -0.14770E-03 13162   0.660E-02    0.582E-01
RMM:  10    -0.709588914397E+03    0.32776E-03   -0.58572E-04 11497   0.361E-02    0.449E-01
RMM:  11    -0.709588758911E+03    0.15549E-03   -0.39124E-04 10314   0.294E-02    0.341E-01
RMM:  12    -0.709588520808E+03    0.23810E-03   -0.39426E-04  9865   0.280E-02    0.218E-01
RMM:  13    -0.709588127034E+03    0.39377E-03   -0.23949E-04  8954   0.233E-02    0.123E-01
RMM:  14    -0.709587824245E+03    0.30279E-03   -0.87242E-05  7941   0.166E-02    0.853E-02
RMM:  15    -0.709587556935E+03    0.26731E-03   -0.46585E-05  7577   0.117E-02    0.630E-02
RMM:  16    -0.709587039591E+03    0.51734E-03   -0.47386E-05  7630   0.105E-02    0.536E-02
RMM:  17    -0.709586580394E+03    0.45920E-03   -0.39726E-05  7313   0.993E-03    0.454E-02
RMM:  18    -0.709586339965E+03    0.24043E-03   -0.23386E-05  6825   0.809E-03    0.421E-02
RMM:  19    -0.709586313111E+03    0.26855E-04   -0.91174E-06  5995   0.561E-03
   8 F= -.70958631E+03 E0= -.70896356E+03  d E =0.147685E+00  mag=     7.2410
       N       E                     dE             d eps       ncg     rms          rms(c)
DAV:   1    -0.709682926617E+03   -0.96587E-01   -0.11236E+01 13792   0.483E+00    0.107E+00
RMM:   2    -0.709760617650E+03   -0.77691E-01   -0.26551E-01 13440   0.775E-01    0.343E+00
RMM:   3    -0.709710527563E+03    0.50090E-01   -0.39183E-02 14123   0.335E-01    0.140E+00
RMM:   4    -0.709724547845E+03   -0.14020E-01   -0.11516E-02 13560   0.177E-01    0.219E+00
RMM:   5    -0.709709409118E+03    0.15139E-01   -0.50348E-03 13421   0.126E-01    0.134E+00
RMM:   6    -0.709707345225E+03    0.20639E-02   -0.23372E-03 12984   0.831E-02    0.908E-01
RMM:   7    -0.709704487767E+03    0.28575E-02   -0.33190E-03 13807   0.791E-02    0.398E-01
RMM:   8    -0.709704530289E+03   -0.42522E-04   -0.89323E-04 12361   0.549E-02
   9 F= -.70970453E+03 E0= -.70908341E+03  d E =0.294682E-01  mag=     7.2324
       N       E                     dE             d eps       ncg     rms          rms(c)
DAV:   1    -0.709753923149E+03   -0.49435E-01   -0.28216E+00 13888   0.243E+00    0.560E-01
RMM:   2    -0.709764875253E+03   -0.10952E-01   -0.68189E-02 13440   0.393E-01    0.127E+00
RMM:   3    -0.709760746036E+03    0.41292E-02   -0.10167E-02 14310   0.169E-01    0.632E-01
RMM:   4    -0.709772282930E+03   -0.11537E-01   -0.32158E-03 13320   0.910E-02    0.161E+00
RMM:   5    -0.709761270396E+03    0.11013E-01   -0.13353E-03 12648   0.684E-02    0.740E-01
RMM:   6    -0.709760154291E+03    0.11161E-02   -0.58688E-04 11566   0.405E-02    0.459E-01
RMM:   7    -0.709759197710E+03    0.95658E-03   -0.67113E-04 11812   0.366E-02    0.198E-01
RMM:   8    -0.709759076447E+03    0.12126E-03   -0.21385E-04  8911   0.270E-02    0.115E-01
RMM:   9    -0.709759018749E+03    0.57697E-04   -0.95482E-05  8058   0.187E-02
  10 F= -.70975902E+03 E0= -.70913905E+03  d E =-.250203E-01  mag=     7.2388
       N       E                     dE             d eps       ncg     rms          rms(c)
DAV:   1    -0.709761986969E+03   -0.29105E-02   -0.95490E-01 13728   0.141E+00    0.331E-01
RMM:   2    -0.709770025435E+03   -0.80385E-02   -0.23625E-02 13440   0.230E-01    0.114E+00
RMM:   3    -0.709763870198E+03    0.61552E-02   -0.35375E-03 13802   0.102E-01    0.399E-01
RMM:   4    -0.709764827382E+03   -0.95718E-03   -0.11454E-03 12488   0.547E-02    0.588E-01
RMM:   5    -0.709763670933E+03    0.11564E-02   -0.42130E-04 10344   0.372E-02    0.385E-01
RMM:   6    -0.709763362877E+03    0.30806E-03   -0.20764E-04  8704   0.258E-02    0.270E-01
RMM:   7    -0.709762835403E+03    0.52747E-03   -0.23177E-04  8703   0.246E-02    0.109E-01
RMM:   8    -0.709762772210E+03    0.63193E-04   -0.97134E-05  7838   0.193E-02
  11 F= -.70976277E+03 E0= -.70914314E+03  d E =-.287737E-01  mag=     7.2506
       N       E                     dE             d eps       ncg     rms          rms(c)
DAV:   1    -0.709764023154E+03   -0.11878E-02   -0.12972E-01 13760   0.521E-01    0.128E-01
RMM:   2    -0.709765812441E+03   -0.17893E-02   -0.32842E-03 13200   0.857E-02    0.498E-01
RMM:   3    -0.709764598983E+03    0.12135E-02   -0.49254E-04 10239   0.392E-02    0.162E-01
RMM:   4    -0.709764671039E+03   -0.72056E-04   -0.18955E-04  7898   0.239E-02    0.189E-01
RMM:   5    -0.709764725616E+03   -0.54578E-04   -0.67141E-05  7288   0.161E-02    0.136E-01
RMM:   6    -0.709764842380E+03   -0.11676E-03   -0.32841E-05  6859   0.103E-02    0.966E-02
RMM:   7    -0.709765022416E+03   -0.18004E-03   -0.38934E-05  7036   0.103E-02    0.390E-02
RMM:   8    -0.709765141990E+03   -0.11957E-03   -0.18017E-05  6517   0.833E-03    0.294E-02
RMM:   9    -0.709765226174E+03   -0.84185E-04   -0.53426E-06  5434   0.464E-03
  12 F= -.70976523E+03 E0= -.70914551E+03  d E =-.312277E-01  mag=     7.2604
       N       E                     dE             d eps       ncg     rms          rms(c)
DAV:   1    -0.709736233312E+03    0.28909E-01   -0.10540E+01 13680   0.478E+00    0.974E-01
RMM:   2    -0.709800443790E+03   -0.64210E-01   -0.22795E-01 13440   0.848E-01    0.388E+00
RMM:   3    -0.709764564957E+03    0.35879E-01   -0.41769E-02 14460   0.354E-01    0.195E+00
RMM:   4    -0.709787766811E+03   -0.23202E-01   -0.11036E-02 14787   0.166E-01    0.267E+00
RMM:   5    -0.709759315299E+03    0.28452E-01   -0.59103E-03 13432   0.125E-01    0.134E+00
RMM:   6    -0.709757663116E+03    0.16522E-02   -0.30699E-03 13266   0.947E-02    0.102E+00
RMM:   7    -0.709756727098E+03    0.93602E-03   -0.21391E-03 13121   0.730E-02    0.661E-01
RMM:   8    -0.709756673100E+03    0.53998E-04   -0.14235E-03 13071   0.567E-02    0.543E-01
RMM:   9    -0.709756298415E+03    0.37468E-03   -0.37581E-04 10692   0.354E-02    0.389E-01
RMM:  10    -0.709756250604E+03    0.47811E-04   -0.12952E-04  8224   0.193E-02
  13 F= -.70975625E+03 E0= -.70913485E+03  d E =0.897557E-02  mag=     7.2622
       N       E                     dE             d eps       ncg     rms          rms(c)
DAV:   1    -0.709756641604E+03   -0.34319E-03   -0.37882E-02 13984   0.287E-01    0.253E-01
RMM:   2    -0.709762127659E+03   -0.54861E-02   -0.22308E-03 13142   0.757E-02    0.106E+00
RMM:   3    -0.709758915125E+03    0.32125E-02   -0.85431E-04 12574   0.590E-02    0.644E-01
RMM:   4    -0.709756695823E+03    0.22193E-02   -0.23650E-04  8645   0.293E-02    0.137E-01
RMM:   5    -0.709756710406E+03   -0.14583E-04   -0.73942E-05  7357   0.172E-02    0.962E-02
RMM:   6    -0.709756705465E+03    0.49416E-05   -0.32798E-05  7024   0.104E-02    0.330E-02
RMM:   7    -0.709756762034E+03   -0.56569E-04   -0.28967E-05  7054   0.859E-03    0.415E-02
RMM:   8    -0.709756779093E+03   -0.17059E-04   -0.10983E-05  6483   0.707E-03
  14 F= -.70975678E+03 E0= -.70913523E+03  d E =0.844708E-02  mag=     7.2612
       N       E                     dE             d eps       ncg     rms          rms(c)
DAV:   1    -0.709786049788E+03   -0.29288E-01   -0.92674E-01 13888   0.142E+00    0.272E-01
RMM:   2    -0.709789687732E+03   -0.36379E-02   -0.19333E-02 13439   0.249E-01    0.841E-01
RMM:   3    -0.709788136136E+03    0.15516E-02   -0.34010E-03 13822   0.102E-01    0.374E-01
RMM:   4    -0.709789638433E+03   -0.15023E-02   -0.95951E-04 12954   0.498E-02    0.617E-01
RMM:   5    -0.709787966275E+03    0.16722E-02   -0.36811E-04 10365   0.337E-02    0.310E-01
RMM:   6    -0.709787848930E+03    0.11734E-03   -0.28285E-04  9202   0.295E-02    0.240E-01
RMM:   7    -0.709787723691E+03    0.12524E-03   -0.16652E-04  8365   0.224E-02    0.136E-01
RMM:   8    -0.709787679520E+03    0.44171E-04   -0.98209E-05  7833   0.180E-02
  15 F= -.70978768E+03 E0= -.70916577E+03  d E =-.309004E-01  mag=     7.2624
       N       E                     dE             d eps       ncg     rms          rms(c)
DAV:   1    -0.709788270942E+03   -0.54725E-03   -0.14948E-02 14016   0.183E-01    0.780E-02
RMM:   2    -0.709788326028E+03   -0.55086E-04   -0.40479E-04  9605   0.356E-02    0.123E-01
RMM:   3    -0.709788285280E+03    0.40748E-04   -0.10687E-04  7538   0.213E-02    0.110E-01
RMM:   4    -0.709788294958E+03   -0.96778E-05   -0.36298E-05  7110   0.111E-02    0.114E-01
RMM:   5    -0.709788210603E+03    0.84355E-04   -0.16985E-05  6625   0.796E-03    0.476E-02
RMM:   6    -0.709788165951E+03    0.44652E-04   -0.14685E-05  6366   0.678E-03    0.417E-02
RMM:   7    -0.709788114787E+03    0.51164E-04   -0.15558E-05  6681   0.688E-03    0.327E-02
RMM:   8    -0.709788078135E+03    0.36652E-04   -0.77525E-06  5707   0.529E-03
  16 F= -.70978808E+03 E0= -.70916598E+03  d E =-.312990E-01  mag=     7.2650
       N       E                     dE             d eps       ncg     rms          rms(c)
DAV:   1    -0.709806490021E+03   -0.18375E-01   -0.11976E-01 13872   0.557E-01    0.993E-02
RMM:   2    -0.709807003429E+03   -0.51341E-03   -0.26061E-03 13412   0.944E-02    0.363E-01
RMM:   3    -0.709806790166E+03    0.21326E-03   -0.38693E-04 10133   0.373E-02    0.227E-01
RMM:   4    -0.709807195844E+03   -0.40568E-03   -0.11024E-04  7674   0.210E-02    0.345E-01
RMM:   5    -0.709806625782E+03    0.57006E-03   -0.61678E-05  7369   0.150E-02    0.148E-01
RMM:   6    -0.709806564627E+03    0.61155E-04   -0.24734E-05  6889   0.948E-03    0.133E-01
RMM:   7    -0.709806484768E+03    0.79859E-04   -0.21732E-05  6818   0.808E-03    0.128E-01
RMM:   8    -0.709806384492E+03    0.10028E-03   -0.19142E-05  6625   0.768E-03    0.981E-02
RMM:   9    -0.709806319172E+03    0.65319E-04   -0.98718E-06  6075   0.592E-03
  17 F= -.70980632E+03 E0= -.70918428E+03  d E =-.182410E-01  mag=     7.2713
       N       E                     dE             d eps       ncg     rms          rms(c)
DAV:   1    -0.709817788593E+03   -0.11404E-01   -0.41228E-01 13888   0.103E+00    0.205E-01
RMM:   2    -0.709819431583E+03   -0.16430E-02   -0.89659E-03 13440   0.175E-01    0.628E-01
RMM:   3    -0.709819247388E+03    0.18419E-03   -0.13854E-03 13568   0.693E-02    0.507E-01
RMM:   4    -0.709820246735E+03   -0.99935E-03   -0.48996E-04 11555   0.407E-02    0.594E-01
RMM:   5    -0.709818548404E+03    0.16983E-02   -0.19144E-04  8471   0.270E-02    0.278E-01
RMM:   6    -0.709818531822E+03    0.16581E-04   -0.77192E-05  7818   0.160E-02    0.283E-01
RMM:   7    -0.709818498970E+03    0.32853E-04   -0.85775E-05  7535   0.144E-02    0.294E-01
RMM:   8    -0.709818345513E+03    0.15346E-03   -0.55451E-05  7272   0.142E-02    0.206E-01
RMM:   9    -0.709818271883E+03    0.73630E-04   -0.18236E-05  6629   0.798E-03
  18 F= -.70981827E+03 E0= -.70919630E+03  d E =-.301937E-01  mag=     7.2806
       N       E                     dE             d eps       ncg     rms          rms(c)
DAV:   1    -0.709829551899E+03   -0.11206E-01   -0.19649E-01 13888   0.696E-01    0.255E-01
RMM:   2    -0.709830049004E+03   -0.49711E-03   -0.45224E-03 13439   0.121E-01    0.386E-01
RMM:   3    -0.709830252946E+03   -0.20394E-03   -0.78046E-04 12421   0.484E-02    0.401E-01
RMM:   4    -0.709830477097E+03   -0.22415E-03   -0.21866E-04  8400   0.257E-02    0.462E-01
RMM:   5    -0.709830284503E+03    0.19259E-03   -0.25698E-04  8978   0.278E-02    0.395E-01
RMM:   6    -0.709830211184E+03    0.73319E-04   -0.24876E-04  8590   0.245E-02    0.527E-01
RMM:   7    -0.709830333255E+03   -0.12207E-03   -0.87306E-05  7511   0.160E-02    0.456E-01
RMM:   8    -0.709831129866E+03   -0.79661E-03   -0.16892E-03 13452   0.548E-02    0.429E-01
RMM:   9    -0.709831054612E+03    0.75253E-04   -0.26274E-04  9052   0.260E-02
  19 F= -.70983105E+03 E0= -.70920927E+03  d E =-.127827E-01  mag=     7.2893
       N       E                     dE             d eps       ncg     rms          rms(c)
DAV:   1    -0.709832090010E+03   -0.96014E-03   -0.16405E-02 13984   0.203E-01    0.464E-01
RMM:   2    -0.709832225284E+03   -0.13527E-03   -0.11574E-03 12565   0.559E-02    0.434E-01
RMM:   3    -0.709836835128E+03   -0.46098E-02   -0.88031E-04 12517   0.518E-02    0.973E-01
RMM:   4    -0.709835014947E+03    0.18202E-02   -0.12553E-03 13033   0.551E-02    0.709E-01
RMM:   5    -0.709832270699E+03    0.27442E-02   -0.76493E-04 12416   0.523E-02    0.307E-01
RMM:   6    -0.709831908279E+03    0.36242E-03   -0.25266E-04  8615   0.274E-02    0.998E-02
RMM:   7    -0.709831881327E+03    0.26952E-04   -0.67880E-05  7172   0.170E-02    0.411E-02
RMM:   8    -0.709831888345E+03   -0.70182E-05   -0.18303E-05  6626   0.824E-03
  20 F= -.70983189E+03 E0= -.70921005E+03  d E =-.136165E-01  mag=     7.2957
       N       E                     dE             d eps       ncg     rms          rms(c)
DAV:   1    -0.709831243345E+03    0.63798E-03   -0.66529E-02 13888   0.405E-01    0.799E-02
RMM:   2    -0.709831937369E+03   -0.69402E-03   -0.15673E-03 13144   0.709E-02    0.362E-01
RMM:   3    -0.709831501872E+03    0.43550E-03   -0.23529E-04  8396   0.286E-02    0.181E-01
RMM:   4    -0.709831624466E+03   -0.12259E-03   -0.62482E-05  7403   0.173E-02    0.220E-01
RMM:   5    -0.709831457994E+03    0.16647E-03   -0.31760E-05  7059   0.104E-02    0.133E-01
RMM:   6    -0.709831463084E+03   -0.50901E-05   -0.12173E-05  6475   0.700E-03    0.109E-01
RMM:   7    -0.709831503829E+03   -0.40745E-04   -0.71498E-06  5968   0.495E-03    0.986E-02
RMM:   8    -0.709831525823E+03   -0.21993E-04   -0.92472E-06  6424   0.525E-03
  21 F= -.70983153E+03 E0= -.70920973E+03  d E =-.132539E-01  mag=     7.3020
       N       E                     dE             d eps       ncg     rms          rms(c)
DAV:   1    -0.709832308394E+03   -0.80456E-03   -0.26460E-02 13888   0.256E-01    0.487E-02
RMM:   2    -0.709832590028E+03   -0.28163E-03   -0.62398E-04 11093   0.446E-02    0.242E-01
RMM:   3    -0.709832433171E+03    0.15686E-03   -0.87458E-05  7318   0.193E-02    0.983E-02
RMM:   4    -0.709832469230E+03   -0.36059E-04   -0.22643E-05  6987   0.102E-02    0.128E-01
RMM:   5    -0.709832466439E+03    0.27915E-05   -0.10727E-05  6490   0.639E-03    0.768E-02
RMM:   6    -0.709832498672E+03   -0.32233E-04   -0.86536E-06  6136   0.534E-03    0.596E-02
RMM:   7    -0.709832547749E+03   -0.49077E-04   -0.62249E-06  6095   0.490E-03    0.334E-02
RMM:   8    -0.709832572070E+03   -0.24320E-04   -0.19703E-06  3918   0.344E-03
  22 F= -.70983257E+03 E0= -.70921082E+03  d E =-.143002E-01  mag=     7.3070
       N       E                     dE             d eps       ncg     rms          rms(c)
DAV:   1    -0.709838647563E+03   -0.60998E-02   -0.74586E-02 13888   0.427E-01    0.826E-02
RMM:   2    -0.709839361809E+03   -0.71425E-03   -0.16638E-03 13168   0.727E-02    0.365E-01
RMM:   3    -0.709838830232E+03    0.53158E-03   -0.23452E-04  8295   0.298E-02    0.108E-01
RMM:   4    -0.709838944401E+03   -0.11417E-03   -0.74449E-05  7380   0.178E-02    0.177E-01
RMM:   5    -0.709838855200E+03    0.89201E-04   -0.24702E-05  6995   0.105E-02    0.979E-02
RMM:   6    -0.709838861027E+03   -0.58271E-05   -0.19033E-05  6606   0.774E-03    0.803E-02
RMM:   7    -0.709838890194E+03   -0.29166E-04   -0.12353E-05  6624   0.701E-03    0.551E-02
RMM:   8    -0.709838913394E+03   -0.23200E-04   -0.58262E-06  5961   0.483E-03
  23 F= -.70983891E+03 E0= -.70921718E+03  d E =-.634132E-02  mag=     7.3106
       N       E                     dE             d eps       ncg     rms          rms(c)
DAV:   1    -0.709841037939E+03   -0.21477E-02   -0.10742E-01 13872   0.513E-01    0.102E-01
RMM:   2    -0.709841255832E+03   -0.21789E-03   -0.23163E-03 13321   0.866E-02    0.141E-01
RMM:   3    -0.709841274115E+03   -0.18284E-04   -0.32906E-04  9371   0.340E-02    0.607E-02
RMM:   4    -0.709841484216E+03   -0.21010E-03   -0.10153E-04  7562   0.201E-02    0.224E-01
RMM:   5    -0.709841346246E+03    0.13797E-03   -0.30084E-05  7250   0.113E-02    0.115E-01
RMM:   6    -0.709841334063E+03    0.12183E-04   -0.25019E-05  6844   0.826E-03    0.105E-01
RMM:   7    -0.709841335483E+03   -0.14204E-05   -0.17908E-05  6595   0.791E-03    0.439E-02
RMM:   8    -0.709841350505E+03   -0.15022E-04   -0.67685E-06  6078   0.550E-03
  24 F= -.70984135E+03 E0= -.70921977E+03  d E =-.877844E-02  mag=     7.3132
       N       E                     dE             d eps       ncg     rms          rms(c)
DAV:   1    -0.709845180824E+03   -0.38453E-02   -0.82659E-02 13888   0.438E-01    0.922E-02
RMM:   2    -0.709845610941E+03   -0.43012E-03   -0.17825E-03 13024   0.730E-02    0.250E-01
RMM:   3    -0.709845376932E+03    0.23401E-03   -0.25858E-04  8437   0.292E-02    0.818E-02
RMM:   4    -0.709845531522E+03   -0.15459E-03   -0.94120E-05  7460   0.186E-02    0.192E-01
RMM:   5    -0.709845404815E+03    0.12671E-03   -0.31710E-05  7061   0.118E-02    0.102E-01
RMM:   6    -0.709845396452E+03    0.83626E-05   -0.17844E-05  6555   0.745E-03    0.771E-02
RMM:   7    -0.709845392771E+03    0.36810E-05   -0.11962E-05  6583   0.685E-03    0.455E-02
RMM:   8    -0.709845406024E+03   -0.13253E-04   -0.43854E-06  5748   0.468E-03
  25 F= -.70984541E+03 E0= -.70922390E+03  d E =-.405552E-02  mag=     7.3158
       N       E                     dE             d eps       ncg     rms          rms(c)
DAV:   1    -0.709846014838E+03   -0.62207E-03   -0.31129E-02 13888   0.269E-01    0.614E-02
RMM:   2    -0.709846144911E+03   -0.13007E-03   -0.68802E-04 10753   0.454E-02    0.110E-01
RMM:   3    -0.709846204331E+03   -0.59420E-04   -0.10916E-04  7393   0.206E-02    0.153E-01
RMM:   4    -0.709846116320E+03    0.88011E-04   -0.26391E-05  7055   0.114E-02    0.624E-02
RMM:   5    -0.709846124982E+03   -0.86622E-05   -0.13245E-05  6514   0.619E-03    0.677E-02
RMM:   6    -0.709846131412E+03   -0.64297E-05   -0.10697E-05  6181   0.619E-03    0.396E-02
RMM:   7    -0.709846143378E+03   -0.11966E-04   -0.62734E-06  5839   0.516E-03    0.212E-02
RMM:   8    -0.709846153433E+03   -0.10056E-04   -0.20814E-06  4374   0.353E-03
  26 F= -.70984615E+03 E0= -.70922472E+03  d E =-.480293E-02  mag=     7.3178
       N       E                     dE             d eps       ncg     rms          rms(c)
DAV:   1    -0.709850222584E+03   -0.40792E-02   -0.72985E-02 13872   0.413E-01    0.887E-02
RMM:   2    -0.709850504752E+03   -0.28217E-03   -0.16697E-03 12962   0.692E-02    0.173E-01
RMM:   3    -0.709850410412E+03    0.94340E-04   -0.22747E-04  8049   0.285E-02    0.937E-02
RMM:   4    -0.709850515258E+03   -0.10485E-03   -0.74005E-05  7420   0.176E-02    0.157E-01
RMM:   5    -0.709850435277E+03    0.79981E-04   -0.34480E-05  7009   0.108E-02    0.945E-02
RMM:   6    -0.709850419683E+03    0.15594E-04   -0.10824E-05  6370   0.700E-03    0.536E-02
RMM:   7    -0.709850441388E+03   -0.21706E-04   -0.14907E-05  6474   0.605E-03    0.553E-02
RMM:   8    -0.709850436859E+03    0.45299E-05   -0.70631E-06  6077   0.582E-03
  27 F= -.70985044E+03 E0= -.70922908E+03  d E =-.428343E-02  mag=     7.3195
       N       E                     dE             d eps       ncg     rms          rms(c)
DAV:   1    -0.709852382148E+03   -0.19408E-02   -0.10647E-01 13888   0.499E-01    0.106E-01
RMM:   2    -0.709852890722E+03   -0.50857E-03   -0.24472E-03 13244   0.832E-02    0.247E-01
RMM:   3    -0.709852738850E+03    0.15187E-03   -0.34838E-04  9392   0.340E-02    0.183E-01
RMM:   4    -0.709852701987E+03    0.36863E-04   -0.11482E-04  7569   0.209E-02    0.161E-01
RMM:   5    -0.709852682965E+03    0.19023E-04   -0.45087E-05  7210   0.131E-02    0.129E-01
RMM:   6    -0.709852648782E+03    0.34182E-04   -0.16834E-05  6639   0.823E-03    0.837E-02
RMM:   7    -0.709852626645E+03    0.22138E-04   -0.22026E-05  6764   0.798E-03    0.552E-02
RMM:   8    -0.709852624951E+03    0.16940E-05   -0.93352E-06  6349   0.669E-03
  28 F= -.70985262E+03 E0= -.70923128E+03  d E =-.647152E-02  mag=     7.3209
       N       E                     dE             d eps       ncg     rms          rms(c)
DAV:   1    -0.709852807773E+03   -0.18113E-03   -0.11972E-02 13760   0.167E-01    0.363E-02
RMM:   2    -0.709852856121E+03   -0.48348E-04   -0.28151E-04  7963   0.280E-02    0.727E-02
RMM:   3    -0.709852844070E+03    0.12051E-04   -0.35087E-05  7132   0.129E-02    0.401E-02
RMM:   4    -0.709852889210E+03   -0.45140E-04   -0.12910E-05  6694   0.630E-03    0.979E-02
RMM:   5    -0.709852852862E+03    0.36348E-04   -0.57466E-06  6042   0.533E-03    0.395E-02
RMM:   6    -0.709852852565E+03    0.29748E-06   -0.88016E-07  2772   0.295E-03    0.210E-02
RMM:   7    -0.709852858034E+03   -0.54693E-05   -0.12803E-06  3012   0.305E-03    0.166E-02
RMM:   8    -0.709852862510E+03   -0.44755E-05   -0.22898E-07  2023   0.285E-03
  29 F= -.70985286E+03 E0= -.70923153E+03  d E =-.670908E-02  mag=     7.3221
       N       E                     dE             d eps       ncg     rms          rms(c)
DAV:   1    -0.709857158770E+03   -0.43007E-02   -0.81096E-02 13872   0.421E-01    0.899E-02
RMM:   2    -0.709857451658E+03   -0.29289E-03   -0.18220E-03 12735   0.695E-02    0.155E-01
RMM:   3    -0.709857322847E+03    0.12881E-03   -0.25952E-04  8315   0.291E-02    0.805E-02
RMM:   4    -0.709857416523E+03   -0.93677E-04   -0.70765E-05  7317   0.165E-02    0.146E-01
RMM:   5    -0.709857324365E+03    0.92158E-04   -0.20555E-05  6802   0.892E-03    0.436E-02
RMM:   6    -0.709857339493E+03   -0.15128E-04   -0.14786E-05  6511   0.684E-03    0.601E-02
RMM:   7    -0.709857333096E+03    0.63969E-05   -0.12842E-05  6522   0.687E-03    0.314E-02
RMM:   8    -0.709857334861E+03   -0.17647E-05   -0.66117E-06  5966   0.527E-03
  30 F= -.70985733E+03 E0= -.70923605E+03  d E =-.447235E-02  mag=     7.3224
       N       E                     dE             d eps       ncg     rms          rms(c)
DAV:   1    -0.709864135309E+03   -0.68022E-02   -0.72992E-01 13632   0.126E+00    0.271E-01
RMM:   2    -0.709866781982E+03   -0.26467E-02   -0.16421E-02 13431   0.209E-01    0.470E-01
RMM:   3    -0.709866195373E+03    0.58661E-03   -0.23306E-03 13101   0.866E-02    0.407E-01
RMM:   4    -0.709865859732E+03    0.33564E-03   -0.68820E-04 12036   0.426E-02    0.318E-01
RMM:   5    -0.709865469290E+03    0.39044E-03   -0.15939E-04  8260   0.236E-02    0.108E-01
RMM:   6    -0.709865597351E+03   -0.12806E-03   -0.14322E-04  8094   0.215E-02    0.186E-01
RMM:   7    -0.709865494300E+03    0.10305E-03   -0.11789E-04  7798   0.205E-02    0.907E-02
RMM:   8    -0.709865461557E+03    0.32743E-04   -0.48689E-05  7431   0.141E-02
  31 F= -.70986546E+03 E0= -.70924429E+03  d E =-.125990E-01  mag=     7.3212
       N       E                     dE             d eps       ncg     rms          rms(c)
DAV:   1    -0.709865520838E+03   -0.26537E-04   -0.17200E-02 13968   0.195E-01    0.492E-02
RMM:   2    -0.709865877618E+03   -0.35678E-03   -0.42472E-04  8934   0.329E-02    0.238E-01
RMM:   3    -0.709865586937E+03    0.29068E-03   -0.76721E-05  7275   0.179E-02    0.105E-01
RMM:   4    -0.709865548478E+03    0.38458E-04   -0.25430E-05  6809   0.985E-03    0.264E-02
RMM:   5    -0.709865551546E+03   -0.30680E-05   -0.67358E-06  5979   0.554E-03    0.276E-02
RMM:   6    -0.709865551099E+03    0.44682E-06   -0.22349E-06  4392   0.361E-03    0.208E-02
RMM:   7    -0.709865546605E+03    0.44947E-05   -0.52131E-06  5374   0.392E-03    0.163E-02
RMM:   8    -0.709865544569E+03    0.20357E-05   -0.17287E-06  3940   0.350E-03
  32 F= -.70986554E+03 E0= -.70924439E+03  d E =-.126821E-01  mag=     7.3211
       N       E                     dE             d eps       ncg     rms          rms(c)
DAV:   1    -0.709867042584E+03   -0.14960E-02   -0.12572E-02 13600   0.161E-01    0.332E-02
RMM:   2    -0.709867082972E+03   -0.40389E-04   -0.25922E-04  7882   0.254E-02    0.661E-02
RMM:   3    -0.709867079761E+03    0.32114E-05   -0.37919E-05  7001   0.126E-02    0.682E-02
RMM:   4    -0.709867060153E+03    0.19607E-04   -0.98943E-06  6181   0.601E-03    0.266E-02
RMM:   5    -0.709867057895E+03    0.22582E-05   -0.22956E-06  4502   0.372E-03    0.158E-02
RMM:   6    -0.709867058620E+03   -0.72452E-06   -0.11607E-06  3263   0.305E-03    0.268E-02
RMM:   7    -0.709867053313E+03    0.53068E-05   -0.16250E-06  3648   0.328E-03    0.178E-02
RMM:   8    -0.709867050245E+03    0.30680E-05   -0.11056E-06  2689   0.309E-03
  33 F= -.70986705E+03 E0= -.70924590E+03  d E =-.150568E-02  mag=     7.3211
       N       E                     dE             d eps       ncg     rms          rms(c)
DAV:   1    -0.709869683050E+03   -0.26297E-02   -0.11247E-01 13888   0.482E-01    0.963E-02
RMM:   2    -0.709870049844E+03   -0.36679E-03   -0.22927E-03 12697   0.754E-02    0.170E-01
RMM:   3    -0.709870052673E+03   -0.28293E-05   -0.32688E-04  8955   0.318E-02    0.191E-01
RMM:   4    -0.709869927921E+03    0.12475E-03   -0.10124E-04  7511   0.185E-02    0.122E-01
RMM:   5    -0.709869891517E+03    0.36404E-04   -0.23341E-05  6809   0.101E-02    0.580E-02
RMM:   6    -0.709869891663E+03   -0.14556E-06   -0.17944E-05  6595   0.697E-03    0.716E-02
RMM:   7    -0.709869894743E+03   -0.30804E-05   -0.13764E-05  6483   0.725E-03    0.519E-02
RMM:   8    -0.709869880898E+03    0.13845E-04   -0.75141E-06  6104   0.521E-03
  34 F= -.70986988E+03 E0= -.70924878E+03  d E =-.433633E-02  mag=     7.3207
       N       E                     dE             d eps       ncg     rms          rms(c)
DAV:   1    -0.709871849892E+03   -0.19551E-02   -0.45103E-01 13824   0.965E-01    0.193E-01
RMM:   2    -0.709873210367E+03   -0.13605E-02   -0.91442E-03 13344   0.151E-01    0.314E-01
RMM:   3    -0.709872972603E+03    0.23776E-03   -0.12798E-03 12366   0.629E-02    0.269E-01
RMM:   4    -0.709872983632E+03   -0.11029E-04   -0.39325E-04 10003   0.314E-02    0.282E-01
RMM:   5    -0.709872677597E+03    0.30604E-03   -0.79982E-05  7727   0.185E-02    0.103E-01
RMM:   6    -0.709872744174E+03   -0.66577E-04   -0.70732E-05  7431   0.140E-02    0.156E-01
RMM:   7    -0.709872663029E+03    0.81145E-04   -0.60170E-05  7311   0.149E-02    0.596E-02
RMM:   8    -0.709872657941E+03    0.50876E-05   -0.27107E-05  6894   0.993E-03
  35 F= -.70987266E+03 E0= -.70925159E+03  d E =-.711337E-02  mag=     7.3193
       N       E                     dE             d eps       ncg     rms          rms(c)
DAV:   1    -0.709878775344E+03   -0.61123E-02   -0.29488E-02 14064   0.259E-01    0.504E-02
RMM:   2    -0.709879021926E+03   -0.24658E-03   -0.56956E-04  9983   0.410E-02    0.187E-01
RMM:   3    -0.709878889486E+03    0.13244E-03   -0.97291E-05  7392   0.197E-02    0.120E-01
RMM:   4    -0.709878842247E+03    0.47239E-04   -0.25525E-05  6947   0.105E-02    0.585E-02
RMM:   5    -0.709878840171E+03    0.20759E-05   -0.61940E-06  5865   0.511E-03    0.508E-02
RMM:   6    -0.709878866720E+03   -0.26549E-04   -0.56172E-06  5266   0.421E-03    0.854E-02
RMM:   7    -0.709878854940E+03    0.11780E-04   -0.58350E-06  5732   0.481E-03    0.631E-02
RMM:   8    -0.709878828191E+03    0.26749E-04   -0.39695E-06  5329   0.400E-03
  36 F= -.70987883E+03 E0= -.70925777E+03  d E =-.617025E-02  mag=     7.3185
       N       E                     dE             d eps       ncg     rms          rms(c)
DAV:   1    -0.709889140786E+03   -0.10286E-01   -0.26629E-01 13824   0.777E-01    0.107E-01
RMM:   2    -0.709889640439E+03   -0.49965E-03   -0.47071E-03 13304   0.118E-01    0.185E-01
RMM:   3    -0.709889665744E+03   -0.25305E-04   -0.63835E-04 11488   0.460E-02    0.855E-02
RMM:   4    -0.709890125251E+03   -0.45951E-03   -0.17890E-04  8252   0.232E-02    0.310E-01
RMM:   5    -0.709889686889E+03    0.43836E-03   -0.61324E-05  7406   0.165E-02    0.110E-01
RMM:   6    -0.709889663489E+03    0.23400E-04   -0.35552E-05  7007   0.975E-03    0.894E-02
RMM:   7    -0.709889652419E+03    0.11069E-04   -0.24269E-05  6815   0.876E-03    0.322E-02
RMM:   8    -0.709889653939E+03   -0.15198E-05   -0.11949E-05  6416   0.645E-03
  37 F= -.70988965E+03 E0= -.70926857E+03  d E =-.169960E-01  mag=     7.3175
       N       E                     dE             d eps       ncg     rms          rms(c)
DAV:   1    -0.709889872712E+03   -0.22029E-03   -0.12009E-02 13872   0.165E-01    0.499E-02
RMM:   2    -0.709889989601E+03   -0.11689E-03   -0.24191E-04  7900   0.269E-02    0.128E-01
RMM:   3    -0.709889993970E+03   -0.43684E-05   -0.56481E-05  7230   0.154E-02    0.145E-01
RMM:   4    -0.709889917603E+03    0.76367E-04   -0.19224E-05  6762   0.838E-03    0.827E-02
RMM:   5    -0.709889901471E+03    0.16131E-04   -0.42685E-06  5571   0.477E-03    0.530E-02
RMM:   6    -0.709889905423E+03   -0.39511E-05   -0.33141E-06  4513   0.368E-03    0.486E-02
RMM:   7    -0.709889895375E+03    0.10047E-04   -0.20340E-06  4186   0.357E-03    0.224E-02
RMM:   8    -0.709889893441E+03    0.19346E-05   -0.65828E-07  2402   0.281E-03
  38 F= -.70988989E+03 E0= -.70926877E+03  d E =-.172355E-01  mag=     7.3170
       N       E                     dE             d eps       ncg     rms          rms(c)
DAV:   1    -0.709893279147E+03   -0.33838E-02   -0.25456E-02 13776   0.235E-01    0.480E-02
RMM:   2    -0.709893387062E+03   -0.10792E-03   -0.56980E-04  9241   0.353E-02    0.106E-01
RMM:   3    -0.709893347083E+03    0.39979E-04   -0.69986E-05  7227   0.159E-02    0.831E-02
RMM:   4    -0.709893332647E+03    0.14436E-04   -0.18566E-05  6734   0.822E-03    0.538E-02
RMM:   5    -0.709893328040E+03    0.46070E-05   -0.72172E-06  5955   0.538E-03    0.359E-02
RMM:   6    -0.709893328978E+03   -0.93898E-06   -0.35253E-06  4962   0.399E-03    0.227E-02
RMM:   7    -0.709893336488E+03   -0.75092E-05   -0.36679E-06  4721   0.380E-03    0.155E-02
RMM:   8    -0.709893341647E+03   -0.51593E-05   -0.20414E-06  3790   0.351E-03
  39 F= -.70989334E+03 E0= -.70927218E+03  d E =-.344821E-02  mag=     7.3163
       N       E                     dE             d eps       ncg     rms          rms(c)
DAV:   1    -0.709896639363E+03   -0.33029E-02   -0.14654E-01 13872   0.564E-01    0.117E-01
RMM:   2    -0.709897554417E+03   -0.91505E-03   -0.33020E-03 13012   0.847E-02    0.318E-01
RMM:   3    -0.709897211575E+03    0.34284E-03   -0.42531E-04  9858   0.366E-02    0.280E-01
RMM:   4    -0.709896880200E+03    0.33137E-03   -0.13746E-04  7662   0.217E-02    0.773E-02
RMM:   5    -0.709896899793E+03   -0.19593E-04   -0.43335E-05  7134   0.130E-02    0.798E-02
RMM:   6    -0.709896890801E+03    0.89924E-05   -0.21854E-05  6632   0.892E-03    0.516E-02
RMM:   7    -0.709896901078E+03   -0.10277E-04   -0.22737E-05  6791   0.801E-03    0.497E-02
RMM:   8    -0.709896901602E+03   -0.52431E-06   -0.12647E-05  6301   0.716E-03
  40 F= -.70989690E+03 E0= -.70927562E+03  d E =-.700816E-02  mag=     7.3144
       N       E                     dE             d eps       ncg     rms          rms(c)
DAV:   1    -0.709896943095E+03   -0.42017E-04   -0.19623E-03 13264   0.656E-02    0.267E-02
RMM:   2    -0.709897169985E+03   -0.22689E-03   -0.74554E-05  7307   0.129E-02    0.194E-01
RMM:   3    -0.709896953369E+03    0.21662E-03   -0.23745E-05  6951   0.104E-02    0.374E-02
RMM:   4    -0.709896957271E+03   -0.39023E-05   -0.55706E-06  5549   0.440E-03    0.148E-02
RMM:   5    -0.709896962152E+03   -0.48809E-05   -0.97467E-07  2997   0.305E-03    0.874E-03
RMM:   6    -0.709896966966E+03   -0.48134E-05   -0.20795E-07  1571   0.270E-03    0.686E-03
RMM:   7    -0.709896974596E+03   -0.76303E-05   -0.11386E-06  2675   0.302E-03    0.145E-02
RMM:   8    -0.709896978512E+03   -0.39159E-05   -0.63731E-07  2042   0.281E-03
  41 F= -.70989698E+03 E0= -.70927569E+03  d E =-.708507E-02  mag=     7.3127
       N       E                     dE             d eps       ncg     rms          rms(c)
DAV:   1    -0.709898138182E+03   -0.11636E-02   -0.65655E-03 13504   0.125E-01    0.319E-02
RMM:   2    -0.709898207780E+03   -0.69598E-04   -0.19780E-04  7531   0.225E-02    0.105E-01
RMM:   3    -0.709898160500E+03    0.47280E-04   -0.27960E-05  7106   0.116E-02    0.635E-02
RMM:   4    -0.709898152499E+03    0.80009E-05   -0.92560E-06  6370   0.565E-03    0.453E-02
RMM:   5    -0.709898152949E+03   -0.44965E-06   -0.30556E-06  5214   0.400E-03    0.347E-02
RMM:   6    -0.709898150912E+03    0.20369E-05   -0.11814E-06  3298   0.315E-03    0.244E-02
RMM:   7    -0.709898150284E+03    0.62728E-06   -0.16046E-06  3390   0.323E-03    0.121E-02
RMM:   8    -0.709898151436E+03   -0.11518E-05   -0.78085E-07  2447   0.304E-03
  42 F= -.70989815E+03 E0= -.70927685E+03  d E =-.117292E-02  mag=     7.3117
       N       E                     dE             d eps       ncg     rms          rms(c)
DAV:   1    -0.709899312167E+03   -0.11619E-02   -0.36319E-02 13888   0.295E-01    0.739E-02
RMM:   2    -0.709899667241E+03   -0.35507E-03   -0.10662E-03 12202   0.525E-02    0.230E-01
RMM:   3    -0.709899445027E+03    0.22221E-03   -0.14591E-04  7514   0.230E-02    0.151E-01
RMM:   4    -0.709899392626E+03    0.52400E-04   -0.55850E-05  7287   0.150E-02    0.109E-01
RMM:   5    -0.709899379648E+03    0.12978E-04   -0.18130E-05  6794   0.843E-03    0.795E-02
RMM:   6    -0.709899362867E+03    0.16782E-04   -0.10772E-05  6370   0.633E-03    0.578E-02
RMM:   7    -0.709899344850E+03    0.18016E-04   -0.10247E-05  6416   0.583E-03    0.294E-02
RMM:   8    -0.709899340676E+03    0.41747E-05   -0.50148E-06  5623   0.475E-03
  43 F= -.70989934E+03 E0= -.70927797E+03  d E =-.236216E-02  mag=     7.3105
       N       E                     dE             d eps       ncg     rms          rms(c)
DAV:   1    -0.709900210464E+03   -0.86561E-03   -0.11390E-02 13488   0.162E-01    0.382E-02
RMM:   2    -0.709900300441E+03   -0.89978E-04   -0.31804E-04  8059   0.283E-02    0.105E-01
RMM:   3    -0.709900261997E+03    0.38444E-04   -0.45100E-05  7120   0.141E-02    0.895E-02
RMM:   4    -0.709900231076E+03    0.30920E-04   -0.14241E-05  6738   0.716E-03    0.350E-02
RMM:   5    -0.709900231231E+03   -0.15492E-06   -0.47343E-06  5836   0.471E-03    0.256E-02
RMM:   6    -0.709900230613E+03    0.61867E-06   -0.12460E-06  3449   0.322E-03    0.178E-02
RMM:   7    -0.709900230781E+03   -0.16784E-06   -0.11277E-06  2943   0.311E-03    0.112E-02
RMM:   8    -0.709900231769E+03   -0.98854E-06   -0.41424E-07  2245   0.292E-03
  44 F= -.70990023E+03 E0= -.70927885E+03  d E =-.891093E-03  mag=     7.3095
       N       E                     dE             d eps       ncg     rms          rms(c)
DAV:   1    -0.709900471407E+03   -0.24063E-03   -0.91975E-03 13520   0.145E-01    0.354E-02
RMM:   2    -0.709900546127E+03   -0.74720E-04   -0.26303E-04  7766   0.255E-02    0.951E-02
RMM:   3    -0.709900514112E+03    0.32015E-04   -0.38448E-05  7065   0.130E-02    0.824E-02
RMM:   4    -0.709900488825E+03    0.25287E-04   -0.11176E-05  6569   0.639E-03    0.324E-02
RMM:   5    -0.709900488642E+03    0.18285E-06   -0.41411E-06  5712   0.439E-03    0.244E-02
RMM:   6    -0.709900487966E+03    0.67631E-06   -0.89857E-07  3059   0.306E-03    0.137E-02
RMM:   7    -0.709900489007E+03   -0.10407E-05   -0.77692E-07  2387   0.304E-03    0.988E-03
RMM:   8    -0.709900490107E+03   -0.11000E-05   -0.56089E-07  2281   0.294E-03
  45 F= -.70990049E+03 E0= -.70927909E+03  d E =-.114943E-02  mag=     7.3087
       N       E                     dE             d eps       ncg     rms          rms(c)
DAV:   1    -0.709901059610E+03   -0.57060E-03   -0.10238E-02 13632   0.151E-01    0.349E-02
RMM:   2    -0.709901131028E+03   -0.71417E-04   -0.27862E-04  7805   0.260E-02    0.909E-02
RMM:   3    -0.709901105767E+03    0.25260E-04   -0.39974E-05  7146   0.132E-02    0.815E-02
RMM:   4    -0.709901079985E+03    0.25782E-04   -0.11487E-05  6673   0.652E-03    0.289E-02
RMM:   5    -0.709901081767E+03   -0.17824E-05   -0.41729E-06  5691   0.439E-03    0.249E-02
RMM:   6    -0.709901081438E+03    0.32940E-06   -0.79428E-07  2941   0.304E-03    0.128E-02
RMM:   7    -0.709901083170E+03   -0.17320E-05   -0.93268E-07  2564   0.309E-03    0.111E-02
RMM:   8    -0.709901083880E+03   -0.70951E-06   -0.54392E-07  2327   0.293E-03
  46 F= -.70990108E+03 E0= -.70927966E+03  d E =-.593773E-03  mag=     7.3082
       N       E                     dE             d eps       ncg     rms          rms(c)
DAV:   1    -0.709901335480E+03   -0.25231E-03   -0.25086E-02 13824   0.236E-01    0.545E-02
RMM:   2    -0.709901503072E+03   -0.16759E-03   -0.67095E-04 10378   0.404E-02    0.137E-01
RMM:   3    -0.709901447977E+03    0.55095E-04   -0.95226E-05  7318   0.187E-02    0.130E-01
RMM:   4    -0.709901378955E+03    0.69023E-04   -0.29638E-05  6999   0.110E-02    0.440E-02
RMM:   5    -0.709901381955E+03   -0.30002E-05   -0.10599E-05  6407   0.643E-03    0.378E-02
RMM:   6    -0.709901379739E+03    0.22159E-05   -0.41132E-06  5530   0.451E-03    0.209E-02
RMM:   7    -0.709901380422E+03   -0.68301E-06   -0.33670E-06  4777   0.372E-03    0.176E-02
RMM:   8    -0.709901380493E+03   -0.70620E-07   -0.14637E-06  3703   0.346E-03
  47 F= -.70990138E+03 E0= -.70927992E+03  d E =-.890386E-03  mag=     7.3077
       N       E                     dE             d eps       ncg     rms          rms(c)
DAV:   1    -0.709901390350E+03   -0.99277E-05   -0.59243E-04 13328   0.364E-02    0.101E-02
RMM:   2    -0.709901397412E+03   -0.70619E-05   -0.16903E-05  6907   0.661E-03    0.304E-02
RMM:   3    -0.709901393764E+03    0.36471E-05   -0.27489E-06  5294   0.406E-03    0.218E-02
RMM:   4    -0.709901391839E+03    0.19250E-05   -0.12727E-07   985   0.221E-03    0.747E-03
RMM:   5    -0.709901392368E+03   -0.52836E-06   -0.33850E-08   843   0.214E-03    0.764E-03
RMM:   6    -0.709901393365E+03   -0.99771E-06   -0.31491E-08   852   0.215E-03    0.113E-02
RMM:   7    -0.709901394204E+03   -0.83809E-06   -0.10589E-07   978   0.228E-03    0.533E-03
RMM:   8    -0.709901394879E+03   -0.67582E-06   -0.10496E-07   980   0.239E-03
  48 F= -.70990139E+03 E0= -.70927993E+03  d E =-.904773E-03  mag=     7.3074
       N       E                     dE             d eps       ncg     rms          rms(c)
DAV:   1    -0.709901751141E+03   -0.35694E-03   -0.33518E-03 13392   0.854E-02    0.154E-02
RMM:   2    -0.709901763837E+03   -0.12696E-04   -0.66859E-05  7169   0.140E-02    0.438E-02
RMM:   3    -0.709901757096E+03    0.67410E-05   -0.93523E-06  6841   0.685E-03    0.158E-02
RMM:   4    -0.709901760114E+03   -0.30172E-05   -0.18244E-06  3561   0.331E-03    0.288E-02
RMM:   5    -0.709901759340E+03    0.77313E-06   -0.29894E-07  2155   0.291E-03    0.209E-02
RMM:   6    -0.709901758876E+03    0.46492E-06   -0.10648E-07  1270   0.282E-03    0.132E-02
RMM:   7    -0.709901758823E+03    0.52991E-07   -0.38381E-07  1694   0.293E-03    0.584E-03
RMM:   8    -0.709901759275E+03   -0.45291E-06   -0.35028E-07  1518   0.285E-03
  49 F= -.70990176E+03 E0= -.70928028E+03  d E =-.364396E-03  mag=     7.3073
       N       E                     dE             d eps       ncg     rms          rms(c)
DAV:   1    -0.709902126975E+03   -0.36815E-03   -0.25052E-02 13744   0.234E-01    0.424E-02
RMM:   2    -0.709902189432E+03   -0.62457E-04   -0.49561E-04  9468   0.383E-02    0.779E-02
RMM:   3    -0.709902188664E+03    0.76836E-06   -0.74071E-05  7256   0.173E-02    0.643E-02
RMM:   4    -0.709902195638E+03   -0.69745E-05   -0.23575E-05  6932   0.954E-03    0.789E-02
RMM:   5    -0.709902180132E+03    0.15506E-04   -0.81642E-06  6384   0.611E-03    0.456E-02
RMM:   6    -0.709902173764E+03    0.63683E-05   -0.43697E-06  5302   0.411E-03    0.308E-02
RMM:   7    -0.709902170850E+03    0.29143E-05   -0.32680E-06  5174   0.393E-03    0.153E-02
RMM:   8    -0.709902169313E+03    0.15363E-05   -0.69929E-07  2762   0.302E-03
  50 F= -.70990217E+03 E0= -.70928063E+03  d E =-.774434E-03  mag=     7.3076
       N       E                     dE             d eps       ncg     rms          rms(c)
DAV:   1    -0.709902446953E+03   -0.27610E-03   -0.34772E-03 13408   0.907E-02    0.168E-02
RMM:   2    -0.709902459599E+03   -0.12646E-04   -0.71380E-05  7208   0.154E-02    0.460E-02
RMM:   3    -0.709902454011E+03    0.55875E-05   -0.10495E-05  6821   0.737E-03    0.256E-02
RMM:   4    -0.709902452395E+03    0.16158E-05   -0.14663E-06  3602   0.329E-03    0.129E-02
RMM:   5    -0.709902453431E+03   -0.10350E-05   -0.62510E-07  2891   0.295E-03    0.188E-02
RMM:   6    -0.709902450167E+03    0.32638E-05   -0.21176E-07  2233   0.284E-03    0.129E-02
RMM:   7    -0.709902447639E+03    0.25277E-05   -0.18960E-07  1640   0.285E-03    0.608E-03
RMM:   8    -0.709902445998E+03    0.16409E-05   -0.93581E-08  1187   0.282E-03
  51 F= -.70990245E+03 E0= -.70928089E+03  d E =-.276685E-03  mag=     7.3081
       N       E                     dE             d eps       ncg     rms          rms(c)
DAV:   1    -0.709902572138E+03   -0.12450E-03   -0.56504E-03 13648   0.116E-01    0.205E-02
RMM:   2    -0.709902582865E+03   -0.10728E-04   -0.11580E-04  7283   0.195E-02    0.382E-02
RMM:   3    -0.709902582692E+03    0.17360E-06   -0.15483E-05  6903   0.900E-03    0.192E-02
RMM:   4    -0.709902600112E+03   -0.17420E-04   -0.50163E-06  6073   0.432E-03    0.578E-02
RMM:   5    -0.709902580616E+03    0.19496E-04   -0.25014E-06  5089   0.380E-03    0.193E-02
RMM:   6    -0.709902580882E+03   -0.26587E-06   -0.26016E-07  2101   0.255E-03    0.176E-02
RMM:   7    -0.709902577988E+03    0.28937E-05   -0.25157E-07  1872   0.261E-03    0.146E-02
RMM:   8    -0.709902575860E+03    0.21286E-05   -0.52562E-08  1209   0.256E-03
  52 F= -.70990258E+03 E0= -.70928101E+03  d E =-.406547E-03  mag=     7.3087
       N       E                     dE             d eps       ncg     rms          rms(c)
DAV:   1    -0.709902850150E+03   -0.27216E-03   -0.21680E-03 13616   0.699E-02    0.138E-02
RMM:   2    -0.709902855609E+03   -0.54592E-05   -0.43160E-05  7105   0.113E-02    0.300E-02
RMM:   3    -0.709902854201E+03    0.14089E-05   -0.52924E-06  6126   0.516E-03    0.177E-02
RMM:   4    -0.709902859284E+03   -0.50834E-05   -0.79867E-07  2468   0.283E-03    0.326E-02
RMM:   5    -0.709902854278E+03    0.50064E-05   -0.17292E-07  1890   0.252E-03    0.110E-02
RMM:   6    -0.709902855535E+03   -0.12571E-05   -0.27878E-08  1057   0.235E-03    0.102E-02
RMM:   7    -0.709902856420E+03   -0.88567E-06   -0.41561E-08  1035   0.243E-03    0.968E-03
RMM:   8    -0.709902857103E+03   -0.68289E-06   -0.47795E-08  1048   0.251E-03
  53 F= -.70990286E+03 E0= -.70928127E+03  d E =-.281243E-03  mag=     7.3092
       N       E                     dE             d eps       ncg     rms          rms(c)
DAV:   1    -0.709903805090E+03   -0.94867E-03   -0.19613E-02 13888   0.210E-01    0.369E-02
RMM:   2    -0.709903848146E+03   -0.43055E-04   -0.37946E-04  8526   0.335E-02    0.790E-02
RMM:   3    -0.709903844429E+03    0.37163E-05   -0.51237E-05  7210   0.147E-02    0.395E-02
RMM:   4    -0.709903910682E+03   -0.66252E-04   -0.18148E-05  6747   0.768E-03    0.119E-01
RMM:   5    -0.709903843976E+03    0.66705E-04   -0.87882E-06  6308   0.625E-03    0.292E-02
RMM:   6    -0.709903849499E+03   -0.55224E-05   -0.26745E-06  4515   0.359E-03    0.299E-02
RMM:   7    -0.709903853731E+03   -0.42325E-05   -0.11391E-06  3211   0.315E-03    0.345E-02
RMM:   8    -0.709903855945E+03   -0.22139E-05   -0.11741E-06  3145   0.314E-03
  54 F= -.70990386E+03 E0= -.70928227E+03  d E =-.128009E-02  mag=     7.3093
       N       E                     dE             d eps       ncg     rms          rms(c)
DAV:   1    -0.709906301279E+03   -0.24475E-02   -0.78624E-02 13888   0.421E-01    0.755E-02
RMM:   2    -0.709906454266E+03   -0.15299E-03   -0.14951E-03 12748   0.666E-02    0.140E-01
RMM:   3    -0.709906452108E+03    0.21585E-05   -0.21937E-04  8232   0.264E-02    0.759E-02
RMM:   4    -0.709906641387E+03   -0.18928E-03   -0.67264E-05  7449   0.161E-02    0.194E-01
RMM:   5    -0.709906467305E+03    0.17408E-03   -0.30930E-05  7167   0.111E-02    0.989E-02
RMM:   6    -0.709906454748E+03    0.12557E-04   -0.12987E-05  6450   0.675E-03    0.629E-02
RMM:   7    -0.709906451777E+03    0.29716E-05   -0.79324E-06  6052   0.524E-03    0.554E-02
RMM:   8    -0.709906452714E+03   -0.93764E-06   -0.52064E-06  5787   0.452E-03
  55 F= -.70990645E+03 E0= -.70928475E+03  d E =-.387685E-02  mag=     7.3088
       N       E                     dE             d eps       ncg     rms          rms(c)
DAV:   1    -0.709907959518E+03   -0.15077E-02   -0.31486E-01 13712   0.842E-01    0.149E-01
RMM:   2    -0.709908714190E+03   -0.75467E-03   -0.59631E-03 13430   0.133E-01    0.332E-01
RMM:   3    -0.709908568875E+03    0.14531E-03   -0.90252E-04 12483   0.527E-02    0.180E-01
RMM:   4    -0.709909250022E+03   -0.68115E-03   -0.24881E-04  8727   0.270E-02    0.389E-01
RMM:   5    -0.709908562781E+03    0.68724E-03   -0.12942E-04  7864   0.227E-02    0.180E-01
RMM:   6    -0.709908521635E+03    0.41146E-04   -0.59394E-05  7507   0.139E-02    0.107E-01
RMM:   7    -0.709908520919E+03    0.71603E-06   -0.46835E-05  7253   0.124E-02    0.839E-02
RMM:   8    -0.709908523651E+03   -0.27323E-05   -0.18991E-05  6709   0.923E-03
  56 F= -.70990852E+03 E0= -.70928678E+03  d E =-.594779E-02  mag=     7.3072
       N       E                     dE             d eps       ncg     rms          rms(c)
DAV:   1    -0.709908868258E+03   -0.34734E-03   -0.47902E-02 13968   0.329E-01    0.748E-02
RMM:   2    -0.709909447589E+03   -0.57933E-03   -0.96888E-04 12253   0.534E-02    0.328E-01
RMM:   3    -0.709909052238E+03    0.39535E-03   -0.16575E-04  7667   0.251E-02    0.150E-01
RMM:   4    -0.709908962361E+03    0.89877E-04   -0.46320E-05  7195   0.148E-02    0.468E-02
RMM:   5    -0.709908982185E+03   -0.19824E-04   -0.14286E-05  6615   0.743E-03    0.591E-02
RMM:   6    -0.709908986887E+03   -0.47020E-05   -0.10640E-05  6467   0.604E-03    0.533E-02
RMM:   7    -0.709908991446E+03   -0.45592E-05   -0.12951E-05  6778   0.645E-03    0.328E-02
RMM:   8    -0.709908992806E+03   -0.13600E-05   -0.45741E-06  5696   0.456E-03
  57 F= -.70990899E+03 E0= -.70928727E+03  d E =-.641695E-02  mag=     7.3069
       N       E                     dE             d eps       ncg     rms          rms(c)
DAV:   1    -0.709909061202E+03   -0.69756E-04   -0.38103E-03 13376   0.928E-02    0.186E-02
RMM:   2    -0.709909085629E+03   -0.24427E-04   -0.77293E-05  7234   0.153E-02    0.618E-02
RMM:   3    -0.709909076593E+03    0.90357E-05   -0.11234E-05  6791   0.757E-03    0.357E-02
RMM:   4    -0.709909072763E+03    0.38303E-05   -0.12419E-06  3149   0.316E-03    0.131E-02
RMM:   5    -0.709909076758E+03   -0.39955E-05   -0.48482E-07  2198   0.290E-03    0.200E-02
RMM:   6    -0.709909077600E+03   -0.84174E-06   -0.29300E-07  1986   0.287E-03    0.138E-02
RMM:   7    -0.709909078448E+03   -0.84791E-06   -0.11895E-06  2906   0.307E-03    0.756E-03
RMM:   8    -0.709909078606E+03   -0.15791E-06   -0.16544E-07  1456   0.272E-03
  58 F= -.70990908E+03 E0= -.70928732E+03  d E =-.650275E-02  mag=     7.3067
       N       E                     dE             d eps       ncg     rms          rms(c)
DAV:   1    -0.709909351187E+03   -0.27274E-03   -0.28259E-03 13152   0.793E-02    0.144E-02
RMM:   2    -0.709909356826E+03   -0.56382E-05   -0.56103E-05  7099   0.125E-02    0.262E-02
RMM:   3    -0.709909356235E+03    0.59023E-06   -0.65889E-06  6296   0.570E-03    0.118E-02
RMM:   4    -0.709909357974E+03   -0.17386E-05   -0.69142E-07  2115   0.267E-03    0.208E-02
RMM:   5    -0.709909357191E+03    0.78313E-06   -0.98203E-08  1630   0.244E-03    0.115E-02
RMM:   6    -0.709909357774E+03   -0.58371E-06   -0.31579E-08  1241   0.239E-03    0.113E-02
RMM:   7    -0.709909357576E+03    0.19888E-06   -0.10283E-07  1270   0.247E-03    0.768E-03
RMM:   8    -0.709909357940E+03   -0.36415E-06   -0.92016E-08  1140   0.249E-03
  59 F= -.70990936E+03 E0= -.70928759E+03  d E =-.279334E-03  mag=     7.3064
       N       E                     dE             d eps       ncg     rms          rms(c)
DAV:   1    -0.709909549029E+03   -0.19145E-03   -0.91704E-03 13552   0.143E-01    0.247E-02
RMM:   2    -0.709909572304E+03   -0.23275E-04   -0.17477E-04  7495   0.225E-02    0.596E-02
RMM:   3    -0.709909564634E+03    0.76701E-05   -0.22558E-05  6888   0.101E-02    0.275E-02
RMM:   4    -0.709909583654E+03   -0.19020E-04   -0.74818E-06  6104   0.498E-03    0.669E-02
RMM:   5    -0.709909562746E+03    0.20907E-04   -0.33636E-06  5434   0.420E-03    0.215E-02
RMM:   6    -0.709909564192E+03   -0.14455E-05   -0.38120E-07  2055   0.257E-03    0.173E-02
RMM:   7    -0.709909564406E+03   -0.21404E-06   -0.51203E-07  2304   0.271E-03    0.203E-02
RMM:   8    -0.709909563659E+03    0.74645E-06   -0.34094E-07  1822   0.276E-03
  60 F= -.70990956E+03 E0= -.70928777E+03  d E =-.485053E-03  mag=     7.3060
       N       E                     dE             d eps       ncg     rms          rms(c)
DAV:   1    -0.709909929507E+03   -0.36510E-03   -0.36162E-04 12848   0.307E-02    0.128E-02
RMM:   2    -0.709909951235E+03   -0.21728E-04   -0.11635E-05  6926   0.595E-03    0.612E-02
RMM:   3    -0.709909931631E+03    0.19604E-04   -0.29728E-06  5558   0.395E-03    0.256E-02
RMM:   4    -0.709909932027E+03   -0.39661E-06   -0.53947E-08  1215   0.232E-03    0.158E-02
RMM:   5    -0.709909932845E+03   -0.81823E-06   -0.55371E-09   949   0.223E-03    0.180E-02
RMM:   6    -0.709909932945E+03   -0.99011E-07   -0.60839E-09   998   0.227E-03    0.153E-02
RMM:   7    -0.709909931915E+03    0.10296E-05   -0.26960E-08   946   0.234E-03    0.616E-03
RMM:   8    -0.709909932202E+03   -0.28747E-06   -0.20579E-08   915   0.234E-03
  61 F= -.70990993E+03 E0= -.70928814E+03  d E =-.368543E-03  mag=     7.3056
       N       E                     dE             d eps       ncg     rms          rms(c)
DAV:   1    -0.709910862240E+03   -0.93033E-03   -0.32422E-03 13184   0.916E-02    0.162E-02
RMM:   2    -0.709910870443E+03   -0.82024E-05   -0.80883E-05  7219   0.164E-02    0.441E-02
RMM:   3    -0.709910868286E+03    0.21561E-05   -0.98843E-06  6948   0.744E-03    0.198E-02
RMM:   4    -0.709910877092E+03   -0.88050E-05   -0.20154E-06  3809   0.335E-03    0.444E-02
RMM:   5    -0.709910869131E+03    0.79609E-05   -0.70373E-07  2777   0.298E-03    0.148E-02
RMM:   6    -0.709910870135E+03   -0.10040E-05   -0.28565E-08  1359   0.260E-03    0.112E-02
RMM:   7    -0.709910870389E+03   -0.25483E-06   -0.11689E-07  1317   0.271E-03    0.983E-03
RMM:   8    -0.709910870263E+03    0.12665E-06   -0.32624E-07  1425   0.278E-03
  62 F= -.70991087E+03 E0= -.70928907E+03  d E =-.130660E-02  mag=     7.3054
       N       E                     dE             d eps       ncg     rms          rms(c)
DAV:   1    -0.709912007948E+03   -0.11376E-02   -0.12934E-02 13728   0.183E-01    0.331E-02
RMM:   2    -0.709912039960E+03   -0.32013E-04   -0.31657E-04  8037   0.323E-02    0.748E-02
RMM:   3    -0.709912034943E+03    0.50170E-05   -0.39349E-05  7134   0.143E-02    0.411E-02
RMM:   4    -0.709912094988E+03   -0.60045E-04   -0.14623E-05  6932   0.698E-03    0.108E-01
RMM:   5    -0.709912032950E+03    0.62038E-04   -0.74890E-06  6245   0.579E-03    0.290E-02
RMM:   6    -0.709912037404E+03   -0.44539E-05   -0.13545E-06  3284   0.309E-03    0.279E-02
RMM:   7    -0.709912038863E+03   -0.14586E-05   -0.38420E-07  2256   0.285E-03    0.280E-02
RMM:   8    -0.709912038290E+03    0.57270E-06   -0.12150E-06  3153   0.311E-03
  63 F= -.70991204E+03 E0= -.70929023E+03  d E =-.247463E-02  mag=     7.3050
       N       E                     dE             d eps       ncg     rms          rms(c)
DAV:   1    -0.709911410361E+03    0.62850E-03   -0.51885E-02 13808   0.366E-01    0.690E-02
RMM:   2    -0.709911538470E+03   -0.12811E-03   -0.12322E-03 12932   0.639E-02    0.147E-01
RMM:   3    -0.709911528414E+03    0.10057E-04   -0.17458E-04  7697   0.251E-02    0.800E-02
RMM:   4    -0.709911765075E+03   -0.23666E-03   -0.66680E-05  7386   0.159E-02    0.221E-01
RMM:   5    -0.709911526130E+03    0.23895E-03   -0.27331E-05  7203   0.108E-02    0.687E-02
RMM:   6    -0.709911532104E+03   -0.59738E-05   -0.91953E-06  6299   0.592E-03    0.599E-02
RMM:   7    -0.709911533288E+03   -0.11844E-05   -0.36186E-06  5153   0.399E-03    0.602E-02
RMM:   8    -0.709911524175E+03    0.91130E-05   -0.52213E-06  5852   0.418E-03
  64 F= -.70991152E+03 E0= -.70928965E+03  d E =-.196052E-02  mag=     7.3044
       N       E                     dE             d eps       ncg     rms          rms(c)
DAV:   1    -0.709912230626E+03   -0.69734E-03   -0.20889E-02 13952   0.232E-01    0.444E-02
RMM:   2    -0.709912287766E+03   -0.57141E-04   -0.49779E-04  9565   0.407E-02    0.974E-02
RMM:   3    -0.709912274297E+03    0.13469E-04   -0.69582E-05  7226   0.178E-02    0.546E-02
RMM:   4    -0.709912278376E+03   -0.40792E-05   -0.17737E-05  7019   0.872E-03    0.569E-02
RMM:   5    -0.709912268892E+03    0.94848E-05   -0.62007E-06  6225   0.516E-03    0.327E-02
RMM:   6    -0.709912266182E+03    0.27092E-05   -0.25551E-06  4563   0.365E-03    0.254E-02
RMM:   7    -0.709912266228E+03   -0.45606E-07   -0.32079E-06  4770   0.363E-03    0.134E-02
RMM:   8    -0.709912268098E+03   -0.18703E-05   -0.13668E-06  3331   0.324E-03
  65 F= -.70991227E+03 E0= -.70929041E+03  d E =-.270444E-02  mag=     7.3039
       N       E                     dE             d eps       ncg     rms          rms(c)
DAV:   1    -0.709913012465E+03   -0.74624E-03   -0.32992E-03 13264   0.861E-02    0.168E-02
RMM:   2    -0.709913035742E+03   -0.23278E-04   -0.88267E-05  7183   0.146E-02    0.541E-02
RMM:   3    -0.709913021870E+03    0.13872E-04   -0.10908E-05  6835   0.714E-03    0.273E-02
RMM:   4    -0.709913022170E+03   -0.30028E-06   -0.19052E-06  3243   0.325E-03    0.197E-02
RMM:   5    -0.709913023590E+03   -0.14191E-05   -0.89101E-07  2710   0.304E-03    0.161E-02
RMM:   6    -0.709913024281E+03   -0.69167E-06   -0.21600E-07  1626   0.283E-03    0.973E-03
RMM:   7    -0.709913025712E+03   -0.14302E-05   -0.83465E-07  2216   0.299E-03    0.683E-03
RMM:   8    -0.709913026311E+03   -0.59977E-06   -0.26956E-07  1408   0.276E-03
  66 F= -.70991303E+03 E0= -.70929116E+03  d E =-.758213E-03  mag=     7.3035
       N       E                     dE             d eps       ncg     rms          rms(c)
DAV:   1    -0.709914411491E+03   -0.13858E-02   -0.29554E-02 13792   0.257E-01    0.489E-02
RMM:   2    -0.709914526563E+03   -0.11507E-03   -0.76684E-04 10268   0.430E-02    0.108E-01
RMM:   3    -0.709914489098E+03    0.37465E-04   -0.93780E-05  7313   0.187E-02    0.737E-02
RMM:   4    -0.709914501953E+03   -0.12854E-04   -0.28354E-05  7016   0.103E-02    0.792E-02
RMM:   5    -0.709914483073E+03    0.18880E-04   -0.12273E-05  6448   0.691E-03    0.484E-02
RMM:   6    -0.709914479489E+03    0.35846E-05   -0.51609E-06  5683   0.482E-03    0.278E-02
RMM:   7    -0.709914479150E+03    0.33838E-06   -0.52544E-06  5419   0.419E-03    0.180E-02
RMM:   8    -0.709914479633E+03   -0.48323E-06   -0.18994E-06  4045   0.361E-03
  67 F= -.70991448E+03 E0= -.70929258E+03  d E =-.221154E-02  mag=     7.3032
       N       E                     dE             d eps       ncg     rms          rms(c)
DAV:   1    -0.709912896731E+03    0.15824E-02   -0.11853E-01 13744   0.515E-01    0.974E-02
RMM:   2    -0.709913365934E+03   -0.46920E-03   -0.30484E-03 13334   0.858E-02    0.213E-01
RMM:   3    -0.709913218489E+03    0.14744E-03   -0.38549E-04  9246   0.348E-02    0.151E-01
RMM:   4    -0.709913243130E+03   -0.24641E-04   -0.12014E-04  7593   0.208E-02    0.145E-01
RMM:   5    -0.709913184066E+03    0.59064E-04   -0.46205E-05  7316   0.134E-02    0.988E-02
RMM:   6    -0.709913164911E+03    0.19155E-04   -0.20131E-05  6733   0.891E-03    0.563E-02
RMM:   7    -0.709913159181E+03    0.57302E-05   -0.23913E-05  6685   0.786E-03    0.380E-02
RMM:   8    -0.709913158954E+03    0.22711E-06   -0.10217E-05  6235   0.676E-03
  68 F= -.70991316E+03 E0= -.70929119E+03  d E =-.890856E-03  mag=     7.3029
       N       E                     dE             d eps       ncg     rms          rms(c)
DAV:   1    -0.709914606490E+03   -0.14473E-02   -0.62175E-02 13872   0.373E-01    0.726E-02
RMM:   2    -0.709914851627E+03   -0.24514E-03   -0.16258E-03 12745   0.625E-02    0.161E-01
RMM:   3    -0.709914721323E+03    0.13030E-03   -0.19927E-04  7618   0.257E-02    0.464E-02
RMM:   4    -0.709914764896E+03   -0.43573E-04   -0.66577E-05  7350   0.155E-02    0.956E-02
RMM:   5    -0.709914752767E+03    0.12129E-04   -0.20318E-05  6722   0.895E-03    0.692E-02
RMM:   6    -0.709914755917E+03   -0.31502E-05   -0.10171E-05  6343   0.572E-03    0.662E-02
RMM:   7    -0.709914737979E+03    0.17938E-04   -0.66515E-06  5787   0.527E-03    0.272E-02
RMM:   8    -0.709914740235E+03   -0.22557E-05   -0.51931E-06  5392   0.432E-03
  69 F= -.70991474E+03 E0= -.70929283E+03  d E =-.247214E-02  mag=     7.3024
       N       E                     dE             d eps       ncg     rms          rms(c)
DAV:   1    -0.709915579145E+03   -0.84117E-03   -0.54578E-03 13472   0.103E-01    0.319E-02
RMM:   2    -0.709915642161E+03   -0.63016E-04   -0.17476E-04  7449   0.177E-02    0.963E-02
RMM:   3    -0.709915610570E+03    0.31591E-04   -0.29279E-05  7063   0.110E-02    0.719E-02
RMM:   4    -0.709915585498E+03    0.25072E-04   -0.69959E-06  5694   0.468E-03    0.133E-02
RMM:   5    -0.709915588548E+03   -0.30498E-05   -0.27799E-06  4102   0.362E-03    0.260E-02
RMM:   6    -0.709915585766E+03    0.27817E-05   -0.84933E-07  2985   0.308E-03    0.897E-03
RMM:   7    -0.709915584440E+03    0.13266E-05   -0.91835E-07  2426   0.301E-03    0.761E-03
RMM:   8    -0.709915583783E+03    0.65690E-06   -0.49312E-07  1837   0.280E-03
  70 F= -.70991558E+03 E0= -.70929367E+03  d E =-.843548E-03  mag=     7.3019
       N       E                     dE             d eps       ncg     rms          rms(c)
DAV:   1    -0.709917365349E+03   -0.17809E-02   -0.48904E-02 13744   0.306E-01    0.729E-02
RMM:   2    -0.709917604026E+03   -0.23868E-03   -0.14164E-03 11435   0.493E-02    0.159E-01
RMM:   3    -0.709917480369E+03    0.12366E-03   -0.15689E-04  7522   0.214E-02    0.973E-02
RMM:   4    -0.709917562933E+03   -0.82564E-04   -0.59410E-05  7289   0.132E-02    0.162E-01
RMM:   5    -0.709917458624E+03    0.10431E-03   -0.25972E-05  6745   0.987E-03    0.756E-02
RMM:   6    -0.709917440384E+03    0.18239E-04   -0.12066E-05  6372   0.678E-03    0.453E-02
RMM:   7    -0.709917424763E+03    0.15621E-04   -0.11248E-05  6131   0.584E-03    0.289E-02
RMM:   8    -0.709917419332E+03    0.54307E-05   -0.35688E-06  5275   0.450E-03
  71 F= -.70991742E+03 E0= -.70929546E+03  d E =-.267910E-02  mag=     7.3007
       N       E                     dE             d eps       ncg     rms          rms(c)
DAV:   1    -0.709915213566E+03    0.22112E-02   -0.19608E-01 13648   0.612E-01    0.144E-01
RMM:   2    -0.709916222636E+03   -0.10091E-02   -0.56619E-03 13398   0.982E-02    0.325E-01
RMM:   3    -0.709915797887E+03    0.42475E-03   -0.63660E-04 10381   0.411E-02    0.235E-01
RMM:   4    -0.709915880242E+03   -0.82355E-04   -0.23248E-04  8252   0.252E-02    0.274E-01
RMM:   5    -0.709915632367E+03    0.24788E-03   -0.10399E-04  7624   0.196E-02    0.160E-01
RMM:   6    -0.709915548388E+03    0.83979E-04   -0.43502E-05  7191   0.127E-02    0.935E-02
RMM:   7    -0.709915492478E+03    0.55910E-04   -0.48953E-05  7001   0.114E-02    0.605E-02
RMM:   8    -0.709915474624E+03    0.17853E-04   -0.16948E-05  6491   0.905E-03
  72 F= -.70991547E+03 E0= -.70929344E+03  d E =-.734389E-03  mag=     7.2981
       N       E                     dE             d eps       ncg     rms          rms(c)
DAV:   1    -0.709917482814E+03   -0.19903E-02   -0.10237E-01 13856   0.442E-01    0.107E-01
RMM:   2    -0.709918228999E+03   -0.74619E-03   -0.30281E-03 12998   0.720E-02    0.290E-01
RMM:   3    -0.709917845817E+03    0.38318E-03   -0.34679E-04  8491   0.313E-02    0.189E-01
RMM:   4    -0.709917827322E+03    0.18495E-04   -0.14701E-04  7580   0.206E-02    0.177E-01
RMM:   5    -0.709917771022E+03    0.56300E-04   -0.58868E-05  7319   0.143E-02    0.111E-01
RMM:   6    -0.709917757859E+03    0.13162E-04   -0.27325E-05  6823   0.103E-02    0.679E-02
RMM:   7    -0.709917769136E+03   -0.11277E-04   -0.27332E-05  6607   0.861E-03    0.348E-02
RMM:   8    -0.709917781632E+03   -0.12496E-04   -0.93363E-06  6140   0.668E-03
  73 F= -.70991778E+03 E0= -.70929581E+03  d E =-.304140E-02  mag=     7.2969
       N       E                     dE             d eps       ncg     rms          rms(c)
DAV:   1    -0.709918788207E+03   -0.10191E-02   -0.57459E-03 13520   0.114E-01    0.285E-02
RMM:   2    -0.709918877944E+03   -0.89737E-04   -0.15279E-04  7367   0.192E-02    0.116E-01
RMM:   3    -0.709918813564E+03    0.64380E-04   -0.22998E-05  7038   0.103E-02    0.441E-02
RMM:   4    -0.709918811697E+03    0.18674E-05   -0.83575E-06  6040   0.518E-03    0.329E-02
RMM:   5    -0.709918816416E+03   -0.47194E-05   -0.25205E-06  4569   0.379E-03    0.290E-02
RMM:   6    -0.709918819469E+03   -0.30530E-05   -0.84667E-07  2945   0.302E-03    0.206E-02
RMM:   7    -0.709918823311E+03   -0.38420E-05   -0.13677E-06  2939   0.317E-03    0.890E-03
RMM:   8    -0.709918825550E+03   -0.22391E-05   -0.18539E-07  1660   0.281E-03
  74 F= -.70991883E+03 E0= -.70929684E+03  d E =-.104392E-02  mag=     7.2961
       N       E                     dE             d eps       ncg     rms          rms(c)
DAV:   1    -0.709919450730E+03   -0.62742E-03   -0.20016E-02 13696   0.212E-01    0.496E-02
RMM:   2    -0.709919536858E+03   -0.86128E-04   -0.49811E-04  8980   0.352E-02    0.105E-01
RMM:   3    -0.709919500948E+03    0.35911E-04   -0.61938E-05  7238   0.160E-02    0.760E-02
RMM:   4    -0.709919513354E+03   -0.12406E-04   -0.21045E-05  6866   0.837E-03    0.958E-02
RMM:   5    -0.709919484061E+03    0.29293E-04   -0.84495E-06  6288   0.609E-03    0.520E-02
RMM:   6    -0.709919475192E+03    0.88684E-05   -0.51770E-06  5441   0.447E-03    0.354E-02
RMM:   7    -0.709919466443E+03    0.87494E-05   -0.44626E-06  5554   0.418E-03    0.205E-02
RMM:   8    -0.709919463393E+03    0.30503E-05   -0.97089E-07  3243   0.325E-03
  75 F= -.70991946E+03 E0= -.70929747E+03  d E =-.168176E-02  mag=     7.2948
       N       E                     dE             d eps       ncg     rms          rms(c)
DAV:   1    -0.709920217333E+03   -0.75089E-03   -0.88161E-03 13632   0.142E-01    0.286E-02
RMM:   2    -0.709920243845E+03   -0.26512E-04   -0.17802E-04  7439   0.225E-02    0.684E-02
RMM:   3    -0.709920234676E+03    0.91695E-05   -0.23272E-05  7057   0.107E-02    0.292E-02
RMM:   4    -0.709920256432E+03   -0.21756E-04   -0.71742E-06  6216   0.487E-03    0.674E-02
RMM:   5    -0.709920241258E+03    0.15175E-04   -0.39014E-06  5516   0.437E-03    0.250E-02
RMM:   6    -0.709920246359E+03   -0.51016E-05   -0.11891E-06  2866   0.306E-03    0.151E-02
RMM:   7    -0.709920254227E+03   -0.78679E-05   -0.66974E-07  2519   0.299E-03    0.898E-03
RMM:   8    -0.709920258014E+03   -0.37865E-05   -0.19975E-07  1874   0.282E-03
  76 F= -.70992026E+03 E0= -.70929822E+03  d E =-.794621E-03  mag=     7.2941
       N       E                     dE             d eps       ncg     rms          rms(c)
DAV:   1    -0.709920446797E+03   -0.19257E-03   -0.55769E-03 13488   0.113E-01    0.234E-02
RMM:   2    -0.709920462644E+03   -0.15847E-04   -0.11492E-04  7284   0.181E-02    0.406E-02
RMM:   3    -0.709920459896E+03    0.27479E-05   -0.14340E-05  6958   0.849E-03    0.149E-02
RMM:   4    -0.709920477174E+03   -0.17278E-04   -0.44762E-06  5555   0.397E-03    0.540E-02
RMM:   5    -0.709920465875E+03    0.11299E-04   -0.15587E-06  4178   0.338E-03    0.219E-02
RMM:   6    -0.709920467969E+03   -0.20940E-05   -0.58217E-07  2378   0.269E-03    0.110E-02
RMM:   7    -0.709920469445E+03   -0.14765E-05   -0.27242E-07  1873   0.253E-03    0.857E-03
RMM:   8    -0.709920469588E+03   -0.14251E-06   -0.59987E-08  1589   0.242E-03
  77 F= -.70992047E+03 E0= -.70929844E+03  d E =-.100620E-02  mag=     7.2940
       N       E                     dE             d eps       ncg     rms          rms(c)
DAV:   1    -0.709920792603E+03   -0.32316E-03   -0.35107E-03 13088   0.876E-02    0.189E-02
RMM:   2    -0.709920827453E+03   -0.34850E-04   -0.85254E-05  7210   0.148E-02    0.883E-02
RMM:   3    -0.709920796164E+03    0.31290E-04   -0.10720E-05  6815   0.732E-03    0.335E-02
RMM:   4    -0.709920801902E+03   -0.57383E-05   -0.35794E-06  4515   0.363E-03    0.511E-02
RMM:   5    -0.709920789304E+03    0.12598E-04   -0.19413E-06  3947   0.348E-03    0.262E-02
RMM:   6    -0.709920783658E+03    0.56460E-05   -0.35354E-07  1950   0.285E-03    0.178E-02
RMM:   7    -0.709920774952E+03    0.87053E-05   -0.62052E-07  2113   0.288E-03    0.127E-02
RMM:   8    -0.709920771150E+03    0.38028E-05   -0.20332E-07  1541   0.274E-03
  78 F= -.70992077E+03 E0= -.70929871E+03  d E =-.301562E-03  mag=     7.2945
       N       E                     dE             d eps       ncg     rms          rms(c)
DAV:   1    -0.709920909873E+03   -0.13492E-03   -0.68493E-03 13248   0.122E-01    0.274E-02
RMM:   2    -0.709920921325E+03   -0.11452E-04   -0.15787E-04  7355   0.203E-02    0.638E-02
RMM:   3    -0.709920912597E+03    0.87275E-05   -0.18938E-05  7091   0.940E-03    0.305E-02
RMM:   4    -0.709920937301E+03   -0.24704E-04   -0.87597E-06  6021   0.488E-03    0.763E-02
RMM:   5    -0.709920904522E+03    0.32779E-04   -0.58318E-06  5721   0.498E-03    0.461E-02
RMM:   6    -0.709920893643E+03    0.10879E-04   -0.93859E-07  3261   0.306E-03    0.277E-02
RMM:   7    -0.709920880953E+03    0.12690E-04   -0.37224E-07  2012   0.272E-03    0.175E-02
RMM:   8    -0.709920871289E+03    0.96641E-05   -0.42261E-07  2007   0.267E-03
  79 F= -.70992087E+03 E0= -.70929879E+03  d E =-.401701E-03  mag=     7.2956
       N       E                     dE             d eps       ncg     rms          rms(c)
DAV:   1    -0.709920867476E+03    0.13477E-04   -0.36904E-05  8000   0.971E-03    0.735E-03
RMM:   2    -0.709920870731E+03   -0.32546E-05   -0.35488E-06  5713   0.412E-03    0.256E-02
RMM:   3    -0.709920867279E+03    0.34518E-05   -0.73463E-08  1253   0.218E-03    0.987E-03
RMM:   4    -0.709920869105E+03   -0.18264E-05   -0.80053E-08  1114   0.224E-03    0.146E-02
RMM:   5    -0.709920868912E+03    0.19328E-06   -0.97115E-16   896   0.211E-03    0.821E-03
RMM:   6    -0.709920869277E+03   -0.36547E-06    0.00000E+00   809   0.214E-03    0.601E-03
RMM:   7    -0.709920873111E+03   -0.38333E-05   -0.18460E-07  1359   0.240E-03    0.389E-03
RMM:   8    -0.709920874669E+03   -0.15588E-05   -0.58791E-08  1054   0.234E-03
  80 F= -.70992087E+03 E0= -.70929880E+03  d E =-.405082E-03  mag=     7.2967
       N       E                     dE             d eps       ncg     rms          rms(c)
DAV:   1    -0.709920931882E+03   -0.58772E-04   -0.92789E-04 13168   0.468E-02    0.951E-03
RMM:   2    -0.709920946197E+03   -0.14314E-04   -0.22936E-05  7113   0.841E-03    0.455E-02
RMM:   3    -0.709920935167E+03    0.11029E-04   -0.29007E-06  5745   0.416E-03    0.115E-02
RMM:   4    -0.709920935796E+03   -0.62872E-06   -0.18986E-07  1193   0.227E-03    0.122E-02
RMM:   5    -0.709920934836E+03    0.95951E-06   -0.47404E-08  1143   0.219E-03    0.778E-03
RMM:   6    -0.709920933658E+03    0.11781E-05   -0.64985E-08  1145   0.223E-03    0.541E-03
RMM:   7    -0.709920932413E+03    0.12449E-05   -0.21405E-07  1321   0.238E-03    0.337E-03
RMM:   8    -0.709920932320E+03    0.93147E-07   -0.75956E-08  1137   0.238E-03
  81 F= -.70992093E+03 E0= -.70929885E+03  d E =-.576508E-04  mag=     7.2981
       N       E                     dE             d eps       ncg     rms          rms(c)
DAV:   1    -0.709920938721E+03   -0.63071E-05   -0.22805E-04 11776   0.234E-02    0.602E-03
RMM:   2    -0.709920940905E+03   -0.21848E-05   -0.77321E-06  6360   0.520E-03    0.935E-03
RMM:   3    -0.709920941713E+03   -0.80786E-06   -0.23791E-07  1747   0.262E-03    0.126E-02
RMM:   4    -0.709920940969E+03    0.74418E-06   -0.10753E-08   910   0.245E-03    0.500E-03
RMM:   5    -0.709920941764E+03   -0.79484E-06    0.00000E+00   866   0.242E-03    0.922E-03
RMM:   6    -0.709920941743E+03    0.21144E-07   -0.23133E-08   953   0.246E-03    0.502E-03
RMM:   7    -0.709920942399E+03   -0.65666E-06   -0.34969E-08  1027   0.247E-03    0.193E-03
RMM:   8    -0.709920943513E+03   -0.11139E-05   -0.34670E-09   971   0.247E-03
  82 F= -.70992094E+03 E0= -.70929887E+03  d E =-.688439E-04  mag=     7.2994
       N       E                     dE             d eps       ncg     rms          rms(c)
DAV:   1    -0.709920980199E+03   -0.37800E-04   -0.88610E-04 13296   0.452E-02    0.951E-03
RMM:   2    -0.709920988108E+03   -0.79082E-05   -0.21071E-05  7075   0.807E-03    0.281E-02
RMM:   3    -0.709920984143E+03    0.39641E-05   -0.28922E-06  5947   0.410E-03    0.124E-02
RMM:   4    -0.709920985131E+03   -0.98802E-06   -0.99051E-08  1297   0.221E-03    0.136E-02
RMM:   5    -0.709920984408E+03    0.72319E-06   -0.50588E-08  1156   0.212E-03    0.670E-03
RMM:   6    -0.709920984077E+03    0.33120E-06   -0.21060E-08   973   0.215E-03    0.500E-03
RMM:   7    -0.709920983926E+03    0.15082E-06   -0.85290E-08  1047   0.227E-03    0.379E-03
RMM:   8    -0.709920984041E+03   -0.11480E-06   -0.48160E-08   950   0.228E-03
  83 F= -.70992098E+03 E0= -.70929891E+03  d E =-.405277E-04  mag=     7.3007
