 ----------------------------------------------------
    OOO  PPPP  EEEEE N   N M   M PPPP
   O   O P   P E     NN  N MM MM P   P
   O   O PPPP  EEEEE N N N M M M PPPP   -- VERSION
   O   O P     E     N  NN M   M P
    OOO  P     EEEEE N   N M   M P
 ----------------------------------------------------
 running   16 mpi-ranks, with    4 threads/rank
 distrk:  each k-point on   16 cores,    1 groups
 distr:  one band on    1 cores,   16 groups
 vasp.6.2.1 16May21 (build Jul 28 2021 23:24:15) complex                        
  
 POSCAR found type information on POSCAR H IrO 
 POSCAR found :  3 types and     104 ions
 scaLAPACK will be used
 -----------------------------------------------------------------------------
|                                                                             |
|           W    W    AA    RRRRR   N    N  II  N    N   GGGG   !!!           |
|           W    W   A  A   R    R  NN   N  II  NN   N  G    G  !!!           |
|           W    W  A    A  R    R  N N  N  II  N N  N  G       !!!           |
|           W WW W  AAAAAA  RRRRR   N  N N  II  N  N N  G  GGG   !            |
|           WW  WW  A    A  R   R   N   NN  II  N   NN  G    G                |
|           W    W  A    A  R    R  N    N  II  N    N   GGGG   !!!           |
|                                                                             |
|     The real-space projection scheme for the treatment of the non-local     |
|     pseudopotentials has been switched on but on file POTCAR I have not     |
|     found any entries, signalling me that you have never performed a        |
|     real-space optimization of all non-local projectors! BE WARNED that     |
|     a calculation using the real-space projection scheme together with      |
|     non-local projectors which were not real-space optimized (according     |
|     to the plane-wave cutoff used in this calculation) might give more      |
|     or less inaccurate results. I hope you know what you are doing.         |
|                                                                             |
 -----------------------------------------------------------------------------

 LDA part: xc-table for Pade appr. of Perdew
 POSCAR, INCAR and KPOINTS ok, starting setup
 FFT: planning ...
 WAVECAR not read
 WARNING: random wavefunctions but no delay for mixing, default for NELMDL
 entering main loop
       N       E                     dE             d eps       ncg     rms          rms(c)
DAV:   1     0.759788023043E+04    0.75979E+04   -0.29776E+05 15104   0.126E+03
DAV:   2     0.598392167127E+03   -0.69995E+04   -0.63145E+04 16000   0.373E+02
DAV:   3    -0.762603777551E+03   -0.13610E+04   -0.13094E+04 18544   0.165E+02
DAV:   4    -0.836961968826E+03   -0.74358E+02   -0.72565E+02 20416   0.433E+01
DAV:   5    -0.838593627132E+03   -0.16317E+01   -0.16111E+01 19280   0.598E+00    0.188E+02
RMM:   6    -0.679651591696E+03    0.15894E+03   -0.60585E+02 14908   0.390E+01    0.154E+02
RMM:   7    -0.156697682402E+04   -0.88733E+03   -0.43148E+02 16671   0.262E+01    0.391E+02
RMM:   8    -0.127608599400E+04    0.29089E+03   -0.92657E+01 18654   0.105E+01    0.335E+02
RMM:   9    -0.117493395787E+04    0.10115E+03   -0.64556E+01 15432   0.114E+01    0.334E+02
RMM:  10    -0.908468341411E+03    0.26647E+03   -0.33985E+02 20446   0.218E+01    0.293E+02
RMM:  11    -0.101600045954E+04   -0.10753E+03   -0.69148E+01 17195   0.933E+00    0.263E+02
RMM:  12    -0.980778426100E+03    0.35222E+02   -0.10125E+02 18145   0.121E+01    0.240E+02
RMM:  13    -0.138325751177E+04   -0.40248E+03   -0.23622E+02 20945   0.195E+01    0.300E+02
RMM:  14    -0.128849738482E+04    0.94760E+02   -0.16228E+01 16985   0.522E+00    0.260E+02
RMM:  15    -0.102204368105E+04    0.26645E+03   -0.75876E+01 19509   0.115E+01    0.183E+02
RMM:  16    -0.738454792934E+03    0.28359E+03   -0.31122E+01 17482   0.661E+00    0.126E+02
RMM:  17    -0.694439014078E+03    0.44016E+02   -0.13383E+01 15934   0.511E+00    0.111E+02
RMM:  18    -0.655557766474E+03    0.38881E+02   -0.75575E+00 16144   0.350E+00    0.970E+01
RMM:  19    -0.653971692065E+03    0.15861E+01   -0.24909E+00 16029   0.235E+00    0.928E+01
RMM:  20    -0.654291380736E+03   -0.31969E+00   -0.73219E-01 17804   0.106E+00    0.916E+01
RMM:  21    -0.656327638737E+03   -0.20363E+01   -0.71256E-01 15197   0.132E+00    0.877E+01
RMM:  22    -0.659074953034E+03   -0.27473E+01   -0.44867E+00 20116   0.295E+00    0.758E+01
RMM:  23    -0.659726260254E+03   -0.65131E+00   -0.36123E+00 19865   0.274E+00    0.642E+01
RMM:  24    -0.662166561268E+03   -0.24403E+01   -0.21947E+00 18963   0.238E+00    0.543E+01
RMM:  25    -0.663128295459E+03   -0.96173E+00   -0.29925E-01 15884   0.904E-01    0.508E+01
RMM:  26    -0.663124087814E+03    0.42076E-02   -0.18167E-01 15393   0.674E-01    0.490E+01
RMM:  27    -0.663195583166E+03   -0.71495E-01   -0.55490E-01 18559   0.113E+00    0.447E+01
RMM:  28    -0.663157652934E+03    0.37930E-01   -0.10438E+00 19957   0.157E+00    0.386E+01
RMM:  29    -0.664836428534E+03   -0.16788E+01   -0.24436E+00 22545   0.238E+00    0.347E+01
RMM:  30    -0.665022831086E+03   -0.18640E+00   -0.61344E-01 18228   0.114E+00    0.333E+01
RMM:  31    -0.666436852187E+03   -0.14140E+01   -0.62521E-01 17634   0.108E+00    0.318E+01
RMM:  32    -0.672803670304E+03   -0.63668E+01   -0.28694E+00 21753   0.216E+00    0.300E+01
RMM:  33    -0.675340057162E+03   -0.25364E+01   -0.17726E+00 21092   0.189E+00    0.237E+01
RMM:  34    -0.677285948198E+03   -0.19459E+01   -0.13476E+00 20090   0.154E+00    0.195E+01
RMM:  35    -0.679545388819E+03   -0.22594E+01   -0.13438E+00 20220   0.158E+00    0.186E+01
RMM:  36    -0.681447836165E+03   -0.19024E+01   -0.32296E-01 17056   0.942E-01    0.186E+01
RMM:  37    -0.684246360545E+03   -0.27985E+01   -0.65721E-01 19265   0.112E+00    0.214E+01
RMM:  38    -0.686610000075E+03   -0.23636E+01   -0.57863E-01 18849   0.103E+00    0.210E+01
RMM:  39    -0.688000988674E+03   -0.13910E+01   -0.57725E-01 19419   0.105E+00    0.172E+01
RMM:  40    -0.690135006524E+03   -0.21340E+01   -0.29838E-01 18134   0.805E-01    0.138E+01
RMM:  41    -0.692327904689E+03   -0.21929E+01   -0.20143E-01 16822   0.680E-01    0.129E+01
RMM:  42    -0.694554247662E+03   -0.22263E+01   -0.11375E-01 15445   0.533E-01    0.122E+01
RMM:  43    -0.696856710479E+03   -0.23025E+01   -0.30075E-01 18342   0.727E-01    0.112E+01
RMM:  44    -0.697858693061E+03   -0.10020E+01   -0.25837E-01 18421   0.749E-01    0.119E+01
RMM:  45    -0.700593060138E+03   -0.27344E+01   -0.26677E-01 18495   0.746E-01    0.146E+01
RMM:  46    -0.700074924696E+03    0.51814E+00   -0.90928E-02 15822   0.463E-01    0.154E+01
RMM:  47    -0.699578479983E+03    0.49644E+00   -0.13715E-01 17401   0.525E-01    0.158E+01
RMM:  48    -0.699687358463E+03   -0.10888E+00   -0.22181E-01 19116   0.643E-01    0.124E+01
RMM:  49    -0.699851578440E+03   -0.16422E+00   -0.13345E-01 17742   0.525E-01    0.117E+01
RMM:  50    -0.700255495820E+03   -0.40392E+00   -0.12656E-01 17670   0.498E-01    0.120E+01
RMM:  51    -0.699861372586E+03    0.39412E+00   -0.93286E-01 24045   0.126E+00    0.930E+00
RMM:  52    -0.700126421017E+03   -0.26505E+00   -0.88311E-02 16322   0.448E-01    0.815E+00
RMM:  53    -0.701301931416E+03   -0.11755E+01   -0.14955E-01 18276   0.544E-01    0.820E+00
RMM:  54    -0.702137488753E+03   -0.83556E+00   -0.99589E-02 17055   0.456E-01    0.688E+00
RMM:  55    -0.702930027820E+03   -0.79254E+00   -0.65377E-02 16207   0.355E-01    0.647E+00
RMM:  56    -0.701195686839E+03    0.17343E+01   -0.29573E-01 20434   0.740E-01    0.718E+00
RMM:  57    -0.701844167168E+03   -0.64848E+00   -0.30960E-02 15106   0.293E-01    0.611E+00
RMM:  58    -0.703033150102E+03   -0.11890E+01   -0.32987E-01 20748   0.655E-01    0.470E+00
RMM:  59    -0.703489089640E+03   -0.45594E+00   -0.11139E-01 18334   0.385E-01    0.490E+00
RMM:  60    -0.703712912759E+03   -0.22382E+00   -0.41188E-02 16452   0.251E-01    0.460E+00
RMM:  61    -0.704062235203E+03   -0.34932E+00   -0.23535E-01 21494   0.606E-01    0.448E+00
RMM:  62    -0.703549935553E+03    0.51230E+00   -0.81121E-02 18564   0.394E-01    0.305E+00
RMM:  63    -0.704168955781E+03   -0.61902E+00   -0.30770E-02 16181   0.258E-01    0.285E+00
RMM:  64    -0.703975311638E+03    0.19364E+00   -0.23946E-02 16429   0.226E-01    0.238E+00
RMM:  65    -0.704151044993E+03   -0.17573E+00   -0.15775E-02 15976   0.184E-01    0.222E+00
RMM:  66    -0.704364500634E+03   -0.21346E+00   -0.21804E-02 17451   0.206E-01    0.137E+00
RMM:  67    -0.704579211432E+03   -0.21471E+00   -0.52126E-03 15065   0.125E-01    0.114E+00
RMM:  68    -0.704679387822E+03   -0.10018E+00   -0.44282E-03 15202   0.972E-02    0.981E-01
RMM:  69    -0.704762013028E+03   -0.82625E-01   -0.30579E-03 15059   0.745E-02    0.704E-01
RMM:  70    -0.704876207278E+03   -0.11419E+00   -0.22537E-03 14911   0.626E-02    0.568E-01
RMM:  71    -0.704968187682E+03   -0.91980E-01   -0.16925E-03 15102   0.584E-02    0.495E-01
RMM:  72    -0.705187467153E+03   -0.21928E+00   -0.39988E-03 16774   0.745E-02    0.403E-01
RMM:  73    -0.705369845133E+03   -0.18238E+00   -0.22829E-03 15637   0.586E-02    0.245E-01
RMM:  74    -0.705503226292E+03   -0.13338E+00   -0.12495E-03 13978   0.421E-02    0.237E-01
RMM:  75    -0.705585528286E+03   -0.82302E-01   -0.66805E-04 12522   0.330E-02    0.206E-01
RMM:  76    -0.705641098789E+03   -0.55571E-01   -0.40732E-04 11318   0.267E-02    0.174E-01
RMM:  77    -0.705678871868E+03   -0.37773E-01   -0.21698E-04  9837   0.210E-02    0.161E-01
RMM:  78    -0.705698767291E+03   -0.19895E-01   -0.10592E-04  9111   0.157E-02    0.104E-01
RMM:  79    -0.705706709114E+03   -0.79418E-02   -0.53058E-05  8829   0.120E-02    0.888E-02
RMM:  80    -0.705710468245E+03   -0.37591E-02   -0.34190E-05  8743   0.103E-02
 -----------------------------------------------------------------------------
|                                                                             |
|           W    W    AA    RRRRR   N    N  II  N    N   GGGG   !!!           |
|           W    W   A  A   R    R  NN   N  II  NN   N  G    G  !!!           |
|           W    W  A    A  R    R  N N  N  II  N N  N  G       !!!           |
|           W WW W  AAAAAA  RRRRR   N  N N  II  N  N N  G  GGG   !            |
|           WW  WW  A    A  R   R   N   NN  II  N   NN  G    G                |
|           W    W  A    A  R    R  N    N  II  N    N   GGGG   !!!           |
|                                                                             |
|     The electronic self-consistency was not achieved in the given           |
|     number of steps (NELM). The forces and other quantities evaluated       |
|     might not be reliable so examine the results carefully. If you find     |
|     spurious results, we suggest increasing NELM, if you were close to      |
|     convergence or switching to a different ALGO or adjusting the           |
|     density mixing parameters otherwise.                                    |
|                                                                             |
 -----------------------------------------------------------------------------

   1 F= -.70571047E+03 E0= -.70510583E+03  d E =-.705710E+03  mag=     0.1374
 curvature:   0.00 expect dE= 0.000E+00 dE for cont linesearch  0.000E+00
 trial: gam= 0.00000 g(F)=  0.206E+02 g(S)=  0.000E+00 ort = 0.000E+00 (trialstep = 0.100E+01)
 search vector abs. value=  0.206E+02
 bond charge predicted
       N       E                     dE             d eps       ncg     rms          rms(c)
DAV:   1    -0.662433411226E+03    0.43273E+02   -0.37922E+03 15328   0.833E+01    0.187E+01
RMM:   2    -0.705233156548E+03   -0.42800E+02   -0.31253E+02 15413   0.192E+01    0.513E+01
RMM:   3    -0.713723759516E+03   -0.84906E+01   -0.61327E+01 15925   0.803E+00    0.451E+01
RMM:   4    -0.697765583112E+03    0.15958E+02   -0.48330E+00 15055   0.380E+00    0.275E+01
RMM:   5    -0.694714741202E+03    0.30508E+01   -0.18665E+00 15140   0.227E+00    0.231E+01
RMM:   6    -0.694310047173E+03    0.40469E+00   -0.12554E+00 15476   0.151E+00    0.216E+01
RMM:   7    -0.693332528337E+03    0.97752E+00   -0.34008E-01 14966   0.105E+00    0.166E+01
RMM:   8    -0.693882801930E+03   -0.55027E+00   -0.13379E+00 16892   0.135E+00    0.180E+01
RMM:   9    -0.693028436037E+03    0.85437E+00   -0.35672E-01 15480   0.927E-01    0.125E+01
RMM:  10    -0.692504591708E+03    0.52384E+00   -0.63015E-01 16704   0.933E-01    0.941E+00
RMM:  11    -0.692137696739E+03    0.36689E+00   -0.64425E-02 14953   0.454E-01    0.551E+00
RMM:  12    -0.692029852190E+03    0.10784E+00   -0.45314E-02 15056   0.334E-01    0.444E+00
RMM:  13    -0.691919389146E+03    0.11046E+00   -0.58641E-02 15827   0.309E-01    0.274E+00
RMM:  14    -0.691868422441E+03    0.50967E-01   -0.30871E-02 15672   0.250E-01    0.136E+00
RMM:  15    -0.691857019778E+03    0.11403E-01   -0.18355E-02 15605   0.195E-01    0.111E+00
RMM:  16    -0.691851504071E+03    0.55157E-02   -0.13298E-02 15798   0.161E-01    0.871E-01
RMM:  17    -0.691850337613E+03    0.11665E-02   -0.11351E-02 15879   0.142E-01    0.778E-01
RMM:  18    -0.691847207567E+03    0.31300E-02   -0.22706E-03 15036   0.783E-02    0.524E-01
RMM:  19    -0.691845205935E+03    0.20016E-02   -0.78182E-04 13387   0.467E-02    0.338E-01
RMM:  20    -0.691843972824E+03    0.12331E-02   -0.47253E-04 11106   0.303E-02    0.265E-01
RMM:  21    -0.691844181399E+03   -0.20858E-03   -0.72040E-05  8969   0.162E-02    0.269E-01
RMM:  22    -0.691844169682E+03    0.11717E-04   -0.21558E-05  8136   0.860E-03
   2 F= -.69184417E+03 E0= -.69124651E+03  d E =0.138663E+02  mag=     0.1199
 trial-energy change:   13.866299  1 .order    6.212680  -20.605549   33.030908
 step:   0.2317(harm=  0.3842)  dis= 0.10239  next Energy=  -708.002793 (dE=-0.229E+01)
 bond charge predicted
       N       E                     dE             d eps       ncg     rms          rms(c)
DAV:   1    -0.695780414223E+03   -0.39362E+01   -0.26325E+03 14912   0.598E+01    0.203E+01
RMM:   2    -0.743641499404E+03   -0.47861E+02   -0.21505E+02 14886   0.149E+01    0.657E+01
RMM:   3    -0.721955993108E+03    0.21686E+02   -0.36481E+01 15225   0.736E+00    0.322E+01
RMM:   4    -0.729872161792E+03   -0.79162E+01   -0.50693E+00 14914   0.374E+00    0.475E+01
RMM:   5    -0.709846888784E+03    0.20025E+02   -0.33555E+00 15123   0.295E+00    0.147E+01
RMM:   6    -0.708450605381E+03    0.13963E+01   -0.29096E+00 15836   0.227E+00    0.132E+01
RMM:   7    -0.707806137178E+03    0.64447E+00   -0.11780E+00 16176   0.142E+00    0.994E+00
RMM:   8    -0.708221211311E+03   -0.41507E+00   -0.12300E+00 16413   0.124E+00    0.110E+01
RMM:   9    -0.707473721115E+03    0.74749E+00   -0.27009E-01 15119   0.861E-01    0.532E+00
RMM:  10    -0.707384938645E+03    0.88782E-01   -0.10319E-01 14965   0.563E-01    0.418E+00
RMM:  11    -0.707351754411E+03    0.33184E-01   -0.67913E-02 15173   0.394E-01    0.297E+00
RMM:  12    -0.707388238835E+03   -0.36484E-01   -0.32132E-02 16086   0.259E-01    0.353E+00
RMM:  13    -0.707361391175E+03    0.26848E-01   -0.87477E-03 16007   0.141E-01    0.299E+00
RMM:  14    -0.707327779602E+03    0.33612E-01   -0.40898E-03 14904   0.994E-02    0.219E+00
RMM:  15    -0.707314491094E+03    0.13289E-01   -0.13940E-02 17140   0.143E-01    0.165E+00
RMM:  16    -0.707309359374E+03    0.51317E-02   -0.27466E-03 14975   0.726E-02    0.140E+00
RMM:  17    -0.707307335070E+03    0.20243E-02   -0.10667E-03 13719   0.447E-02    0.129E+00
RMM:  18    -0.707308142444E+03   -0.80737E-03   -0.31899E-04 11139   0.311E-02    0.119E+00
RMM:  19    -0.707307325885E+03    0.81656E-03   -0.98762E-04 13852   0.479E-02    0.959E-01
RMM:  20    -0.707306691976E+03    0.63391E-03   -0.29591E-04 10765   0.281E-02    0.828E-01
RMM:  21    -0.707305818744E+03    0.87323E-03   -0.16135E-04  9311   0.212E-02    0.694E-01
RMM:  22    -0.707305040998E+03    0.77775E-03   -0.14092E-04  9164   0.185E-02    0.534E-01
RMM:  23    -0.707304725946E+03    0.31505E-03   -0.11311E-04  8885   0.172E-02    0.396E-01
RMM:  24    -0.707304425505E+03    0.30044E-03   -0.21658E-04  9844   0.210E-02    0.189E-01
RMM:  25    -0.707304454616E+03   -0.29112E-04   -0.10568E-04  8895   0.166E-02
   3 F= -.70730445E+03 E0= -.70670227E+03  d E =-.159399E+01  mag=     0.0828
 curvature:  -0.18 expect dE=-0.105E+01 dE for cont linesearch -0.824E-05
 trial: gam= 0.28288 g(F)=  0.580E+01 g(S)=  0.000E+00 ort =-0.307E-01 (trialstep = 0.846E+00)
 search vector abs. value=  0.743E+01
 bond charge predicted
       N       E                     dE             d eps       ncg     rms          rms(c)
DAV:   1    -0.686853276928E+03    0.20451E+02   -0.12304E+03 14928   0.489E+01    0.121E+01
RMM:   2    -0.717948530963E+03   -0.31095E+02   -0.47377E+01 14848   0.921E+00    0.594E+01
RMM:   3    -0.691623759257E+03    0.26325E+02   -0.75960E+00 14995   0.424E+00    0.177E+01
RMM:   4    -0.689839446906E+03    0.17843E+01   -0.15514E+00 14933   0.228E+00    0.949E+00
RMM:   5    -0.689607911918E+03    0.23153E+00   -0.58935E-01 14992   0.138E+00    0.812E+00
RMM:   6    -0.689642782473E+03   -0.34871E-01   -0.29225E-01 14947   0.950E-01    0.861E+00
RMM:   7    -0.689332493158E+03    0.31029E+00   -0.13733E-01 14869   0.693E-01    0.506E+00
RMM:   8    -0.689308738314E+03    0.23755E-01   -0.23652E-01 16169   0.721E-01    0.397E+00
RMM:   9    -0.689227080830E+03    0.81657E-01   -0.20502E-01 16406   0.677E-01    0.205E+00
RMM:  10    -0.689204624169E+03    0.22457E-01   -0.24318E-02 14896   0.293E-01    0.131E+00
RMM:  11    -0.689198681602E+03    0.59426E-02   -0.10832E-02 15129   0.169E-01    0.865E-01
RMM:  12    -0.689195757179E+03    0.29244E-02   -0.49466E-03 14915   0.106E-01    0.655E-01
RMM:  13    -0.689194907519E+03    0.84966E-03   -0.17149E-03 14225   0.691E-02    0.420E-01
RMM:  14    -0.689194834395E+03    0.73125E-04   -0.10280E-03 13885   0.472E-02    0.300E-01
RMM:  15    -0.689194828930E+03    0.54641E-05   -0.36129E-04 11187   0.305E-02
   4 F= -.68919483E+03 E0= -.68857851E+03  d E =0.181096E+02  mag=     0.0641
 trial-energy change:   18.109626  1 .order   23.294593   -4.899990   51.489175
 step:   0.1368(harm=  0.0735)  dis= 0.01366  next Energy=  -707.722451 (dE=-0.418E+00)
 bond charge predicted
       N       E                     dE             d eps       ncg     rms          rms(c)
DAV:   1    -0.707381532590E+03   -0.18187E+02   -0.86421E+02 15040   0.395E+01    0.182E+01
RMM:   2    -0.750953130084E+03   -0.43572E+02   -0.68344E+01 15015   0.892E+00    0.734E+01
RMM:   3    -0.718509836049E+03    0.32443E+02   -0.11451E+01 15206   0.494E+00    0.285E+01
RMM:   4    -0.717267649883E+03    0.12422E+01   -0.34690E+00 14869   0.306E+00    0.335E+01
RMM:   5    -0.709085036368E+03    0.81826E+01   -0.26302E+00 15372   0.244E+00    0.119E+01
RMM:   6    -0.708861384593E+03    0.22365E+00   -0.10180E+00 15313   0.150E+00    0.132E+01
RMM:   7    -0.707929013205E+03    0.93237E+00   -0.78432E-01 16148   0.109E+00    0.780E+00
RMM:   8    -0.707764809758E+03    0.16420E+00   -0.25699E-01 15889   0.723E-01    0.699E+00
RMM:   9    -0.707597841591E+03    0.16697E+00   -0.36556E-01 16614   0.723E-01    0.521E+00
RMM:  10    -0.707479503876E+03    0.11834E+00   -0.10307E-01 14941   0.586E-01    0.249E+00
RMM:  11    -0.707462027339E+03    0.17477E-01   -0.65561E-02 15320   0.413E-01    0.208E+00
RMM:  12    -0.707446996699E+03    0.15031E-01   -0.15423E-02 14986   0.222E-01    0.121E+00
RMM:  13    -0.707442524841E+03    0.44719E-02   -0.54747E-03 15130   0.128E-01    0.994E-01
RMM:  14    -0.707437337719E+03    0.51871E-02   -0.20715E-03 14389   0.762E-02    0.405E-01
RMM:  15    -0.707437328363E+03    0.93561E-05   -0.11420E-03 14074   0.503E-02    0.370E-01
RMM:  16    -0.707437031061E+03    0.29730E-03   -0.10431E-03 14005   0.459E-02    0.264E-01
RMM:  17    -0.707436908652E+03    0.12241E-03   -0.36624E-04 11259   0.304E-02    0.200E-01
RMM:  18    -0.707436815199E+03    0.93453E-04   -0.21302E-04  9874   0.229E-02
   5 F= -.70743682E+03 E0= -.70683259E+03  d E =-.132361E+00  mag=     0.0456
 curvature:  -0.05 expect dE=-0.288E+00 dE for cont linesearch -0.117E+00
 ZBRENT: interpolating
 opt :   0.0785  next Energy=  -707.562451 (dE=-0.258E+00)
 bond charge predicted
       N       E                     dE             d eps       ncg     rms          rms(c)
DAV:   1    -0.707537859609E+03   -0.10095E+00   -0.58014E+00 15584   0.342E+00    0.107E+00
RMM:   2    -0.707916390756E+03   -0.37853E+00   -0.20256E-01 14858   0.676E-01    0.797E+00
RMM:   3    -0.707565870512E+03    0.35052E+00   -0.35250E-02 14854   0.384E-01    0.186E+00
RMM:   4    -0.707562426414E+03    0.34441E-02   -0.12993E-02 14863   0.218E-01    0.174E+00
RMM:   5    -0.707546863829E+03    0.15563E-01   -0.54682E-03 14974   0.128E-01    0.865E-01
RMM:   6    -0.707544945699E+03    0.19181E-02   -0.27648E-03 14740   0.784E-02    0.623E-01
RMM:   7    -0.707543935634E+03    0.10101E-02   -0.14318E-03 13761   0.578E-02    0.391E-01
RMM:   8    -0.707543776952E+03    0.15868E-03   -0.11574E-03 13967   0.475E-02    0.283E-01
RMM:   9    -0.707543484999E+03    0.29195E-03   -0.28178E-04 10844   0.342E-02    0.151E-01
RMM:  10    -0.707543533067E+03   -0.48068E-04   -0.90920E-05  8842   0.184E-02
   6 F= -.70754353E+03 E0= -.70693963E+03  d E =-.239078E+00  mag=     0.0386
 curvature:  -0.05 expect dE=-0.962E-01 dE for cont linesearch -0.287E-02
 ZBRENT: interpolating
 opt :   0.0861  next Energy=  -707.546030 (dE=-0.242E+00)
 bond charge predicted
       N       E                     dE             d eps       ncg     rms          rms(c)
DAV:   1    -0.707547266163E+03   -0.37812E-02   -0.99599E-02 15552   0.444E-01    0.227E-01
RMM:   2    -0.707584591573E+03   -0.37325E-01   -0.54327E-03 14829   0.106E-01    0.245E+00
RMM:   3    -0.707547484105E+03    0.37107E-01   -0.20012E-03 14275   0.956E-02    0.398E-01
RMM:   4    -0.707547330350E+03    0.15375E-03   -0.51444E-04 12232   0.472E-02    0.121E-01
RMM:   5    -0.707547315509E+03    0.14841E-04   -0.15727E-04  8914   0.233E-02    0.734E-02
RMM:   6    -0.707547334270E+03   -0.18761E-04   -0.55954E-05  8045   0.146E-02    0.543E-02
RMM:   7    -0.707547401470E+03   -0.67201E-04   -0.29912E-05  7630   0.970E-03    0.506E-02
RMM:   8    -0.707547435496E+03   -0.34026E-04   -0.14533E-05  7276   0.716E-03
   7 F= -.70754744E+03 E0= -.70694365E+03  d E =-.242981E+00  mag=     0.0341
 curvature:  -0.04 expect dE=-0.929E-01 dE for cont linesearch -0.420E-03
 trial: gam= 0.35162 g(F)=  0.212E+01 g(S)=  0.000E+00 ort = 0.267E+00 (trialstep = 0.694E+00)
 search vector abs. value=  0.323E+01
 bond charge predicted
       N       E                     dE             d eps       ncg     rms          rms(c)
DAV:   1    -0.705933070098E+03    0.16143E+01   -0.32144E+02 14848   0.241E+01    0.538E+00
RMM:   2    -0.709385193424E+03   -0.34521E+01   -0.63547E+00 14848   0.491E+00    0.209E+01
RMM:   3    -0.706941570228E+03    0.24436E+01   -0.18778E+00 16292   0.210E+00    0.821E+00
RMM:   4    -0.706644803264E+03    0.29677E+00   -0.36856E-01 15232   0.111E+00    0.464E+00
RMM:   5    -0.706611315460E+03    0.33488E-01   -0.15494E-01 14945   0.719E-01    0.450E+00
RMM:   6    -0.706558394702E+03    0.52921E-01   -0.68300E-02 14907   0.454E-01    0.307E+00
RMM:   7    -0.706632647869E+03   -0.74253E-01   -0.11728E-01 16398   0.496E-01    0.436E+00
RMM:   8    -0.706524008981E+03    0.10864E+00   -0.52095E-02 15340   0.370E-01    0.160E+00
RMM:   9    -0.706516035621E+03    0.79734E-02   -0.15107E-02 14924   0.230E-01    0.114E+00
RMM:  10    -0.706512637891E+03    0.33977E-02   -0.49657E-03 15411   0.120E-01    0.717E-01
RMM:  11    -0.706510313684E+03    0.23242E-02   -0.20739E-03 14575   0.766E-02    0.476E-01
RMM:  12    -0.706509397995E+03    0.91569E-03   -0.32754E-03 14937   0.746E-02    0.357E-01
RMM:  13    -0.706509043840E+03    0.35415E-03   -0.95958E-04 14105   0.483E-02    0.245E-01
RMM:  14    -0.706508779917E+03    0.26392E-03   -0.36611E-04 11625   0.316E-02    0.951E-02
RMM:  15    -0.706508776785E+03    0.31319E-05   -0.96956E-05  9009   0.191E-02
   8 F= -.70650878E+03 E0= -.70590291E+03  d E =0.103866E+01  mag=     0.0267
 trial-energy change:    1.038659  1 .order    0.661553   -1.539929    2.863035
 step:   0.1755(harm=  0.2428)  dis= 0.01921  next Energy=  -707.735922 (dE=-0.188E+00)
 bond charge predicted
       N       E                     dE             d eps       ncg     rms          rms(c)
DAV:   1    -0.707355147103E+03   -0.84637E+00   -0.17914E+02 14880   0.179E+01    0.458E+00
RMM:   2    -0.709510419130E+03   -0.21553E+01   -0.35917E+00 14848   0.360E+00    0.188E+01
RMM:   3    -0.708679054844E+03    0.83136E+00   -0.91742E-01 15652   0.160E+00    0.122E+01
RMM:   4    -0.707716456326E+03    0.96260E+00   -0.21429E-01 15027   0.930E-01    0.318E+00
RMM:   5    -0.707720051251E+03   -0.35949E-02   -0.10588E-01 14914   0.585E-01    0.399E+00
RMM:   6    -0.707668961226E+03    0.51090E-01   -0.54819E-02 14929   0.407E-01    0.263E+00
RMM:   7    -0.707687194641E+03   -0.18233E-01   -0.57709E-02 15713   0.352E-01    0.259E+00
RMM:   8    -0.707651456306E+03    0.35738E-01   -0.26772E-02 15002   0.280E-01    0.146E+00
RMM:   9    -0.707645485629E+03    0.59707E-02   -0.10563E-02 14999   0.182E-01    0.855E-01
RMM:  10    -0.707642856392E+03    0.26292E-02   -0.26698E-03 14633   0.991E-02    0.570E-01
RMM:  11    -0.707641903242E+03    0.95315E-03   -0.10820E-03 14264   0.498E-02    0.454E-01
RMM:  12    -0.707641200674E+03    0.70257E-03   -0.75309E-04 13525   0.409E-02    0.340E-01
RMM:  13    -0.707640838306E+03    0.36237E-03   -0.12574E-03 14553   0.471E-02    0.197E-01
RMM:  14    -0.707640747233E+03    0.91073E-04   -0.30127E-04 11086   0.290E-02
   9 F= -.70764075E+03 E0= -.70703611E+03  d E =-.933117E-01  mag=     0.0217
 curvature:  -0.17 expect dE=-0.860E+00 dE for cont linesearch -0.395E-01
 ZBRENT: interpolating
 opt :   0.1265  next Energy=  -707.661806 (dE=-0.114E+00)
 bond charge predicted
       N       E                     dE             d eps       ncg     rms          rms(c)
DAV:   1    -0.707676248992E+03   -0.35411E-01   -0.16076E+00 15952   0.172E+00    0.430E-01
RMM:   2    -0.707734124369E+03   -0.57875E-01   -0.32919E-02 14858   0.342E-01    0.307E+00
RMM:   3    -0.707680451649E+03    0.53673E-01   -0.84617E-03 15170   0.172E-01    0.706E-01
RMM:   4    -0.707679032353E+03    0.14193E-02   -0.21965E-03 14822   0.933E-02    0.280E-01
RMM:   5    -0.707679454822E+03   -0.42247E-03   -0.84274E-04 13837   0.523E-02    0.427E-01
RMM:   6    -0.707680328128E+03   -0.87331E-03   -0.74649E-04 13673   0.436E-02    0.530E-01
RMM:   7    -0.707679162892E+03    0.11652E-02   -0.52727E-04 12551   0.387E-02    0.303E-01
RMM:   8    -0.707678781436E+03    0.38146E-03   -0.27194E-04 10721   0.272E-02    0.132E-01
RMM:   9    -0.707678753448E+03    0.27988E-04   -0.11118E-04  8787   0.213E-02
  10 F= -.70767875E+03 E0= -.70707481E+03  d E =-.131318E+00  mag=     0.0194
 curvature:  -0.09 expect dE=-0.531E+00 dE for cont linesearch -0.846E-02
 ZBRENT: interpolating
 opt :   0.0584  next Energy=  -707.700958 (dE=-0.154E+00)
 bond charge predicted
       N       E                     dE             d eps       ncg     rms          rms(c)
DAV:   1    -0.707653542187E+03    0.25239E-01   -0.30914E+00 15680   0.240E+00    0.540E-01
RMM:   2    -0.707734692888E+03   -0.81151E-01   -0.61621E-02 14852   0.466E-01    0.363E+00
RMM:   3    -0.707658331296E+03    0.76362E-01   -0.15185E-02 15520   0.220E-01    0.552E-01
RMM:   4    -0.707660704764E+03   -0.23735E-02   -0.36232E-03 15579   0.111E-01    0.694E-01
RMM:   5    -0.707661570187E+03   -0.86542E-03   -0.18336E-03 14463   0.767E-02    0.795E-01
RMM:   6    -0.707660660523E+03    0.90966E-03   -0.12894E-03 14112   0.611E-02    0.648E-01
RMM:   7    -0.707659766876E+03    0.89365E-03   -0.82107E-04 13586   0.459E-02    0.421E-01
RMM:   8    -0.707658728636E+03    0.10382E-02   -0.39388E-04 11674   0.329E-02    0.176E-01
RMM:   9    -0.707658685845E+03    0.42791E-04   -0.11703E-04  8913   0.221E-02
  11 F= -.70765869E+03 E0= -.70705473E+03  d E =-.111250E+00  mag=     0.0173
 curvature:  -0.24 expect dE=-0.603E+00 dE for cont linesearch -0.127E+00
 ZBRENT: interpolating
 opt :   0.1064  next Energy=  -707.684225 (dE=-0.137E+00)
 bond charge predicted
       N       E                     dE             d eps       ncg     rms          rms(c)
DAV:   1    -0.707683764176E+03   -0.25036E-01   -0.15400E+00 15664   0.169E+00    0.374E-01
RMM:   2    -0.707704565401E+03   -0.20801E-01   -0.28852E-02 14850   0.322E-01    0.186E+00
RMM:   3    -0.707686676038E+03    0.17889E-01   -0.71350E-03 15882   0.143E-01    0.475E-01
RMM:   4    -0.707688131943E+03   -0.14559E-02   -0.16263E-03 15033   0.725E-02    0.639E-01
RMM:   5    -0.707687481458E+03    0.65048E-03   -0.92216E-04 13800   0.540E-02    0.577E-01
RMM:   6    -0.707686793647E+03    0.68781E-03   -0.88267E-04 13997   0.482E-02    0.434E-01
RMM:   7    -0.707686021516E+03    0.77213E-03   -0.63249E-04 12743   0.401E-02    0.156E-01
RMM:   8    -0.707685995371E+03    0.26145E-04   -0.20610E-04  9653   0.256E-02
  12 F= -.70768600E+03 E0= -.70708194E+03  d E =-.138560E+00  mag=     0.0156
 curvature:  -0.01 expect dE=-0.520E-01 dE for cont linesearch -0.698E-04
 trial: gam= 1.82357 g(F)=  0.499E+01 g(S)=  0.000E+00 ort =-0.147E+00 (trialstep = 0.123E+00)
 search vector abs. value=  0.152E+02
 bond charge predicted
       N       E                     dE             d eps       ncg     rms          rms(c)
DAV:   1    -0.707654820709E+03    0.31201E-01   -0.42082E+01 15344   0.852E+00    0.210E+00
RMM:   2    -0.707844747939E+03   -0.18993E+00   -0.88283E-01 14874   0.166E+00    0.495E+00
RMM:   3    -0.707891678020E+03   -0.46930E-01   -0.22421E-01 16021   0.771E-01    0.562E+00
RMM:   4    -0.707770669738E+03    0.12101E+00   -0.61585E-02 15606   0.409E-01    0.327E+00
RMM:   5    -0.707711533174E+03    0.59137E-01   -0.24992E-02 14905   0.293E-01    0.181E+00
RMM:   6    -0.707708596934E+03    0.29362E-02   -0.14475E-02 15098   0.204E-01    0.173E+00
RMM:   7    -0.707702078056E+03    0.65189E-02   -0.19399E-02 16013   0.203E-01    0.132E+00
RMM:   8    -0.707696667117E+03    0.54109E-02   -0.61209E-03 14933   0.136E-01    0.787E-01
RMM:   9    -0.707694207017E+03    0.24601E-02   -0.22140E-03 14553   0.903E-02    0.445E-01
RMM:  10    -0.707693808060E+03    0.39896E-03   -0.76009E-04 13567   0.456E-02    0.302E-01
RMM:  11    -0.707693208764E+03    0.59930E-03   -0.24065E-04 10301   0.269E-02    0.129E-01
RMM:  12    -0.707693175803E+03    0.32961E-04   -0.15174E-04  9215   0.207E-02
  13 F= -.70769318E+03 E0= -.70708720E+03  d E =-.718043E-02  mag=     0.0135
 trial-energy change:   -0.007180  1 .order   -0.126943   -0.578862    0.324975
 step:   0.0545(harm=  0.0785)  dis= 0.01346  next Energy=  -707.804057 (dE=-0.118E+00)
 bond charge predicted
       N       E                     dE             d eps       ncg     rms          rms(c)
DAV:   1    -0.707801806250E+03   -0.10860E+00   -0.13009E+01 15264   0.472E+00    0.119E+00
RMM:   2    -0.707836341177E+03   -0.34535E-01   -0.24208E-01 14864   0.902E-01    0.196E+00
RMM:   3    -0.707876668451E+03   -0.40327E-01   -0.66687E-02 16326   0.407E-01    0.343E+00
RMM:   4    -0.707846210780E+03    0.30458E-01   -0.17063E-02 15233   0.225E-01    0.218E+00
RMM:   5    -0.707820276393E+03    0.25934E-01   -0.65076E-03 14868   0.161E-01    0.107E+00
RMM:   6    -0.707817895517E+03    0.23809E-02   -0.33596E-03 14774   0.107E-01    0.920E-01
RMM:   7    -0.707815227911E+03    0.26676E-02   -0.65550E-03 16301   0.117E-01    0.604E-01
RMM:   8    -0.707813986488E+03    0.12414E-02   -0.17061E-03 14363   0.710E-02    0.240E-01
RMM:   9    -0.707813848551E+03    0.13794E-03   -0.64485E-04 13060   0.451E-02    0.145E-01
RMM:  10    -0.707813825346E+03    0.23205E-04   -0.16931E-04  9366   0.240E-02
  14 F= -.70781383E+03 E0= -.70720884E+03  d E =-.127830E+00  mag=     0.0120
 curvature:  -0.09 expect dE=-0.227E+00 dE for cont linesearch -0.348E-03
 trial: gam= 0.15871 g(F)=  0.256E+01 g(S)=  0.000E+00 ort =-0.244E+00 (trialstep = 0.109E+00)
 search vector abs. value=  0.286E+01
 bond charge predicted
       N       E                     dE             d eps       ncg     rms          rms(c)
DAV:   1    -0.707760686659E+03    0.53162E-01   -0.85739E+00 15120   0.433E+00    0.114E+00
RMM:   2    -0.708026099323E+03   -0.26541E+00   -0.26048E-01 14862   0.846E-01    0.702E+00
RMM:   3    -0.707794919981E+03    0.23118E+00   -0.45356E-02 15289   0.393E-01    0.244E+00
RMM:   4    -0.707835676272E+03   -0.40756E-01   -0.12172E-02 14921   0.214E-01    0.348E+00
RMM:   5    -0.707784959493E+03    0.50717E-01   -0.14443E-02 15575   0.177E-01    0.206E+00
RMM:   6    -0.707774272014E+03    0.10687E-01   -0.79433E-03 15677   0.140E-01    0.138E+00
RMM:   7    -0.707770099312E+03    0.41727E-02   -0.49546E-03 15076   0.105E-01    0.660E-01
RMM:   8    -0.707769790780E+03    0.30853E-03   -0.17729E-03 14365   0.687E-02    0.521E-01
RMM:   9    -0.707769514421E+03    0.27636E-03   -0.59187E-04 12714   0.467E-02    0.435E-01
RMM:  10    -0.707769379547E+03    0.13487E-03   -0.23333E-04 10251   0.276E-02    0.379E-01
RMM:  11    -0.707769158359E+03    0.22119E-03   -0.15290E-04  9320   0.210E-02    0.283E-01
RMM:  12    -0.707768949271E+03    0.20909E-03   -0.17882E-04  9218   0.210E-02    0.133E-01
RMM:  13    -0.707768929342E+03    0.19928E-04   -0.63303E-05  8603   0.157E-02
  15 F= -.70776893E+03 E0= -.70716195E+03  d E =0.448960E-01  mag=     0.0104
 trial-energy change:    0.044896  1 .order   -0.007427   -0.274486    0.259632
 step:   0.0410(harm=  0.0560)  dis= 0.00339  next Energy=  -707.862647 (dE=-0.488E-01)
 bond charge predicted
       N       E                     dE             d eps       ncg     rms          rms(c)
DAV:   1    -0.707866529395E+03   -0.97580E-01   -0.33314E+00 15328   0.270E+00    0.708E-01
RMM:   2    -0.708005344213E+03   -0.13881E+00   -0.97587E-02 14864   0.525E-01    0.495E+00
RMM:   3    -0.707876310742E+03    0.12903E+00   -0.17177E-02 15054   0.258E-01    0.145E+00
RMM:   4    -0.707883875846E+03   -0.75651E-02   -0.45580E-03 14823   0.137E-01    0.170E+00
RMM:   5    -0.707879058202E+03    0.48176E-02   -0.30279E-03 14836   0.915E-02    0.145E+00
RMM:   6    -0.707873971627E+03    0.50866E-02   -0.24091E-03 15123   0.810E-02    0.106E+00
RMM:   7    -0.707870116996E+03    0.38546E-02   -0.24276E-03 15336   0.710E-02    0.373E-01
RMM:   8    -0.707869804669E+03    0.31233E-03   -0.71904E-04 13397   0.436E-02    0.212E-01
RMM:   9    -0.707869766125E+03    0.38543E-04   -0.23801E-04 10160   0.300E-02
  16 F= -.70786977E+03 E0= -.70726421E+03  d E =-.559408E-01  mag=     0.0096
 curvature:  -0.03 expect dE=-0.212E-01 dE for cont linesearch -0.755E-04
 trial: gam= 0.21416 g(F)=  0.724E+00 g(S)=  0.000E+00 ort = 0.859E-01 (trialstep = 0.954E-01)
 search vector abs. value=  0.893E+00
 bond charge predicted
       N       E                     dE             d eps       ncg     rms          rms(c)
DAV:   1    -0.707856747068E+03    0.13058E-01   -0.18684E+00 15472   0.191E+00    0.474E-01
RMM:   2    -0.707864166692E+03   -0.74196E-02   -0.37525E-02 14848   0.336E-01    0.106E+00
RMM:   3    -0.707863571849E+03    0.59484E-03   -0.66935E-03 16217   0.132E-01    0.927E-01
RMM:   4    -0.707870288372E+03   -0.67165E-02   -0.23684E-03 14610   0.812E-02    0.147E+00
RMM:   5    -0.707863080390E+03    0.72080E-02   -0.54850E-04 12596   0.466E-02    0.961E-01
RMM:   6    -0.707861172498E+03    0.19079E-02   -0.13810E-03 14693   0.505E-02    0.751E-01
RMM:   7    -0.707861296229E+03   -0.12373E-03   -0.11974E-03 14721   0.526E-02    0.657E-01
RMM:   8    -0.707860620091E+03    0.67614E-03   -0.44843E-04 12443   0.335E-02    0.555E-01
RMM:   9    -0.707860617909E+03    0.21814E-05   -0.12411E-04  8805   0.217E-02
  17 F= -.70786062E+03 E0= -.70725448E+03  d E =0.914822E-02  mag=     0.0089
 trial-energy change:    0.009148  1 .order    0.006364   -0.070853    0.083580
 step:   0.0412(harm=  0.0438)  dis= 0.00201  next Energy=  -707.884854 (dE=-0.151E-01)
 bond charge predicted
       N       E                     dE             d eps       ncg     rms          rms(c)
DAV:   1    -0.707885323416E+03   -0.24703E-01   -0.60337E-01 15424   0.108E+00    0.321E-01
RMM:   2    -0.707962136438E+03   -0.76813E-01   -0.15820E-02 14881   0.217E-01    0.347E+00
RMM:   3    -0.707884122904E+03    0.78014E-01   -0.34806E-03 14792   0.133E-01    0.236E-01
RMM:   4    -0.707885516135E+03   -0.13932E-02   -0.12204E-03 13953   0.638E-02    0.317E-01
RMM:   5    -0.707885320125E+03    0.19601E-03   -0.68512E-04 12890   0.461E-02    0.157E-01
RMM:   6    -0.707885606349E+03   -0.28622E-03   -0.33733E-04 11265   0.310E-02    0.287E-01
RMM:   7    -0.707885714946E+03   -0.10860E-03   -0.20024E-04  9484   0.267E-02    0.292E-01
RMM:   8    -0.707885340866E+03    0.37408E-03   -0.66188E-05  8371   0.168E-02    0.176E-01
RMM:   9    -0.707885192215E+03    0.14865E-03   -0.37510E-05  8150   0.108E-02    0.385E-02
RMM:  10    -0.707885217448E+03   -0.25232E-04   -0.13994E-05  7611   0.783E-03
  18 F= -.70788522E+03 E0= -.70727945E+03  d E =-.154513E-01  mag=     0.0081
 curvature:  -0.03 expect dE=-0.672E-02 dE for cont linesearch -0.519E-05
 trial: gam= 0.36516 g(F)=  0.256E+00 g(S)=  0.000E+00 ort =-0.133E-01 (trialstep = 0.845E-01)
 search vector abs. value=  0.366E+00
 bond charge predicted
       N       E                     dE             d eps       ncg     rms          rms(c)
DAV:   1    -0.707899671361E+03   -0.14479E-01   -0.37569E-01 15520   0.795E-01    0.240E-01
RMM:   2    -0.707902552510E+03   -0.28811E-02   -0.68820E-03 14852   0.167E-01    0.629E-01
RMM:   3    -0.707900338902E+03    0.22136E-02   -0.18599E-03 15959   0.701E-02    0.212E-01
RMM:   4    -0.707902606882E+03   -0.22680E-02   -0.60633E-04 13430   0.417E-02    0.675E-01
RMM:   5    -0.707900940760E+03    0.16661E-02   -0.30464E-04 10968   0.352E-02    0.376E-01
RMM:   6    -0.707900351436E+03    0.58932E-03   -0.29487E-04 10688   0.286E-02    0.212E-01
RMM:   7    -0.707900189715E+03    0.16172E-03   -0.15434E-04  8948   0.228E-02    0.980E-02
RMM:   8    -0.707900196975E+03   -0.72601E-05   -0.60947E-05  8372   0.148E-02
  19 F= -.70790020E+03 E0= -.70729446E+03  d E =-.149795E-01  mag=     0.0075
 trial-energy change:   -0.014980  1 .order   -0.014624   -0.021270   -0.007978
 step:   0.1353(harm=  0.1353)  dis= 0.00543  next Energy=  -707.902235 (dE=-0.170E-01)
 bond charge predicted
       N       E                     dE             d eps       ncg     rms          rms(c)
DAV:   1    -0.707902002497E+03   -0.18128E-02   -0.13464E-01 15408   0.474E-01    0.149E-01
RMM:   2    -0.707903383120E+03   -0.13806E-02   -0.24811E-03 14833   0.999E-02    0.427E-01
RMM:   3    -0.707905129789E+03   -0.17467E-02   -0.84575E-04 13865   0.495E-02    0.717E-01
RMM:   4    -0.707902845440E+03    0.22843E-02   -0.22247E-04  9841   0.328E-02    0.356E-01
RMM:   5    -0.707902562219E+03    0.28322E-03   -0.11138E-04  8639   0.205E-02    0.282E-01
RMM:   6    -0.707902262694E+03    0.29952E-03   -0.71210E-05  8404   0.161E-02    0.141E-01
RMM:   7    -0.707902217281E+03    0.45413E-04   -0.71242E-05  8269   0.143E-02    0.563E-02
RMM:   8    -0.707902232787E+03   -0.15506E-04   -0.26476E-05  7953   0.103E-02
  20 F= -.70790223E+03 E0= -.70729652E+03  d E =-.170153E-01  mag=     0.0069
 curvature:  -0.10 expect dE=-0.313E-01 dE for cont linesearch -0.899E-04
 trial: gam= 1.06758 g(F)=  0.319E+00 g(S)=  0.000E+00 ort =-0.183E-01 (trialstep = 0.497E-01)
 search vector abs. value=  0.696E+00
 bond charge predicted
       N       E                     dE             d eps       ncg     rms          rms(c)
DAV:   1    -0.707909061583E+03   -0.68443E-02   -0.34224E-01 15392   0.754E-01    0.200E-01
RMM:   2    -0.707910842928E+03   -0.17813E-02   -0.71174E-03 14848   0.157E-01    0.513E-01
RMM:   3    -0.707910395124E+03    0.44780E-03   -0.18561E-03 15728   0.674E-02    0.395E-01
RMM:   4    -0.707911012576E+03   -0.61745E-03   -0.51318E-04 13007   0.395E-02    0.518E-01
RMM:   5    -0.707909746496E+03    0.12661E-02   -0.24997E-04 10228   0.317E-02    0.279E-01
RMM:   6    -0.707909802354E+03   -0.55858E-04   -0.23922E-04  9737   0.256E-02    0.263E-01
RMM:   7    -0.707909420295E+03    0.38206E-03   -0.15567E-04  8644   0.225E-02    0.955E-02
RMM:   8    -0.707909423170E+03   -0.28749E-05   -0.54315E-05  8289   0.146E-02
  21 F= -.70790942E+03 E0= -.70730360E+03  d E =-.719038E-02  mag=     0.0064
 trial-energy change:   -0.007190  1 .order   -0.007318   -0.014875    0.000238
 step:   0.0489(harm=  0.0489)  dis= 0.00260  next Energy=  -707.909553 (dE=-0.732E-02)
 bond charge predicted
       N       E                     dE             d eps       ncg     rms          rms(c)
DAV:   1    -0.707909432915E+03   -0.12620E-04   -0.11892E-04 10368   0.233E-02    0.494E-02
RMM:   2    -0.707909616970E+03   -0.18406E-03   -0.99966E-05  8106   0.199E-02    0.185E-01
RMM:   3    -0.707909480500E+03    0.13647E-03   -0.47668E-05  7951   0.158E-02    0.101E-01
RMM:   4    -0.707909425493E+03    0.55007E-04   -0.82506E-06  6894   0.578E-03    0.352E-02
RMM:   5    -0.707909425730E+03   -0.23714E-06   -0.26548E-06  5579   0.408E-03    0.152E-02
RMM:   6    -0.707909426144E+03   -0.41416E-06   -0.48617E-07  2728   0.290E-03    0.156E-02
RMM:   7    -0.707909425518E+03    0.62630E-06   -0.37249E-07  2173   0.286E-03    0.523E-03
RMM:   8    -0.707909427360E+03   -0.18416E-05   -0.13068E-06  3063   0.314E-03
  22 F= -.70790943E+03 E0= -.70730362E+03  d E =-.719457E-02  mag=     0.0060
 curvature:  -0.06 expect dE=-0.160E-01 dE for cont linesearch -0.115E-07
 trial: gam= 0.81385 g(F)=  0.280E+00 g(S)=  0.000E+00 ort = 0.376E-03 (trialstep = 0.465E-01)
 search vector abs. value=  0.742E+00
 bond charge predicted
       N       E                     dE             d eps       ncg     rms          rms(c)
DAV:   1    -0.707919458967E+03   -0.10033E-01   -0.28261E-01 15328   0.635E-01    0.166E-01
RMM:   2    -0.707921228160E+03   -0.17692E-02   -0.46609E-03 14798   0.141E-01    0.533E-01
RMM:   3    -0.707919971245E+03    0.12569E-02   -0.14172E-03 14986   0.573E-02    0.273E-01
RMM:   4    -0.707920672957E+03   -0.70171E-03   -0.26241E-04 10119   0.295E-02    0.404E-01
RMM:   5    -0.707920018146E+03    0.65481E-03   -0.22575E-04  9774   0.277E-02    0.278E-01
RMM:   6    -0.707919887992E+03    0.13015E-03   -0.35288E-04 10634   0.291E-02    0.178E-01
RMM:   7    -0.707919749619E+03    0.13837E-03   -0.11533E-04  8604   0.193E-02    0.654E-02
RMM:   8    -0.707919800559E+03   -0.50941E-04   -0.39058E-05  8231   0.130E-02
  23 F= -.70791980E+03 E0= -.70731376E+03  d E =-.103732E-01  mag=     0.0055
 trial-energy change:   -0.010373  1 .order   -0.010229   -0.013052   -0.007406
 step:   0.1075(harm=  0.1075)  dis= 0.00559  next Energy=  -707.924513 (dE=-0.151E-01)
 bond charge predicted
       N       E                     dE             d eps       ncg     rms          rms(c)
DAV:   1    -0.707924407119E+03   -0.46575E-02   -0.48592E-01 15264   0.831E-01    0.234E-01
RMM:   2    -0.707926604256E+03   -0.21971E-02   -0.79946E-03 14846   0.182E-01    0.605E-01
RMM:   3    -0.707925411042E+03    0.11932E-02   -0.24704E-03 16394   0.750E-02    0.343E-01
RMM:   4    -0.707927353846E+03   -0.19428E-02   -0.50133E-04 12899   0.377E-02    0.638E-01
RMM:   5    -0.707925438781E+03    0.19151E-02   -0.44348E-04 12092   0.369E-02    0.354E-01
RMM:   6    -0.707925590780E+03   -0.15200E-03   -0.48716E-04 12367   0.362E-02    0.312E-01
RMM:   7    -0.707925027894E+03    0.56289E-03   -0.29777E-04 10504   0.282E-02    0.131E-01
RMM:   8    -0.707925018534E+03    0.93601E-05   -0.66583E-05  8498   0.174E-02
  24 F= -.70792502E+03 E0= -.70731863E+03  d E =-.155912E-01  mag=     0.0051
 curvature:  -0.14 expect dE=-0.378E-01 dE for cont linesearch -0.136E-04
 trial: gam= 0.92238 g(F)=  0.266E+00 g(S)=  0.000E+00 ort = 0.841E-02 (trialstep = 0.477E-01)
 search vector abs. value=  0.913E+00
 bond charge predicted
       N       E                     dE             d eps       ncg     rms          rms(c)
DAV:   1    -0.707932891512E+03   -0.78636E-02   -0.40052E-01 15296   0.790E-01    0.227E-01
RMM:   2    -0.707938824403E+03   -0.59329E-02   -0.77952E-03 14848   0.173E-01    0.108E+00
RMM:   3    -0.707935195027E+03    0.36294E-02   -0.22432E-03 16147   0.739E-02    0.688E-01
RMM:   4    -0.707938262889E+03   -0.30679E-02   -0.46369E-04 12692   0.366E-02    0.976E-01
RMM:   5    -0.707934037401E+03    0.42255E-02   -0.53108E-04 12295   0.374E-02    0.506E-01
RMM:   6    -0.707933938995E+03    0.98406E-04   -0.55413E-04 12593   0.377E-02    0.386E-01
RMM:   7    -0.707933542155E+03    0.39684E-03   -0.28643E-04 10595   0.282E-02    0.233E-01
RMM:   8    -0.707933603807E+03   -0.61652E-04   -0.66512E-05  8472   0.174E-02
  25 F= -.70793360E+03 E0= -.70732680E+03  d E =-.858527E-02  mag=     0.0048
 trial-energy change:   -0.008585  1 .order   -0.008133   -0.013066   -0.003201
 step:   0.0593(harm=  0.0632)  dis= 0.00335  next Energy=  -707.933997 (dE=-0.898E-02)
 bond charge predicted
       N       E                     dE             d eps       ncg     rms          rms(c)
DAV:   1    -0.707933944346E+03   -0.40219E-03   -0.23369E-02 15664   0.192E-01    0.222E-01
RMM:   2    -0.707955461214E+03   -0.21517E-01   -0.20827E-03 14787   0.678E-02    0.183E+00
RMM:   3    -0.707936181686E+03    0.19280E-01   -0.15570E-03 13928   0.776E-02    0.720E-01
RMM:   4    -0.707935164864E+03    0.10168E-02   -0.41900E-04 11904   0.435E-02    0.470E-01
RMM:   5    -0.707934157077E+03    0.10078E-02   -0.11391E-04  8440   0.221E-02    0.276E-01
RMM:   6    -0.707933962782E+03    0.19430E-03   -0.43914E-05  8017   0.141E-02    0.164E-01
RMM:   7    -0.707933900827E+03    0.61955E-04   -0.18592E-05  7534   0.873E-03    0.913E-02
RMM:   8    -0.707933889014E+03    0.11813E-04   -0.86734E-06  7074   0.642E-03
  26 F= -.70793389E+03 E0= -.70732723E+03  d E =-.887048E-02  mag=     0.0044
 curvature:  -0.10 expect dE=-0.949E-02 dE for cont linesearch -0.167E-04
 trial: gam= 0.27699 g(F)=  0.963E-01 g(S)=  0.000E+00 ort = 0.125E-01 (trialstep = 0.501E-01)
 search vector abs. value=  0.173E+00
 bond charge predicted
       N       E                     dE             d eps       ncg     rms          rms(c)
DAV:   1    -0.707937105287E+03   -0.32045E-02   -0.83640E-02 15392   0.370E-01    0.113E-01
RMM:   2    -0.707937753221E+03   -0.64793E-03   -0.15655E-03 14376   0.743E-02    0.350E-01
RMM:   3    -0.707937321209E+03    0.43201E-03   -0.35772E-04 10917   0.327E-02    0.181E-01
RMM:   4    -0.707938462578E+03   -0.11414E-02   -0.16821E-04  9121   0.223E-02    0.478E-01
RMM:   5    -0.707937543719E+03    0.91886E-03   -0.91333E-05  8268   0.203E-02    0.294E-01
RMM:   6    -0.707937357895E+03    0.18582E-03   -0.90386E-05  8167   0.163E-02    0.206E-01
RMM:   7    -0.707937175524E+03    0.18237E-03   -0.51948E-05  8030   0.136E-02    0.765E-02
RMM:   8    -0.707937182317E+03   -0.67926E-05   -0.18733E-05  7454   0.901E-03
  27 F= -.70793718E+03 E0= -.70733037E+03  d E =-.329330E-02  mag=     0.0041
 trial-energy change:   -0.003293  1 .order   -0.003238   -0.004990   -0.001485
 step:   0.0713(harm=  0.0713)  dis= 0.00139  next Energy=  -707.937442 (dE=-0.355E-02)
 bond charge predicted
       N       E                     dE             d eps       ncg     rms          rms(c)
DAV:   1    -0.707937471739E+03   -0.29622E-03   -0.14930E-02 15440   0.157E-01    0.679E-02
RMM:   2    -0.707937774014E+03   -0.30227E-03   -0.32767E-04 10584   0.329E-02    0.196E-01
RMM:   3    -0.707937887116E+03   -0.11310E-03   -0.12674E-04  8259   0.222E-02    0.270E-01
RMM:   4    -0.707937583054E+03    0.30406E-03   -0.32391E-05  7986   0.131E-02    0.140E-01
RMM:   5    -0.707937496756E+03    0.86298E-04   -0.12621E-05  7294   0.673E-03    0.850E-02
RMM:   6    -0.707937517873E+03   -0.21118E-04   -0.11002E-05  7233   0.659E-03    0.810E-02
RMM:   7    -0.707937500274E+03    0.17599E-04   -0.68840E-06  6918   0.548E-03    0.557E-02
RMM:   8    -0.707937495923E+03    0.43509E-05   -0.21830E-06  4953   0.375E-03
  28 F= -.70793750E+03 E0= -.70733053E+03  d E =-.360691E-02  mag=     0.0038
 curvature:  -0.06 expect dE=-0.954E-02 dE for cont linesearch -0.122E-05
 trial: gam= 1.62065 g(F)=  0.154E+00 g(S)=  0.000E+00 ort =-0.185E-02 (trialstep = 0.156E-01)
 search vector abs. value=  0.603E+00
 bond charge predicted
       N       E                     dE             d eps       ncg     rms          rms(c)
DAV:   1    -0.707939620196E+03   -0.21199E-02   -0.25719E-02 15312   0.184E-01    0.727E-02
RMM:   2    -0.707940062545E+03   -0.44235E-03   -0.44660E-04 11488   0.396E-02    0.263E-01
RMM:   3    -0.707940249938E+03   -0.18739E-03   -0.16496E-04  8822   0.235E-02    0.333E-01
RMM:   4    -0.707939799323E+03    0.45061E-03   -0.44480E-05  8056   0.162E-02    0.178E-01
RMM:   5    -0.707939633127E+03    0.16620E-03   -0.18380E-05  7417   0.737E-03    0.801E-02
RMM:   6    -0.707939658307E+03   -0.25180E-04   -0.16748E-05  7683   0.797E-03    0.581E-02
RMM:   7    -0.707939658980E+03   -0.67234E-06   -0.14369E-05  7414   0.714E-03    0.585E-02
RMM:   8    -0.707939667296E+03   -0.83158E-05   -0.66215E-06  6805   0.526E-03
  29 F= -.70793967E+03 E0= -.70733254E+03  d E =-.217137E-02  mag=     0.0035
 ZBRENT: can't locate minimum, use default step
 trial-energy change:   -0.002171  1 .order   -0.002145   -0.002356   -0.001934
 step:   0.0624(harm=  0.0871)  dis= 0.00198  next Energy=  -707.944079 (dE=-0.658E-02)
 bond charge predicted
       N       E                     dE             d eps       ncg     rms          rms(c)
DAV:   1    -0.707943139025E+03   -0.34800E-02   -0.23115E-01 15280   0.553E-01    0.192E-01
RMM:   2    -0.707944535892E+03   -0.13969E-02   -0.37030E-03 14774   0.115E-01    0.479E-01
RMM:   3    -0.707946616908E+03   -0.20810E-02   -0.10372E-03 14032   0.582E-02    0.761E-01
RMM:   4    -0.707944351527E+03    0.22654E-02   -0.32803E-04 10440   0.333E-02    0.448E-01
RMM:   5    -0.707944191941E+03    0.15959E-03   -0.12473E-04  8841   0.209E-02    0.398E-01
RMM:   6    -0.707943564191E+03    0.62775E-03   -0.10221E-04  8432   0.188E-02    0.241E-01
RMM:   7    -0.707943480922E+03    0.83269E-04   -0.17869E-04  8926   0.221E-02    0.153E-01
RMM:   8    -0.707943426975E+03    0.53947E-04   -0.69766E-05  8170   0.166E-02
  30 F= -.70794343E+03 E0= -.70733573E+03  d E =-.593105E-02  mag=     0.0032
 curvature:  -0.15 expect dE=-0.150E-01 dE for cont linesearch -0.285E-03
 ZBRENT: extrapolating
 opt :   0.0797  next Energy=  -707.943717 (dE=-0.622E-02)
 bond charge predicted
       N       E                     dE             d eps       ncg     rms          rms(c)
DAV:   1    -0.707943599453E+03   -0.11853E-03   -0.31535E-02 15552   0.205E-01    0.128E-01
RMM:   2    -0.707948561986E+03   -0.49625E-02   -0.88637E-04 14016   0.518E-02    0.878E-01
RMM:   3    -0.707944622788E+03    0.39392E-02   -0.47280E-04 12404   0.418E-02    0.460E-01
RMM:   4    -0.707943943865E+03    0.67892E-03   -0.13876E-04  8737   0.266E-02    0.238E-01
RMM:   5    -0.707943736192E+03    0.20767E-03   -0.40295E-05  8064   0.142E-02    0.172E-01
RMM:   6    -0.707943647673E+03    0.88519E-04   -0.18409E-05  7281   0.862E-03    0.973E-02
RMM:   7    -0.707943635812E+03    0.11861E-04   -0.10469E-05  7170   0.665E-03    0.616E-02
RMM:   8    -0.707943634978E+03    0.83439E-06   -0.49348E-06  6254   0.444E-03
  31 F= -.70794363E+03 E0= -.70733583E+03  d E =-.613905E-02  mag=     0.0030
 curvature:  -0.16 expect dE=-0.198E-01 dE for cont linesearch -0.121E-04
 trial: gam= 0.58009 g(F)=  0.127E+00 g(S)=  0.000E+00 ort =-0.683E-02 (trialstep = 0.284E-01)
 search vector abs. value=  0.322E+00
 bond charge predicted
       N       E                     dE             d eps       ncg     rms          rms(c)
DAV:   1    -0.707946823548E+03   -0.31877E-02   -0.52896E-02 15328   0.261E-01    0.820E-02
RMM:   2    -0.707947122166E+03   -0.29862E-03   -0.83935E-04 13353   0.544E-02    0.223E-01
RMM:   3    -0.707947469554E+03   -0.34739E-03   -0.23132E-04  9568   0.270E-02    0.324E-01
RMM:   4    -0.707946975377E+03    0.49418E-03   -0.66132E-05  8160   0.177E-02    0.156E-01
RMM:   5    -0.707946896106E+03    0.79271E-04   -0.26510E-05  7614   0.865E-03    0.102E-01
RMM:   6    -0.707946917887E+03   -0.21781E-04   -0.23941E-05  7794   0.931E-03    0.878E-02
RMM:   7    -0.707946921663E+03   -0.37764E-05   -0.25539E-05  7649   0.873E-03    0.983E-02
RMM:   8    -0.707946920966E+03    0.69723E-06   -0.13679E-05  7016   0.712E-03
  32 F= -.70794692E+03 E0= -.70733882E+03  d E =-.328599E-02  mag=     0.0027
 ZBRENT: can't locate minimum, use default step
 trial-energy change:   -0.003286  1 .order   -0.003183   -0.003500   -0.002866
 step:   0.1137(harm=  0.1568)  dis= 0.00192  next Energy=  -707.953293 (dE=-0.966E-02)
 bond charge predicted
       N       E                     dE             d eps       ncg     rms          rms(c)
DAV:   1    -0.707949969882E+03   -0.30482E-02   -0.47531E-01 15008   0.783E-01    0.217E-01
RMM:   2    -0.707951812860E+03   -0.18430E-02   -0.75656E-03 14804   0.160E-01    0.554E-01
RMM:   3    -0.707951322862E+03    0.49000E-03   -0.16787E-03 14588   0.699E-02    0.380E-01
RMM:   4    -0.707953764772E+03   -0.24419E-02   -0.79903E-04 13552   0.404E-02    0.757E-01
RMM:   5    -0.707951434394E+03    0.23304E-02   -0.26263E-04 10108   0.330E-02    0.411E-01
RMM:   6    -0.707950769006E+03    0.66539E-03   -0.21739E-04  9591   0.258E-02    0.282E-01
RMM:   7    -0.707950556801E+03    0.21220E-03   -0.14592E-04  8879   0.222E-02    0.143E-01
RMM:   8    -0.707950524263E+03    0.32538E-04   -0.52585E-05  8205   0.146E-02
  33 F= -.70795052E+03 E0= -.70734173E+03  d E =-.688928E-02  mag=     0.0025
 curvature:  -0.18 expect dE=-0.422E-01 dE for cont linesearch -0.340E-03
 trial: gam= 1.71290 g(F)=  0.232E+00 g(S)=  0.000E+00 ort =-0.245E-01 (trialstep = 0.134E-01)
 search vector abs. value=  0.109E+01
 bond charge predicted
       N       E                     dE             d eps       ncg     rms          rms(c)
DAV:   1    -0.707952533540E+03   -0.19767E-02   -0.38011E-02 15424   0.216E-01    0.821E-02
RMM:   2    -0.707953152130E+03   -0.61859E-03   -0.68042E-04 12999   0.461E-02    0.327E-01
RMM:   3    -0.707952697208E+03    0.45492E-03   -0.17482E-04  9067   0.230E-02    0.147E-01
RMM:   4    -0.707952826556E+03   -0.12935E-03   -0.74161E-05  8049   0.165E-02    0.223E-01
RMM:   5    -0.707952647091E+03    0.17947E-03   -0.28774E-05  7942   0.115E-02    0.125E-01
RMM:   6    -0.707952616976E+03    0.30115E-04   -0.27858E-05  7815   0.942E-03    0.100E-01
RMM:   7    -0.707952601581E+03    0.15395E-04   -0.18693E-05  7758   0.889E-03    0.661E-02
RMM:   8    -0.707952589143E+03    0.12438E-04   -0.65489E-06  6902   0.583E-03
  34 F= -.70795259E+03 E0= -.70734353E+03  d E =-.206488E-02  mag=     0.0023
 trial-energy change:   -0.002065  1 .order   -0.002027   -0.002543   -0.001511
 step:   0.0330(harm=  0.0330)  dis= 0.00101  next Energy=  -707.953657 (dE=-0.313E-02)
 bond charge predicted
       N       E                     dE             d eps       ncg     rms          rms(c)
DAV:   1    -0.707953520191E+03   -0.91861E-03   -0.81580E-02 15264   0.313E-01    0.973E-02
RMM:   2    -0.707957500931E+03   -0.39807E-02   -0.15846E-03 14152   0.677E-02    0.816E-01
RMM:   3    -0.707953580224E+03    0.39207E-02   -0.34153E-04 10753   0.366E-02    0.189E-01
RMM:   4    -0.707953791236E+03   -0.21101E-03   -0.12184E-04  8563   0.220E-02    0.233E-01
RMM:   5    -0.707953782450E+03    0.87861E-05   -0.51841E-05  8025   0.134E-02    0.216E-01
RMM:   6    -0.707953707789E+03    0.74661E-04   -0.36978E-05  7929   0.116E-02    0.169E-01
RMM:   7    -0.707953565252E+03    0.14254E-03   -0.29363E-05  7905   0.972E-03    0.653E-02
RMM:   8    -0.707953575597E+03   -0.10345E-04   -0.12093E-05  7139   0.728E-03
  35 F= -.70795358E+03 E0= -.70734416E+03  d E =-.305133E-02  mag=     0.0021
 curvature:  -0.10 expect dE=-0.773E-02 dE for cont linesearch -0.469E-05
 trial: gam=-0.03585 g(F)=  0.813E-01 g(S)=  0.000E+00 ort =-0.734E-02 (trialstep = 0.173E-01)
 search vector abs. value=  0.833E-01
 bond charge predicted
       N       E                     dE             d eps       ncg     rms          rms(c)
DAV:   1    -0.707954771892E+03   -0.12066E-02   -0.60671E-03 15216   0.117E-01    0.392E-02
RMM:   2    -0.707955576970E+03   -0.80508E-03   -0.21391E-04  8843   0.269E-02    0.353E-01
RMM:   3    -0.707954747668E+03    0.82930E-03   -0.65956E-05  7988   0.185E-02    0.852E-02
RMM:   4    -0.707954777163E+03   -0.29494E-04   -0.17015E-05  7859   0.922E-03    0.242E-02
RMM:   5    -0.707954779448E+03   -0.22851E-05   -0.43885E-06  6455   0.465E-03    0.217E-02
RMM:   6    -0.707954780900E+03   -0.14525E-05   -0.17772E-06  4446   0.343E-03    0.273E-02
RMM:   7    -0.707954781979E+03   -0.10786E-05   -0.16193E-06  4385   0.336E-03    0.223E-02
RMM:   8    -0.707954779960E+03    0.20184E-05   -0.57839E-07  3012   0.305E-03
  36 F= -.70795478E+03 E0= -.70734534E+03  d E =-.120436E-02  mag=     0.0019
 trial-energy change:   -0.001204  1 .order   -0.001197   -0.001414   -0.000980
 step:   0.0565(harm=  0.0565)  dis= 0.00055  next Energy=  -707.955881 (dE=-0.231E-02)
 bond charge predicted
       N       E                     dE             d eps       ncg     rms          rms(c)
DAV:   1    -0.707955841308E+03   -0.10593E-02   -0.30897E-02 15424   0.264E-01    0.486E-02
RMM:   2    -0.707955926335E+03   -0.85027E-04   -0.69939E-04 12773   0.520E-02    0.104E-01
RMM:   3    -0.707955911967E+03    0.14368E-04   -0.12558E-04  8447   0.207E-02    0.614E-02
RMM:   4    -0.707956255159E+03   -0.34319E-03   -0.46760E-05  8073   0.131E-02    0.243E-01
RMM:   5    -0.707955876802E+03    0.37836E-03   -0.22089E-05  7961   0.103E-02    0.602E-02
RMM:   6    -0.707955901062E+03   -0.24260E-04   -0.97807E-06  7101   0.624E-03    0.489E-02
RMM:   7    -0.707955904910E+03   -0.38485E-05   -0.53016E-06  6508   0.478E-03    0.454E-02
RMM:   8    -0.707955909384E+03   -0.44733E-05   -0.26129E-06  5271   0.388E-03
  37 F= -.70795591E+03 E0= -.70734660E+03  d E =-.233379E-02  mag=     0.0018
 curvature:  -0.03 expect dE=-0.665E-03 dE for cont linesearch -0.139E-06
 trial: gam= 0.27993 g(F)=  0.231E-01 g(S)=  0.000E+00 ort = 0.633E-03 (trialstep = 0.252E-01)
 search vector abs. value=  0.299E-01
 bond charge predicted
       N       E                     dE             d eps       ncg     rms          rms(c)
DAV:   1    -0.707956432474E+03   -0.52756E-03   -0.37849E-03 15408   0.813E-02    0.367E-02
RMM:   2    -0.707956704943E+03   -0.27247E-03   -0.98443E-05  8081   0.184E-02    0.214E-01
RMM:   3    -0.707956430326E+03    0.27462E-03   -0.34269E-05  7979   0.127E-02    0.684E-02
RMM:   4    -0.707956450840E+03   -0.20514E-04   -0.13850E-05  7421   0.762E-03    0.482E-02
RMM:   5    -0.707956437814E+03    0.13026E-04   -0.50810E-06  6661   0.519E-03    0.154E-02
RMM:   6    -0.707956440594E+03   -0.27805E-05   -0.11231E-06  3685   0.310E-03    0.228E-02
RMM:   7    -0.707956438918E+03    0.16769E-05   -0.88824E-07  3389   0.308E-03    0.155E-02
RMM:   8    -0.707956438677E+03    0.24018E-06   -0.48958E-08  1850   0.266E-03
  38 F= -.70795644E+03 E0= -.70734713E+03  d E =-.529294E-03  mag=     0.0016
 ZBRENT: can't locate minimum, use default step
 trial-energy change:   -0.000529  1 .order   -0.000529   -0.000585   -0.000474
 step:   0.1006(harm=  0.1332)  dis= 0.00055  next Energy=  -707.957457 (dE=-0.155E-02)
 bond charge predicted
       N       E                     dE             d eps       ncg     rms          rms(c)
DAV:   1    -0.707957339610E+03   -0.90069E-03   -0.33840E-02 15632   0.242E-01    0.594E-02
RMM:   2    -0.707957511944E+03   -0.17233E-03   -0.66957E-04 13728   0.515E-02    0.170E-01
RMM:   3    -0.707957411788E+03    0.10016E-03   -0.15088E-04  8649   0.218E-02    0.869E-02
RMM:   4    -0.707957636900E+03   -0.22511E-03   -0.51126E-05  8219   0.146E-02    0.209E-01
RMM:   5    -0.707957383673E+03    0.25323E-03   -0.34479E-05  8023   0.113E-02    0.797E-02
RMM:   6    -0.707957388695E+03   -0.50219E-05   -0.19007E-05  7528   0.838E-03    0.638E-02
RMM:   7    -0.707957378351E+03    0.10343E-04   -0.12301E-05  7306   0.667E-03    0.194E-02
RMM:   8    -0.707957383397E+03   -0.50456E-05   -0.39891E-06  6059   0.448E-03
  39 F= -.70795738E+03 E0= -.70734816E+03  d E =-.147401E-02  mag=     0.0015
 curvature:  -0.08 expect dE=-0.109E-02 dE for cont linesearch -0.794E-04
 ZBRENT: extrapolating
 opt :   0.1319  next Energy=  -707.957470 (dE=-0.156E-02)
 bond charge predicted
       N       E                     dE             d eps       ncg     rms          rms(c)
DAV:   1    -0.707957461271E+03   -0.82919E-04   -0.57895E-03 15552   0.101E-01    0.398E-02
RMM:   2    -0.707957536757E+03   -0.75486E-04   -0.12824E-04  8270   0.218E-02    0.101E-01
RMM:   3    -0.707957634797E+03   -0.98041E-04   -0.43550E-05  8023   0.135E-02    0.171E-01
RMM:   4    -0.707957473656E+03    0.16114E-03   -0.14496E-05  7712   0.848E-03    0.577E-02
RMM:   5    -0.707957465732E+03    0.79235E-05   -0.58824E-06  6838   0.515E-03    0.214E-02
RMM:   6    -0.707957472420E+03   -0.66875E-05   -0.27411E-06  5445   0.394E-03    0.231E-02
RMM:   7    -0.707957471250E+03    0.11702E-05   -0.86855E-07  3532   0.310E-03    0.178E-02
RMM:   8    -0.707957470661E+03    0.58825E-06   -0.34771E-07  2423   0.291E-03
  40 F= -.70795747E+03 E0= -.70734822E+03  d E =-.156128E-02  mag=     0.0014
 curvature:  -0.08 expect dE=-0.191E-02 dE for cont linesearch -0.237E-06
 trial: gam= 1.02803 g(F)=  0.225E-01 g(S)=  0.000E+00 ort =-0.289E-03 (trialstep = 0.260E-01)
 search vector abs. value=  0.536E-01
 bond charge predicted
       N       E                     dE             d eps       ncg     rms          rms(c)
DAV:   1    -0.707957786340E+03   -0.31509E-03   -0.77729E-03 15584   0.122E-01    0.373E-02
RMM:   2    -0.707958005328E+03   -0.21899E-03   -0.16339E-04  8460   0.237E-02    0.186E-01
RMM:   3    -0.707957837049E+03    0.16828E-03   -0.43883E-05  7999   0.141E-02    0.110E-01
RMM:   4    -0.707957813836E+03    0.23212E-04   -0.12487E-05  7533   0.808E-03    0.568E-02
RMM:   5    -0.707957797549E+03    0.16287E-04   -0.56707E-06  6709   0.472E-03    0.326E-02
RMM:   6    -0.707957801631E+03   -0.40814E-05   -0.21826E-06  5276   0.378E-03    0.252E-02
RMM:   7    -0.707957799157E+03    0.24740E-05   -0.14347E-06  3938   0.327E-03    0.113E-02
RMM:   8    -0.707957800353E+03   -0.11963E-05   -0.36471E-07  2466   0.290E-03
  41 F= -.70795780E+03 E0= -.70734860E+03  d E =-.329691E-03  mag=     0.0012
 trial-energy change:   -0.000330  1 .order   -0.000328   -0.000578   -0.000078
 step:   0.0301(harm=  0.0301)  dis= 0.00039  next Energy=  -707.957805 (dE=-0.334E-03)
 bond charge predicted
       N       E                     dE             d eps       ncg     rms          rms(c)
DAV:   1    -0.707957810305E+03   -0.11148E-04   -0.18841E-04 12720   0.194E-02    0.194E-02
RMM:   2    -0.707958173056E+03   -0.36275E-03   -0.30258E-05  7951   0.824E-03    0.240E-01
RMM:   3    -0.707957773554E+03    0.39950E-03   -0.22939E-05  7759   0.103E-02    0.353E-02
RMM:   4    -0.707957812365E+03   -0.38811E-04   -0.48369E-06  6288   0.509E-03    0.230E-02
RMM:   5    -0.707957809642E+03    0.27227E-05   -0.37376E-07  2823   0.278E-03    0.102E-02
RMM:   6    -0.707957809864E+03   -0.22147E-06   -0.78784E-09  1163   0.231E-03    0.663E-03
RMM:   7    -0.707957810230E+03   -0.36597E-06   -0.21614E-09  1043   0.230E-03    0.867E-03
RMM:   8    -0.707957810675E+03   -0.44587E-06   -0.51160E-09   973   0.236E-03
  42 F= -.70795781E+03 E0= -.70734862E+03  d E =-.340014E-03  mag=     0.0011
 curvature:  -0.04 expect dE=-0.100E-03 dE for cont linesearch -0.224E-05
 ZBRENT: increasing intervall
 opt :   0.0382  next Energy=  -707.957816 (dE=-0.345E-03)
 bond charge predicted
       N       E                     dE             d eps       ncg     rms          rms(c)
DAV:   1    -0.707957799796E+03    0.10434E-04   -0.76248E-04 14640   0.382E-02    0.112E-02
RMM:   2    -0.707957817257E+03   -0.17461E-04   -0.16957E-05  7803   0.773E-03    0.519E-02
RMM:   3    -0.707957804286E+03    0.12971E-04   -0.36023E-06  6266   0.437E-03    0.348E-02
RMM:   4    -0.707957801933E+03    0.23533E-05   -0.39324E-07  2827   0.282E-03    0.172E-02
RMM:   5    -0.707957802008E+03   -0.74848E-07   -0.14229E-07  1786   0.265E-03    0.137E-02
RMM:   6    -0.707957801350E+03    0.65783E-06   -0.12329E-08  1302   0.249E-03    0.505E-03
RMM:   7    -0.707957801752E+03   -0.40200E-06   -0.74675E-08  1217   0.253E-03    0.387E-03
RMM:   8    -0.707957801903E+03   -0.15123E-06   -0.36779E-08  1108   0.255E-03
  43 F= -.70795780E+03 E0= -.70734862E+03  d E =-.331242E-03  mag=     0.0010
 curvature:  -0.08 expect dE=-0.385E-03 dE for cont linesearch -0.290E-04
 ZBRENT: bracketing found
 ZBRENT: interpolating
 opt :   0.0325  next Energy=  -707.957813 (dE=-0.342E-03)
 bond charge predicted
       N       E                     dE             d eps       ncg     rms          rms(c)
DAV:   1    -0.707957813345E+03   -0.11593E-04   -0.36918E-04 14496   0.268E-02    0.583E-03
RMM:   2    -0.707957814303E+03   -0.95773E-06   -0.69931E-06  6822   0.515E-03    0.924E-03
RMM:   3    -0.707957813976E+03    0.32682E-06   -0.35959E-07  1994   0.270E-03    0.435E-03
RMM:   4    -0.707957817437E+03   -0.34606E-05   -0.12373E-07  1391   0.259E-03    0.228E-02
RMM:   5    -0.707957813417E+03    0.40201E-05   -0.24684E-08  1299   0.245E-03    0.799E-03
RMM:   6    -0.707957814166E+03   -0.74933E-06   -0.36724E-09  1068   0.245E-03    0.428E-03
RMM:   7    -0.707957814286E+03   -0.12023E-06   -0.91454E-08  1127   0.259E-03    0.178E-03
RMM:   8    -0.707957814329E+03   -0.42957E-07   -0.30310E-08   956   0.255E-03
  44 F= -.70795781E+03 E0= -.70734862E+03  d E =-.343668E-03  mag=     0.0009
 curvature:  -0.01 expect dE=-0.189E-04 dE for cont linesearch -0.355E-08
 trial: gam= 0.09536 g(F)=  0.298E-02 g(S)=  0.000E+00 ort = 0.173E-03 (trialstep = 0.273E-01)
 search vector abs. value=  0.350E-02
 bond charge predicted
       N       E                     dE             d eps       ncg     rms          rms(c)
DAV:   1    -0.707957882777E+03   -0.68491E-04   -0.46633E-04 14256   0.315E-02    0.771E-03
RMM:   2    -0.707957886461E+03   -0.36838E-05   -0.11351E-05  7633   0.674E-03    0.303E-02
RMM:   3    -0.707957884053E+03    0.24076E-05   -0.16674E-06  4886   0.366E-03    0.164E-02
RMM:   4    -0.707957883393E+03    0.66026E-06   -0.85535E-09  1221   0.230E-03    0.882E-03
RMM:   5    -0.707957884170E+03   -0.77747E-06   -0.68998E-08  1183   0.239E-03    0.121E-02
RMM:   6    -0.707957883623E+03    0.54794E-06   -0.81127E-08  1238   0.247E-03    0.898E-03
RMM:   7    -0.707957883482E+03    0.14040E-06   -0.13821E-07  1368   0.252E-03    0.368E-03
RMM:   8    -0.707957883564E+03   -0.82211E-07   -0.21397E-08   946   0.244E-03
  45 F= -.70795788E+03 E0= -.70734869E+03  d E =-.692352E-04  mag=     0.0009
 trial-energy change:   -0.000069  1 .order   -0.000069   -0.000082   -0.000056
 step:   0.0882(harm=  0.0882)  dis= 0.00028  next Energy=  -707.957946 (dE=-0.132E-03)
 reached required accuracy - stopping structural energy minimisation
 writing wavefunctions
