       N       E                     dE             d eps       ncg     rms          rms(c)
DAV:   1     0.759619405838E+04    0.75962E+04   -0.29776E+05 15104   0.126E+03
DAV:   2     0.595195868786E+03   -0.70010E+04   -0.63137E+04 16048   0.373E+02
DAV:   3    -0.762965935320E+03   -0.13582E+04   -0.13071E+04 18544   0.165E+02
DAV:   4    -0.836796204260E+03   -0.73830E+02   -0.72040E+02 20288   0.432E+01
DAV:   5    -0.838457361122E+03   -0.16612E+01   -0.16401E+01 19296   0.605E+00    0.188E+02
RMM:   6    -0.681208661944E+03    0.15725E+03   -0.60578E+02 14901   0.391E+01    0.158E+02
RMM:   7    -0.160157300804E+04   -0.92036E+03   -0.44346E+02 16766   0.263E+01    0.401E+02
RMM:   8    -0.133599477441E+04    0.26558E+03   -0.99873E+01 18844   0.106E+01    0.355E+02
RMM:   9    -0.133002218965E+04    0.59726E+01   -0.71361E+01 15546   0.121E+01    0.345E+02
RMM:  10    -0.829077143582E+03    0.50095E+03   -0.30327E+02 19977   0.214E+01    0.263E+02
RMM:  11    -0.918512717883E+03   -0.89436E+02   -0.51069E+01 16968   0.837E+00    0.244E+02
RMM:  12    -0.873722858005E+03    0.44790E+02   -0.11972E+02 18790   0.144E+01    0.232E+02
RMM:  13    -0.124863427741E+04   -0.37491E+03   -0.16857E+02 20003   0.180E+01    0.279E+02
RMM:  14    -0.108640451520E+04    0.16223E+03   -0.14818E+01 16374   0.507E+00    0.243E+02
RMM:  15    -0.105364140382E+04    0.32763E+02   -0.14693E+01 16043   0.574E+00    0.235E+02
RMM:  16    -0.646891420480E+03    0.40675E+03   -0.78443E+01 20371   0.108E+01    0.127E+02
RMM:  17    -0.639784750032E+03    0.71067E+01   -0.85216E+00 15190   0.468E+00    0.111E+02
RMM:  18    -0.634165604837E+03    0.56191E+01   -0.28489E+00 15856   0.272E+00    0.105E+02
RMM:  19    -0.633023084550E+03    0.11425E+01   -0.12029E+00 15993   0.166E+00    0.101E+02
RMM:  20    -0.632949946123E+03    0.73138E-01   -0.51802E-01 16785   0.961E-01    0.963E+01
RMM:  21    -0.633538126951E+03   -0.58818E+00   -0.10429E+00 16678   0.157E+00    0.837E+01
RMM:  22    -0.634861274386E+03   -0.13231E+01   -0.10168E+00 17352   0.150E+00    0.721E+01
RMM:  23    -0.635799293098E+03   -0.93802E+00   -0.73515E-01 16586   0.132E+00    0.617E+01
RMM:  24    -0.639270476949E+03   -0.34712E+01   -0.91141E-01 17803   0.148E+00    0.517E+01
RMM:  25    -0.645953241164E+03   -0.66828E+01   -0.17106E+00 19171   0.203E+00    0.400E+01
RMM:  26    -0.661804032812E+03   -0.15851E+02   -0.55795E+00 22265   0.351E+00    0.259E+01
RMM:  27    -0.670339152589E+03   -0.85351E+01   -0.45331E+00 21121   0.293E+00    0.290E+01
RMM:  28    -0.670116194817E+03    0.22296E+00   -0.64874E-01 15956   0.115E+00    0.282E+01
RMM:  29    -0.671286146869E+03   -0.11700E+01   -0.92097E-01 16907   0.137E+00    0.244E+01
RMM:  30    -0.677479145416E+03   -0.61930E+01   -0.26951E+00 20248   0.222E+00    0.185E+01
RMM:  31    -0.682566268448E+03   -0.50871E+01   -0.12836E+00 19405   0.179E+00    0.126E+01
RMM:  32    -0.681864210943E+03    0.70206E+00   -0.65205E-01 17899   0.120E+00    0.120E+01
RMM:  33    -0.679603396474E+03    0.22608E+01   -0.95820E-01 19272   0.143E+00    0.214E+01
RMM:  34    -0.680737489903E+03   -0.11341E+01   -0.68700E-01 17917   0.116E+00    0.239E+01
RMM:  35    -0.684674144076E+03   -0.39367E+01   -0.83900E-01 18818   0.124E+00    0.229E+01
RMM:  36    -0.687572768072E+03   -0.28986E+01   -0.41969E-01 16763   0.927E-01    0.223E+01
RMM:  37    -0.693072612309E+03   -0.54998E+01   -0.10555E+00 19492   0.140E+00    0.159E+01
RMM:  38    -0.695340933004E+03   -0.22683E+01   -0.36692E-01 17273   0.859E-01    0.170E+01
RMM:  39    -0.696181717283E+03   -0.84078E+00   -0.70942E-02 15036   0.459E-01    0.162E+01
RMM:  40    -0.696258098442E+03   -0.76381E-01   -0.37359E-02 15198   0.293E-01    0.157E+01
RMM:  41    -0.696485265071E+03   -0.22717E+00   -0.59313E-02 16380   0.348E-01    0.156E+01
RMM:  42    -0.697124690142E+03   -0.63943E+00   -0.24348E-01 19977   0.679E-01    0.131E+01
RMM:  43    -0.696445618074E+03    0.67907E+00   -0.27366E-01 20255   0.669E-01    0.140E+01
RMM:  44    -0.696003368142E+03    0.44225E+00   -0.51749E-02 16677   0.337E-01    0.139E+01
RMM:  45    -0.696569348505E+03   -0.56598E+00   -0.16588E-01 19803   0.578E-01    0.969E+00
RMM:  46    -0.698667028538E+03   -0.20977E+01   -0.12492E-01 18734   0.476E-01    0.877E+00
RMM:  47    -0.700574721911E+03   -0.19077E+01   -0.20634E-01 20318   0.563E-01    0.659E+00
RMM:  48    -0.700886646164E+03   -0.31192E+00   -0.27480E-01 20786   0.590E-01    0.578E+00
RMM:  49    -0.700529275159E+03    0.35737E+00   -0.23206E-01 20681   0.614E-01    0.852E+00
RMM:  50    -0.701637838645E+03   -0.11086E+01   -0.64163E-02 17252   0.334E-01    0.758E+00
RMM:  51    -0.701078190530E+03    0.55965E+00   -0.22270E-01 20711   0.629E-01    0.601E+00
RMM:  52    -0.702391745277E+03   -0.13136E+01   -0.57161E-02 16816   0.336E-01    0.433E+00
RMM:  53    -0.702879331079E+03   -0.48759E+00   -0.49292E-02 17446   0.294E-01    0.319E+00
RMM:  54    -0.702571128524E+03    0.30820E+00   -0.18792E-02 15456   0.191E-01    0.237E+00
RMM:  55    -0.703010394512E+03   -0.43927E+00   -0.38483E-02 17531   0.241E-01    0.176E+00
RMM:  56    -0.703245711060E+03   -0.23532E+00   -0.19237E-02 16423   0.211E-01    0.209E+00
RMM:  57    -0.703325415669E+03   -0.79705E-01   -0.64714E-03 15085   0.141E-01    0.148E+00
RMM:  58    -0.703464881911E+03   -0.13947E+00   -0.42131E-03 15171   0.998E-02    0.110E+00
RMM:  59    -0.703550880956E+03   -0.85999E-01   -0.33934E-03 15358   0.819E-02    0.934E-01
RMM:  60    -0.703626277630E+03   -0.75397E-01   -0.26326E-03 15376   0.756E-02    0.747E-01
RMM:  61    -0.703672070451E+03   -0.45793E-01   -0.37527E-03 17103   0.953E-02    0.801E-01
RMM:  62    -0.703770747971E+03   -0.98678E-01   -0.26314E-03 15221   0.707E-02    0.549E-01
RMM:  63    -0.703872849319E+03   -0.10210E+00   -0.18308E-03 14872   0.553E-02    0.399E-01
RMM:  64    -0.704039968096E+03   -0.16712E+00   -0.26265E-03 15785   0.582E-02    0.353E-01
RMM:  65    -0.704157646361E+03   -0.11768E+00   -0.10254E-03 13700   0.408E-02    0.301E-01
RMM:  66    -0.704240582213E+03   -0.82936E-01   -0.49852E-04 12244   0.314E-02    0.314E-01
RMM:  67    -0.704297863790E+03   -0.57282E-01   -0.26081E-04 10244   0.245E-02    0.218E-01
RMM:  68    -0.704350499450E+03   -0.52636E-01   -0.16460E-04  9463   0.188E-02    0.167E-01
RMM:  69    -0.704415990028E+03   -0.65491E-01   -0.18942E-04  9456   0.201E-02    0.155E-01
RMM:  70    -0.704427862674E+03   -0.11873E-01   -0.58583E-05  8854   0.144E-02    0.597E-02
RMM:  71    -0.704433053389E+03   -0.51907E-02   -0.45757E-05  8752   0.112E-02    0.612E-02
RMM:  72    -0.704435231679E+03   -0.21783E-02   -0.19416E-05  8086   0.923E-03    0.339E-02
RMM:  73    -0.704435843943E+03   -0.61226E-03   -0.79312E-06  7437   0.486E-03    0.160E-02
RMM:  74    -0.704436445189E+03   -0.60125E-03   -0.31911E-06  5338   0.357E-03    0.125E-02
RMM:  75    -0.704436842121E+03   -0.39693E-03   -0.16712E-06  4260   0.310E-03    0.865E-03
RMM:  76    -0.704437047138E+03   -0.20502E-03   -0.15105E-06  3775   0.298E-03    0.106E-02
RMM:  77    -0.704437384096E+03   -0.33696E-03   -0.31513E-06  4439   0.321E-03    0.905E-03
RMM:  78    -0.704437483547E+03   -0.99451E-04   -0.14504E-06  3387   0.299E-03
   1 F= -.70443748E+03 E0= -.70382278E+03  d E =-.704437E+03  mag=     1.9462
       N       E                     dE             d eps       ncg     rms          rms(c)
DAV:   1    -0.657180303309E+03    0.47257E+02   -0.40238E+03 15536   0.848E+01    0.207E+01
RMM:   2    -0.699896194696E+03   -0.42716E+02   -0.31850E+02 15326   0.198E+01    0.552E+01
RMM:   3    -0.709362237519E+03   -0.94660E+01   -0.54522E+01 15756   0.837E+00    0.456E+01
RMM:   4    -0.693493379841E+03    0.15869E+02   -0.55982E+00 15122   0.403E+00    0.325E+01
RMM:   5    -0.691192067368E+03    0.23013E+01   -0.20510E+00 15086   0.238E+00    0.322E+01
RMM:   6    -0.690034305617E+03    0.11578E+01   -0.12103E+00 15324   0.157E+00    0.272E+01
RMM:   7    -0.688039990054E+03    0.19943E+01   -0.49435E-01 15146   0.119E+00    0.207E+01
RMM:   8    -0.689048371589E+03   -0.10084E+01   -0.66951E-01 16046   0.874E-01    0.251E+01
RMM:   9    -0.690616215084E+03   -0.15678E+01   -0.70660E-01 17560   0.108E+00    0.262E+01
RMM:  10    -0.686973205623E+03    0.36430E+01   -0.26424E+00 19861   0.176E+00    0.115E+01
RMM:  11    -0.686395579123E+03    0.57763E+00   -0.10191E-01 14929   0.574E-01    0.778E+00
RMM:  12    -0.686344377898E+03    0.51201E-01   -0.28239E-02 15087   0.328E-01    0.775E+00
RMM:  13    -0.686191412380E+03    0.15297E+00   -0.90838E-02 16360   0.373E-01    0.607E+00
RMM:  14    -0.686165162989E+03    0.26249E-01   -0.12110E-01 17594   0.388E-01    0.483E+00
RMM:  15    -0.686147132912E+03    0.18030E-01   -0.44727E-02 16052   0.262E-01    0.310E+00
RMM:  16    -0.686085258525E+03    0.61874E-01   -0.86201E-03 15220   0.144E-01    0.294E+00
RMM:  17    -0.685883888301E+03    0.20137E+00   -0.37573E-02 18119   0.225E-01    0.252E+00
RMM:  18    -0.685821289312E+03    0.62599E-01   -0.12589E-02 16622   0.157E-01    0.210E+00
RMM:  19    -0.685833073206E+03   -0.11784E-01   -0.10441E-02 17006   0.141E-01    0.194E+00
RMM:  20    -0.685878159218E+03   -0.45086E-01   -0.20908E-02 18579   0.178E-01    0.192E+00
RMM:  21    -0.685885194055E+03   -0.70348E-02   -0.95122E-04 14159   0.561E-02    0.196E+00
RMM:  22    -0.685891779745E+03   -0.65857E-02   -0.21247E-03 15049   0.619E-02    0.192E+00
RMM:  23    -0.685887157349E+03    0.46224E-02   -0.21044E-02 22092   0.178E-01    0.162E+00
RMM:  24    -0.685876413456E+03    0.10744E-01   -0.83867E-03 19299   0.113E-01    0.114E+00
RMM:  25    -0.685900358677E+03   -0.23945E-01   -0.17479E-03 15200   0.677E-02    0.111E+00
RMM:  26    -0.685932299797E+03   -0.31941E-01   -0.12796E-03 14414   0.519E-02    0.902E-01
RMM:  27    -0.685966070900E+03   -0.33771E-01   -0.14703E-03 14848   0.548E-02    0.509E-01
RMM:  28    -0.685988868915E+03   -0.22798E-01   -0.11797E-03 14135   0.501E-02    0.298E-01
RMM:  29    -0.686026667818E+03   -0.37799E-01   -0.99099E-04 13652   0.447E-02    0.258E-01
RMM:  30    -0.686053445161E+03   -0.26777E-01   -0.45604E-04 11338   0.312E-02    0.237E-01
RMM:  31    -0.686082549635E+03   -0.29104E-01   -0.86329E-04 12340   0.359E-02    0.252E-01
RMM:  32    -0.686105746487E+03   -0.23197E-01   -0.44014E-04 10696   0.268E-02    0.252E-01
RMM:  33    -0.686131099914E+03   -0.25353E-01   -0.61468E-04 11025   0.272E-02    0.229E-01
RMM:  34    -0.686165634204E+03   -0.34534E-01   -0.12833E-03 12073   0.321E-02    0.274E-01
RMM:  35    -0.686187157369E+03   -0.21523E-01   -0.36479E-04 10074   0.207E-02    0.266E-01
RMM:  36    -0.686207930358E+03   -0.20773E-01   -0.26515E-04  9639   0.177E-02    0.213E-01
RMM:  37    -0.686232063048E+03   -0.24133E-01   -0.26337E-04  9629   0.179E-02    0.117E-01
RMM:  38    -0.686250310683E+03   -0.18248E-01   -0.12129E-04  9042   0.164E-02    0.861E-02
RMM:  39    -0.686267696727E+03   -0.17386E-01   -0.10252E-04  8910   0.149E-02    0.108E-01
RMM:  40    -0.686283025188E+03   -0.15328E-01   -0.62969E-05  8711   0.120E-02    0.114E-01
RMM:  41    -0.686300897710E+03   -0.17873E-01   -0.72697E-05  8725   0.114E-02    0.950E-02
RMM:  42    -0.686322236887E+03   -0.21339E-01   -0.11450E-04  9038   0.113E-02    0.110E-01
RMM:  43    -0.686330360533E+03   -0.81236E-02   -0.44405E-05  7876   0.861E-03    0.914E-02
RMM:  44    -0.686338177695E+03   -0.78172E-02   -0.49509E-05  8209   0.810E-03    0.529E-02
RMM:  45    -0.686345297307E+03   -0.71196E-02   -0.80070E-05  8572   0.906E-03    0.258E-02
RMM:  46    -0.686347045163E+03   -0.17479E-02   -0.24946E-05  6759   0.652E-03    0.210E-02
RMM:  47    -0.686347803419E+03   -0.75826E-03   -0.11246E-05  5884   0.505E-03    0.258E-02
RMM:  48    -0.686348523771E+03   -0.72035E-03   -0.76446E-06  4620   0.402E-03    0.144E-02
RMM:  49    -0.686349333822E+03   -0.81005E-03   -0.92870E-06  5103   0.408E-03    0.959E-03
RMM:  50    -0.686350037477E+03   -0.70366E-03   -0.86047E-06  4863   0.397E-03    0.793E-03
RMM:  51    -0.686350375054E+03   -0.33758E-03   -0.44249E-06  4076   0.357E-03    0.708E-03
RMM:  52    -0.686350438618E+03   -0.63564E-04   -0.16378E-06  3157   0.310E-03
   2 F= -.68635044E+03 E0= -.68573211E+03  d E =0.180870E+02  mag=     0.0009
       N       E                     dE             d eps       ncg     rms          rms(c)
DAV:   1    -0.694595148151E+03   -0.82448E+01   -0.28511E+03 14944   0.630E+01    0.246E+01
RMM:   2    -0.785197876513E+03   -0.90603E+02   -0.27686E+02 15052   0.156E+01    0.155E+02
RMM:   3    -0.753513721200E+03    0.31684E+02   -0.55283E+01 16134   0.738E+00    0.689E+01
RMM:   4    -0.720534598390E+03    0.32979E+02   -0.10738E+01 14998   0.425E+00    0.394E+01
RMM:   5    -0.718992566507E+03    0.15420E+01   -0.45724E+00 15089   0.358E+00    0.376E+01
RMM:   6    -0.711214794280E+03    0.77778E+01   -0.19422E+00 15503   0.191E+00    0.228E+01
RMM:   7    -0.710159288947E+03    0.10555E+01   -0.12332E+00 16037   0.142E+00    0.221E+01
RMM:   8    -0.708458549715E+03    0.17007E+01   -0.70664E-01 15940   0.113E+00    0.183E+01
RMM:   9    -0.707273024459E+03    0.11855E+01   -0.67637E-01 16653   0.109E+00    0.152E+01
RMM:  10    -0.706806032236E+03    0.46699E+00   -0.23860E+00 19151   0.155E+00    0.106E+01
RMM:  11    -0.706498488777E+03    0.30754E+00   -0.21296E-01 15214   0.716E-01    0.102E+01
RMM:  12    -0.706352620085E+03    0.14587E+00   -0.10241E-01 15298   0.518E-01    0.919E+00
RMM:  13    -0.706304363936E+03    0.48256E-01   -0.89995E-02 15694   0.417E-01    0.810E+00
RMM:  14    -0.706300881221E+03    0.34827E-02   -0.17024E-02 15313   0.227E-01    0.898E+00
RMM:  15    -0.706279649034E+03    0.21232E-01   -0.13816E-02 15400   0.176E-01    0.780E+00
RMM:  16    -0.706266146927E+03    0.13502E-01   -0.89066E-03 15664   0.126E-01    0.777E+00
RMM:  17    -0.706259898347E+03    0.62486E-02   -0.85424E-03 15941   0.115E-01    0.792E+00
RMM:  18    -0.706253674847E+03    0.62235E-02   -0.23747E-03 14634   0.843E-02    0.756E+00
RMM:  19    -0.706248458156E+03    0.52167E-02   -0.17612E-03 14347   0.648E-02    0.711E+00
RMM:  20    -0.706246635335E+03    0.18228E-02   -0.12049E-03 14118   0.531E-02    0.684E+00
RMM:  21    -0.706246344484E+03    0.29085E-03   -0.33594E-04 10927   0.303E-02    0.679E+00
RMM:  22    -0.706246609686E+03   -0.26520E-03   -0.13814E-04  9275   0.198E-02    0.685E+00
RMM:  23    -0.706246612372E+03   -0.26854E-05   -0.15478E-04  9211   0.186E-02
   3 F= -.70624661E+03 E0= -.70560544E+03  d E =-.180913E+01  mag=    -0.0015
       N       E                     dE             d eps       ncg     rms          rms(c)
DAV:   1    -0.700143359443E+03    0.61033E+01   -0.73333E+02 14944   0.383E+01    0.112E+01
RMM:   2    -0.713837824460E+03   -0.13694E+02   -0.19223E+01 14854   0.705E+00    0.403E+01
RMM:   3    -0.708510434479E+03    0.53274E+01   -0.43029E+00 15051   0.332E+00    0.336E+01
RMM:   4    -0.703660117359E+03    0.48503E+01   -0.11378E+00 15495   0.194E+00    0.166E+01
RMM:   5    -0.703129923289E+03    0.53019E+00   -0.39203E-01 15048   0.106E+00    0.151E+01
RMM:   6    -0.701731972442E+03    0.13980E+01   -0.56885E-01 15993   0.114E+00    0.674E+00
RMM:   7    -0.701593128767E+03    0.13884E+00   -0.35935E-01 15596   0.956E-01    0.483E+00
RMM:   8    -0.701596975062E+03   -0.38463E-02   -0.98905E-02 14858   0.609E-01    0.566E+00
RMM:   9    -0.701582461581E+03    0.14513E-01   -0.41325E-02 15000   0.365E-01    0.463E+00
RMM:  10    -0.701496850139E+03    0.85611E-01   -0.17908E-02 15047   0.234E-01    0.304E+00
RMM:  11    -0.701471448865E+03    0.25401E-01   -0.88667E-03 14883   0.179E-01    0.236E+00
RMM:  12    -0.701458142327E+03    0.13307E-01   -0.70110E-03 15170   0.137E-01    0.164E+00
RMM:  13    -0.701450251057E+03    0.78913E-02   -0.35295E-03 14942   0.104E-01    0.106E+00
RMM:  14    -0.701447410486E+03    0.28406E-02   -0.15548E-03 14538   0.626E-02    0.809E-01
RMM:  15    -0.701446232034E+03    0.11785E-02   -0.63674E-04 13162   0.362E-02    0.678E-01
RMM:  16    -0.701444518623E+03    0.17134E-02   -0.67564E-04 12472   0.365E-02    0.448E-01
RMM:  17    -0.701443549202E+03    0.96942E-03   -0.39786E-04 11645   0.303E-02    0.232E-01
RMM:  18    -0.701443399491E+03    0.14971E-03   -0.17031E-04  9341   0.217E-02    0.138E-01
RMM:  19    -0.701443410064E+03   -0.10573E-04   -0.10615E-04  8986   0.182E-02
   4 F= -.70144341E+03 E0= -.70080237E+03  d E =0.480320E+01  mag=    -0.0020
       N       E                     dE             d eps       ncg     rms          rms(c)
DAV:   1    -0.705812573155E+03   -0.43692E+01   -0.52218E+02 14880   0.325E+01    0.129E+01
RMM:   2    -0.737859177413E+03   -0.32047E+02   -0.30228E+01 14976   0.720E+00    0.584E+01
RMM:   3    -0.713290907597E+03    0.24568E+02   -0.53868E+00 15113   0.394E+00    0.240E+01
RMM:   4    -0.709613019345E+03    0.36779E+01   -0.16018E+00 14854   0.231E+00    0.166E+01
RMM:   5    -0.706914143476E+03    0.26989E+01   -0.13543E+00 15325   0.158E+00    0.589E+00
RMM:   6    -0.706712943798E+03    0.20120E+00   -0.67284E-01 16138   0.102E+00    0.619E+00
RMM:   7    -0.706537710783E+03    0.17523E+00   -0.22391E-01 16584   0.574E-01    0.378E+00
RMM:   8    -0.706532399678E+03    0.53111E-02   -0.14137E-01 15627   0.498E-01    0.366E+00
RMM:   9    -0.706534533965E+03   -0.21343E-02   -0.66200E-02 14992   0.436E-01    0.376E+00
RMM:  10    -0.706512599898E+03    0.21934E-01   -0.62996E-02 15815   0.366E-01    0.323E+00
RMM:  11    -0.706458010271E+03    0.54590E-01   -0.22676E-02 14865   0.285E-01    0.102E+00
RMM:  12    -0.706455282240E+03    0.27280E-02   -0.57653E-03 14984   0.142E-01    0.657E-01
RMM:  13    -0.706454413322E+03    0.86892E-03   -0.23579E-03 14333   0.775E-02    0.694E-01
RMM:  14    -0.706453334972E+03    0.10784E-02   -0.10533E-03 13550   0.481E-02    0.503E-01
RMM:  15    -0.706452488706E+03    0.84627E-03   -0.80625E-04 13529   0.404E-02    0.242E-01
RMM:  16    -0.706452451914E+03    0.36792E-04   -0.38103E-04 11656   0.307E-02
   5 F= -.70645245E+03 E0= -.70581131E+03  d E =-.205840E+00  mag=    -0.0053
       N       E                     dE             d eps       ncg     rms          rms(c)
DAV:   1    -0.705024146189E+03    0.14283E+01   -0.25156E+02 15008   0.218E+01    0.418E+00
RMM:   2    -0.707350881588E+03   -0.23267E+01   -0.48474E+00 14848   0.430E+00    0.182E+01
RMM:   3    -0.705985250995E+03    0.13656E+01   -0.13086E+00 15844   0.181E+00    0.965E+00
RMM:   4    -0.705608243754E+03    0.37701E+00   -0.30111E-01 15522   0.996E-01    0.423E+00
RMM:   5    -0.705513113595E+03    0.95130E-01   -0.96130E-02 14902   0.577E-01    0.330E+00
RMM:   6    -0.705480538505E+03    0.32575E-01   -0.70626E-02 14966   0.426E-01    0.175E+00
RMM:   7    -0.705490174093E+03   -0.96356E-02   -0.43603E-02 15336   0.312E-01    0.220E+00
RMM:   8    -0.705500192714E+03   -0.10019E-01   -0.31684E-02 15485   0.282E-01    0.237E+00
RMM:   9    -0.705488712922E+03    0.11480E-01   -0.96888E-03 14981   0.185E-01    0.191E+00
RMM:  10    -0.705471233530E+03    0.17479E-01   -0.38273E-03 15279   0.105E-01    0.119E+00
RMM:  11    -0.705467692464E+03    0.35411E-02   -0.12538E-03 14430   0.570E-02    0.869E-01
RMM:  12    -0.705465944948E+03    0.17475E-02   -0.57497E-04 12770   0.375E-02    0.723E-01
RMM:  13    -0.705463833487E+03    0.21115E-02   -0.77684E-04 12938   0.386E-02    0.628E-01
RMM:  14    -0.705462534993E+03    0.12985E-02   -0.18960E-04  9615   0.227E-02    0.593E-01
RMM:  15    -0.705463874330E+03   -0.13393E-02   -0.11047E-04  9030   0.185E-02    0.632E-01
RMM:  16    -0.705466212702E+03   -0.23384E-02   -0.47874E-04 11123   0.296E-02    0.622E-01
RMM:  17    -0.705468516806E+03   -0.23041E-02   -0.11316E-03 13209   0.413E-02    0.526E-01
RMM:  18    -0.705468526381E+03   -0.95746E-05   -0.31222E-04 10313   0.263E-02
   6 F= -.70546853E+03 E0= -.70482691E+03  d E =0.983926E+00  mag=    -0.0035
       N       E                     dE             d eps       ncg     rms          rms(c)
DAV:   1    -0.706288890241E+03   -0.82037E+00   -0.15365E+02 15008   0.171E+01    0.357E+00
RMM:   2    -0.707014477240E+03   -0.72559E+00   -0.30485E+00 14848   0.337E+00    0.874E+00
RMM:   3    -0.707715739442E+03   -0.70126E+00   -0.76632E-01 15954   0.139E+00    0.140E+01
RMM:   4    -0.706622715334E+03    0.10930E+01   -0.17426E-01 14946   0.815E-01    0.289E+00
RMM:   5    -0.706598994186E+03    0.23721E-01   -0.71351E-02 14975   0.484E-01    0.263E+00
RMM:   6    -0.706586133100E+03    0.12861E-01   -0.38580E-02 14886   0.342E-01    0.208E+00
RMM:   7    -0.706581392833E+03    0.47403E-02   -0.54120E-02 16043   0.326E-01    0.205E+00
RMM:   8    -0.706565541400E+03    0.15851E-01   -0.15124E-02 14980   0.207E-01    0.141E+00
RMM:   9    -0.706569386666E+03   -0.38453E-02   -0.12267E-02 15622   0.162E-01    0.148E+00
RMM:  10    -0.706561922752E+03    0.74639E-02   -0.43239E-03 14689   0.116E-01    0.694E-01
RMM:  11    -0.706560649841E+03    0.12729E-02   -0.13185E-03 13925   0.632E-02    0.561E-01
RMM:  12    -0.706559986572E+03    0.66327E-03   -0.50638E-04 12170   0.353E-02    0.533E-01
RMM:  13    -0.706558513123E+03    0.14734E-02   -0.45993E-04 11604   0.313E-02    0.426E-01
RMM:  14    -0.706557710293E+03    0.80283E-03   -0.17496E-04  9697   0.205E-02    0.372E-01
RMM:  15    -0.706558536377E+03   -0.82608E-03   -0.84834E-05  9018   0.161E-02    0.403E-01
RMM:  16    -0.706559543206E+03   -0.10068E-02   -0.60284E-04 11534   0.321E-02    0.310E-01
RMM:  17    -0.706559485304E+03    0.57902E-04   -0.44161E-04 10670   0.283E-02
   7 F= -.70655949E+03 E0= -.70591728E+03  d E =-.107033E+00  mag=    -0.0004
       N       E                     dE             d eps       ncg     rms          rms(c)
DAV:   1    -0.706158119073E+03    0.40142E+00   -0.14607E+02 15280   0.160E+01    0.850E+00
RMM:   2    -0.717160486877E+03   -0.11002E+02   -0.85968E+00 15013   0.438E+00    0.354E+01
RMM:   3    -0.711574349882E+03    0.55861E+01   -0.20563E+00 15060   0.254E+00    0.263E+01
RMM:   4    -0.707355295271E+03    0.42191E+01   -0.75358E-01 14860   0.164E+00    0.104E+01
RMM:   5    -0.706241573018E+03    0.11137E+01   -0.61534E-01 15179   0.105E+00    0.448E+00
RMM:   6    -0.706159974298E+03    0.81599E-01   -0.24730E-01 16173   0.671E-01    0.435E+00
RMM:   7    -0.706104005717E+03    0.55969E-01   -0.75398E-02 16226   0.368E-01    0.278E+00
RMM:   8    -0.706106766797E+03   -0.27611E-02   -0.33104E-02 15585   0.261E-01    0.243E+00
RMM:   9    -0.706101849836E+03    0.49170E-02   -0.40552E-02 16477   0.307E-01    0.224E+00
RMM:  10    -0.706084690939E+03    0.17159E-01   -0.16874E-02 15303   0.204E-01    0.134E+00
RMM:  11    -0.706082927373E+03    0.17636E-02   -0.78485E-03 16004   0.130E-01    0.134E+00
RMM:  12    -0.706079136093E+03    0.37913E-02   -0.26184E-03 14540   0.824E-02    0.946E-01
RMM:  13    -0.706075806217E+03    0.33299E-02   -0.15741E-03 14088   0.653E-02    0.608E-01
RMM:  14    -0.706075207215E+03    0.59900E-03   -0.10959E-03 13612   0.496E-02    0.516E-01
RMM:  15    -0.706074355012E+03    0.85220E-03   -0.61493E-04 12213   0.356E-02    0.424E-01
RMM:  16    -0.706073710157E+03    0.64486E-03   -0.20206E-04  9759   0.224E-02    0.387E-01
RMM:  17    -0.706073479648E+03    0.23051E-03   -0.42889E-05  8641   0.134E-02    0.367E-01
RMM:  18    -0.706073845942E+03   -0.36629E-03   -0.12397E-04  9029   0.147E-02    0.353E-01
RMM:  19    -0.706074397728E+03   -0.55179E-03   -0.21159E-04  9408   0.197E-02    0.276E-01
RMM:  20    -0.706074810204E+03   -0.41248E-03   -0.19623E-04  9383   0.205E-02    0.257E-01
RMM:  21    -0.706074776290E+03    0.33914E-04   -0.52418E-05  8480   0.143E-02
   8 F= -.70607478E+03 E0= -.70543303E+03  d E =0.484709E+00  mag=     0.0001
       N       E                     dE             d eps       ncg     rms          rms(c)
DAV:   1    -0.706759231078E+03   -0.68442E+00   -0.73579E+01 15136   0.114E+01    0.394E+00
RMM:   2    -0.709591336640E+03   -0.28321E+01   -0.20347E+00 14854   0.237E+00    0.206E+01
RMM:   3    -0.707624910996E+03    0.19664E+01   -0.50184E-01 15267   0.125E+00    0.115E+01
RMM:   4    -0.706923877039E+03    0.70103E+00   -0.20093E-01 14896   0.815E-01    0.499E+00
RMM:   5    -0.706801584499E+03    0.12229E+00   -0.74252E-02 14969   0.510E-01    0.243E+00
RMM:   6    -0.706781180613E+03    0.20404E-01   -0.34000E-02 14945   0.332E-01    0.190E+00
RMM:   7    -0.706774418638E+03    0.67620E-02   -0.29706E-02 15249   0.282E-01    0.148E+00
RMM:   8    -0.706769392842E+03    0.50258E-02   -0.11195E-02 14949   0.184E-01    0.102E+00
RMM:   9    -0.706763316906E+03    0.60759E-02   -0.86057E-03 15366   0.140E-01    0.472E-01
RMM:  10    -0.706763681803E+03   -0.36490E-03   -0.21720E-03 14510   0.868E-02    0.517E-01
RMM:  11    -0.706762663007E+03    0.10188E-02   -0.85503E-04 13534   0.426E-02    0.299E-01
RMM:  12    -0.706762147114E+03    0.51589E-03   -0.18273E-04  9693   0.246E-02    0.156E-01
RMM:  13    -0.706761937683E+03    0.20943E-03   -0.20895E-04  9718   0.228E-02    0.132E-01
RMM:  14    -0.706761603151E+03    0.33453E-03   -0.29379E-04 10300   0.246E-02    0.118E-01
RMM:  15    -0.706761431530E+03    0.17162E-03   -0.55056E-05  8843   0.156E-02    0.932E-02
RMM:  16    -0.706761530068E+03   -0.98538E-04   -0.26035E-05  8364   0.877E-03
   9 F= -.70676153E+03 E0= -.70612075E+03  d E =-.202045E+00  mag=     0.0020
       N       E                     dE             d eps       ncg     rms          rms(c)
DAV:   1    -0.705740190189E+03    0.10212E+01   -0.12187E+02 14976   0.157E+01    0.830E+00
RMM:   2    -0.716636839333E+03   -0.10897E+02   -0.88148E+00 15001   0.392E+00    0.342E+01
RMM:   3    -0.710601045940E+03    0.60358E+01   -0.18567E+00 14984   0.245E+00    0.245E+01
RMM:   4    -0.706679512938E+03    0.39215E+01   -0.67433E-01 14850   0.156E+00    0.874E+00
RMM:   5    -0.705804724312E+03    0.87479E+00   -0.60773E-01 15259   0.103E+00    0.401E+00
RMM:   6    -0.705740871881E+03    0.63852E-01   -0.20319E-01 16344   0.593E-01    0.339E+00
RMM:   7    -0.705704359100E+03    0.36513E-01   -0.65593E-02 16140   0.331E-01    0.225E+00
RMM:   8    -0.705698326280E+03    0.60328E-02   -0.24912E-02 15947   0.219E-01    0.198E+00
RMM:   9    -0.705684147382E+03    0.14179E-01   -0.17291E-02 15408   0.207E-01    0.118E+00
RMM:  10    -0.705677959889E+03    0.61875E-02   -0.88899E-03 15142   0.151E-01    0.700E-01
RMM:  11    -0.705677218658E+03    0.74123E-03   -0.45289E-03 15551   0.998E-02    0.681E-01
RMM:  12    -0.705675758894E+03    0.14598E-02   -0.13727E-03 14263   0.552E-02    0.450E-01
RMM:  13    -0.705674294352E+03    0.14645E-02   -0.64264E-04 12546   0.408E-02    0.295E-01
RMM:  14    -0.705673531952E+03    0.76240E-03   -0.26486E-04 10225   0.247E-02    0.285E-01
RMM:  15    -0.705674034030E+03   -0.50208E-03   -0.68090E-05  8829   0.154E-02    0.306E-01
RMM:  16    -0.705676082627E+03   -0.20486E-02   -0.73265E-04 11495   0.344E-02    0.351E-01
RMM:  17    -0.705675726529E+03    0.35610E-03   -0.17359E-03 14054   0.491E-02    0.217E-01
RMM:  18    -0.705675767782E+03   -0.41253E-04   -0.25745E-04  9796   0.288E-02
  10 F= -.70567577E+03 E0= -.70503911E+03  d E =0.108576E+01  mag=    -0.0046
       N       E                     dE             d eps       ncg     rms          rms(c)
DAV:   1    -0.706577837529E+03   -0.90211E+00   -0.36477E+01 15072   0.859E+00    0.320E+00
RMM:   2    -0.709069992599E+03   -0.24922E+01   -0.13035E+00 14858   0.170E+00    0.195E+01
RMM:   3    -0.707420162870E+03    0.16498E+01   -0.33358E-01 14893   0.105E+00    0.115E+01
RMM:   4    -0.706623245470E+03    0.79692E+00   -0.12543E-01 14897   0.668E-01    0.275E+00
RMM:   5    -0.706599052499E+03    0.24193E-01   -0.41377E-02 15010   0.363E-01    0.217E+00
RMM:   6    -0.706589034649E+03    0.10018E-01   -0.16151E-02 15511   0.208E-01    0.167E+00
RMM:   7    -0.706578538989E+03    0.10496E-01   -0.64041E-03 14761   0.137E-01    0.117E+00
RMM:   8    -0.706578928218E+03   -0.38923E-03   -0.38255E-03 14810   0.100E-01    0.966E-01
RMM:   9    -0.706573449986E+03    0.54782E-02   -0.24212E-03 14672   0.838E-02    0.415E-01
RMM:  10    -0.706572796444E+03    0.65354E-03   -0.11102E-03 13736   0.573E-02    0.271E-01
RMM:  11    -0.706572474052E+03    0.32239E-03   -0.47362E-04 12007   0.346E-02    0.200E-01
RMM:  12    -0.706571995983E+03    0.47807E-03   -0.16329E-04  9469   0.218E-02    0.137E-01
RMM:  13    -0.706571903127E+03    0.92855E-04   -0.43118E-05  8322   0.125E-02
  11 F= -.70657190E+03 E0= -.70593251E+03  d E =0.189627E+00  mag=    -0.0110
       N       E                     dE             d eps       ncg     rms          rms(c)
DAV:   1    -0.706842876571E+03   -0.27088E+00   -0.74260E+00 15328   0.389E+00    0.164E+00
RMM:   2    -0.707722266705E+03   -0.87939E+00   -0.32841E-01 14879   0.814E-01    0.129E+01
RMM:   3    -0.707013323531E+03    0.70894E+00   -0.92002E-02 14860   0.573E-01    0.549E+00
RMM:   4    -0.706849146642E+03    0.16418E+00   -0.34368E-02 14896   0.351E-01    0.129E+00
RMM:   5    -0.706844518082E+03    0.46286E-02   -0.11519E-02 14954   0.185E-01    0.101E+00
RMM:   6    -0.706844260359E+03    0.25772E-03   -0.42044E-03 15346   0.102E-01    0.989E-01
RMM:   7    -0.706839798637E+03    0.44617E-02   -0.15388E-03 13782   0.666E-02    0.710E-01
RMM:   8    -0.706837225169E+03    0.25735E-02   -0.10278E-03 13508   0.495E-02    0.551E-01
RMM:   9    -0.706834013719E+03    0.32114E-02   -0.62956E-04 12298   0.381E-02    0.413E-01
RMM:  10    -0.706833531648E+03    0.48207E-03   -0.14257E-04  9201   0.209E-02    0.395E-01
RMM:  11    -0.706836256660E+03   -0.27250E-02   -0.47438E-04 10744   0.293E-02    0.332E-01
RMM:  12    -0.706838981191E+03   -0.27245E-02   -0.86270E-04 12590   0.395E-02    0.238E-01
RMM:  13    -0.706841260892E+03   -0.22797E-02   -0.13106E-03 13455   0.426E-02    0.167E-01
RMM:  14    -0.706841684937E+03   -0.42405E-03   -0.18467E-04  9317   0.236E-02    0.184E-01
RMM:  15    -0.706841808059E+03   -0.12312E-03   -0.60651E-05  8646   0.162E-02    0.145E-01
RMM:  16    -0.706841763601E+03    0.44457E-04   -0.33526E-05  8158   0.103E-02
  12 F= -.70684176E+03 E0= -.70620182E+03  d E =-.802335E-01  mag=    -0.0083
       N       E                     dE             d eps       ncg     rms          rms(c)
DAV:   1    -0.706853748048E+03   -0.11940E-01   -0.33259E-01 15616   0.825E-01    0.403E-01
RMM:   2    -0.706919079175E+03   -0.65331E-01   -0.19803E-02 14909   0.192E-01    0.359E+00
RMM:   3    -0.706860166429E+03    0.58913E-01   -0.60746E-03 14823   0.153E-01    0.121E+00
RMM:   4    -0.706853623703E+03    0.65427E-02   -0.21013E-03 14022   0.880E-02    0.258E-01
RMM:   5    -0.706853478390E+03    0.14531E-03   -0.81021E-04 12097   0.470E-02    0.189E-01
RMM:   6    -0.706853396751E+03    0.81638E-04   -0.26751E-04  9863   0.259E-02    0.178E-01
RMM:   7    -0.706853181808E+03    0.21494E-03   -0.86793E-05  8261   0.165E-02    0.162E-01
RMM:   8    -0.706853091978E+03    0.89830E-04   -0.29554E-05  7524   0.972E-03
  13 F= -.70685309E+03 E0= -.70621334E+03  d E =-.915619E-01  mag=    -0.0103
       N       E                     dE             d eps       ncg     rms          rms(c)
DAV:   1    -0.706853331313E+03   -0.14951E-03   -0.45456E-03 15440   0.966E-02    0.175E-01
RMM:   2    -0.706875653999E+03   -0.22323E-01   -0.18852E-03 14103   0.557E-02    0.200E+00
RMM:   3    -0.706852329353E+03    0.23325E-01   -0.11689E-03 13660   0.736E-02    0.281E-01
RMM:   4    -0.706852741951E+03   -0.41260E-03   -0.25827E-04  9983   0.331E-02    0.162E-01
RMM:   5    -0.706852763078E+03   -0.21128E-04   -0.76043E-05  8319   0.171E-02    0.180E-01
RMM:   6    -0.706853140584E+03   -0.37751E-03   -0.62606E-05  8043   0.133E-02    0.246E-01
RMM:   7    -0.706853336178E+03   -0.19559E-03   -0.64913E-05  7907   0.138E-02    0.207E-01
RMM:   8    -0.706853551957E+03   -0.21578E-03   -0.20165E-04  8915   0.191E-02    0.164E-01
RMM:   9    -0.706853727714E+03   -0.17576E-03   -0.19316E-04  9011   0.197E-02    0.109E-01
RMM:  10    -0.706853745777E+03   -0.18064E-04   -0.80426E-05  8407   0.157E-02
  14 F= -.70685375E+03 E0= -.70621255E+03  d E =-.922157E-01  mag=    -0.0064
       N       E                     dE             d eps       ncg     rms          rms(c)
DAV:   1    -0.706735286916E+03    0.11844E+00   -0.10646E+01 15344   0.484E+00    0.745E-01
RMM:   2    -0.706783097579E+03   -0.47811E-01   -0.21830E-01 14848   0.916E-01    0.233E+00
RMM:   3    -0.706763987984E+03    0.19110E-01   -0.45530E-02 16473   0.361E-01    0.127E+00
RMM:   4    -0.706792427444E+03   -0.28439E-01   -0.89199E-03 15084   0.171E-01    0.251E+00
RMM:   5    -0.706769920927E+03    0.22507E-01   -0.35810E-03 14912   0.116E-01    0.158E+00
RMM:   6    -0.706761144929E+03    0.87760E-02   -0.25637E-03 14668   0.830E-02    0.115E+00
RMM:   7    -0.706757203854E+03    0.39411E-02   -0.36300E-03 15798   0.882E-02    0.632E-01
RMM:   8    -0.706756559700E+03    0.64415E-03   -0.14375E-03 14319   0.618E-02    0.386E-01
RMM:   9    -0.706756324634E+03    0.23507E-03   -0.41411E-04 12156   0.384E-02    0.303E-01
RMM:  10    -0.706756532925E+03   -0.20829E-03   -0.25485E-04 10283   0.264E-02    0.345E-01
RMM:  11    -0.706756085997E+03    0.44693E-03   -0.16200E-04  9177   0.218E-02    0.275E-01
RMM:  12    -0.706755784582E+03    0.30142E-03   -0.84322E-05  8787   0.154E-02    0.230E-01
RMM:  13    -0.706755822527E+03   -0.37945E-04   -0.17469E-05  8086   0.917E-03
  15 F= -.70675582E+03 E0= -.70611839E+03  d E =0.979233E-01  mag=    -0.0022
       N       E                     dE             d eps       ncg     rms          rms(c)
DAV:   1    -0.706867572186E+03   -0.11179E+00   -0.54313E+00 15344   0.346E+00    0.545E-01
RMM:   2    -0.706965224632E+03   -0.97652E-01   -0.11487E-01 14848   0.657E-01    0.385E+00
RMM:   3    -0.706880909398E+03    0.84315E-01   -0.22161E-02 15434   0.277E-01    0.948E-01
RMM:   4    -0.706882859022E+03   -0.19496E-02   -0.59624E-03 15233   0.142E-01    0.117E+00
RMM:   5    -0.706877790309E+03    0.50687E-02   -0.24070E-03 14859   0.860E-02    0.605E-01
RMM:   6    -0.706876280685E+03    0.15096E-02   -0.14441E-03 14201   0.592E-02    0.624E-01
RMM:   7    -0.706874952740E+03    0.13279E-02   -0.85231E-04 13154   0.438E-02    0.614E-01
RMM:   8    -0.706874738846E+03    0.21389E-03   -0.20217E-04  9775   0.233E-02    0.609E-01
RMM:   9    -0.706875368764E+03   -0.62992E-03   -0.22070E-04  9583   0.225E-02    0.631E-01
RMM:  10    -0.706875722644E+03   -0.35388E-03   -0.38651E-04 11076   0.316E-02    0.634E-01
RMM:  11    -0.706877909527E+03   -0.21869E-02   -0.29301E-03 15980   0.668E-02    0.580E-01
RMM:  12    -0.706877486820E+03    0.42271E-03   -0.15828E-03 14236   0.499E-02    0.313E-01
RMM:  13    -0.706877996420E+03   -0.50960E-03   -0.20634E-04  9450   0.285E-02    0.281E-01
RMM:  14    -0.706878251360E+03   -0.25494E-03   -0.74497E-05  8690   0.176E-02    0.310E-01
RMM:  15    -0.706877990227E+03    0.26113E-03   -0.99155E-05  8607   0.156E-02    0.278E-01
RMM:  16    -0.706877472965E+03    0.51726E-03   -0.13070E-04  8621   0.173E-02    0.154E-01
RMM:  17    -0.706877273757E+03    0.19921E-03   -0.56965E-05  8261   0.141E-02    0.970E-02
RMM:  18    -0.706877314297E+03   -0.40540E-04   -0.14140E-05  7369   0.770E-03
  16 F= -.70687731E+03 E0= -.70623680E+03  d E =-.235685E-01  mag=     0.0016
       N       E                     dE             d eps       ncg     rms          rms(c)
DAV:   1    -0.706876766833E+03    0.50692E-03   -0.23580E+00 15408   0.210E+00    0.502E-01
RMM:   2    -0.706889675469E+03   -0.12909E-01   -0.47136E-02 14848   0.436E-01    0.130E+00
RMM:   3    -0.706884494381E+03    0.51811E-02   -0.10657E-02 15876   0.184E-01    0.793E-01
RMM:   4    -0.706903870039E+03   -0.19376E-01   -0.53783E-03 15349   0.111E-01    0.212E+00
RMM:   5    -0.706888947367E+03    0.14923E-01   -0.17514E-03 14282   0.903E-02    0.129E+00
RMM:   6    -0.706879473718E+03    0.94736E-02   -0.15846E-03 14375   0.621E-02    0.632E-01
RMM:   7    -0.706877599639E+03    0.18741E-02   -0.88143E-04 13395   0.491E-02    0.394E-01
RMM:   8    -0.706876140691E+03    0.14589E-02   -0.47568E-04 11870   0.336E-02    0.317E-01
RMM:   9    -0.706875228625E+03    0.91207E-03   -0.15315E-04  9283   0.211E-02    0.317E-01
RMM:  10    -0.706877408705E+03   -0.21801E-02   -0.29973E-04 10020   0.250E-02    0.306E-01
RMM:  11    -0.706879772699E+03   -0.23640E-02   -0.81799E-04 12102   0.375E-02    0.241E-01
RMM:  12    -0.706881388234E+03   -0.16155E-02   -0.77853E-04 12036   0.352E-02    0.296E-01
RMM:  13    -0.706881498379E+03   -0.11014E-03   -0.13158E-04  8933   0.219E-02    0.253E-01
RMM:  14    -0.706881487880E+03    0.10498E-04   -0.59722E-05  8526   0.149E-02
  17 F= -.70688149E+03 E0= -.70624271E+03  d E =-.417358E-02  mag=    -0.0023
       N       E                     dE             d eps       ncg     rms          rms(c)
DAV:   1    -0.706891471071E+03   -0.99727E-02   -0.46029E-01 15472   0.931E-01    0.220E-01
RMM:   2    -0.706908379131E+03   -0.16908E-01   -0.10366E-02 14855   0.201E-01    0.165E+00
RMM:   3    -0.706892362712E+03    0.16016E-01   -0.21733E-03 14844   0.932E-02    0.361E-01
RMM:   4    -0.706893025219E+03   -0.66251E-03   -0.88323E-04 13982   0.515E-02    0.498E-01
RMM:   5    -0.706892766478E+03    0.25874E-03   -0.30253E-04 10843   0.332E-02    0.407E-01
RMM:   6    -0.706892120449E+03    0.64603E-03   -0.19701E-04  9422   0.264E-02    0.309E-01
RMM:   7    -0.706891905724E+03    0.21472E-03   -0.20284E-04  9250   0.224E-02    0.270E-01
RMM:   8    -0.706891545497E+03    0.36023E-03   -0.89113E-05  8516   0.163E-02    0.222E-01
RMM:   9    -0.706891460643E+03    0.84853E-04   -0.26845E-05  7830   0.101E-02
  18 F= -.70689146E+03 E0= -.70625100E+03  d E =-.141463E-01  mag=     0.0007
       N       E                     dE             d eps       ncg     rms          rms(c)
DAV:   1    -0.706905410595E+03   -0.13865E-01   -0.45901E-01 15472   0.848E-01    0.281E-01
RMM:   2    -0.706937123003E+03   -0.31712E-01   -0.11139E-02 14868   0.198E-01    0.229E+00
RMM:   3    -0.706906305988E+03    0.30817E-01   -0.27245E-03 14651   0.110E-01    0.546E-01
RMM:   4    -0.706905443842E+03    0.86215E-03   -0.85208E-04 13944   0.544E-02    0.282E-01
RMM:   5    -0.706905829869E+03   -0.38603E-03   -0.42630E-04 11692   0.334E-02    0.416E-01
RMM:   6    -0.706904652837E+03    0.11770E-02   -0.24499E-04  9752   0.276E-02    0.305E-01
RMM:   7    -0.706903954826E+03    0.69801E-03   -0.15768E-04  9198   0.199E-02    0.264E-01
RMM:   8    -0.706905067522E+03   -0.11127E-02   -0.21644E-04  9096   0.223E-02    0.328E-01
RMM:   9    -0.706905422664E+03   -0.35514E-03   -0.23952E-04  9263   0.226E-02    0.225E-01
RMM:  10    -0.706906199556E+03   -0.77689E-03   -0.48260E-04 10635   0.281E-02    0.260E-01
RMM:  11    -0.706906481054E+03   -0.28150E-03   -0.50789E-04 11034   0.313E-02    0.217E-01
RMM:  12    -0.706906360239E+03    0.12081E-03   -0.12170E-04  8707   0.216E-02    0.870E-02
RMM:  13    -0.706906457691E+03   -0.97451E-04   -0.34802E-05  8245   0.129E-02
  19 F= -.70690646E+03 E0= -.70626721E+03  d E =-.149970E-01  mag=    -0.0048
       N       E                     dE             d eps       ncg     rms          rms(c)
DAV:   1    -0.706907206328E+03   -0.84609E-03   -0.22318E-02 15488   0.187E-01    0.787E-02
RMM:   2    -0.706907888840E+03   -0.68251E-03   -0.49758E-04 12930   0.429E-02    0.315E-01
RMM:   3    -0.706907716562E+03    0.17228E-03   -0.17030E-04  9113   0.247E-02    0.318E-01
RMM:   4    -0.706907189840E+03    0.52672E-03   -0.57542E-05  8243   0.174E-02    0.844E-02
RMM:   5    -0.706907134363E+03    0.55477E-04   -0.24444E-05  7898   0.905E-03    0.545E-02
RMM:   6    -0.706907055217E+03    0.79146E-04   -0.21690E-05  7847   0.837E-03    0.665E-02
RMM:   7    -0.706906995380E+03    0.59837E-04   -0.93301E-06  6588   0.570E-03    0.599E-02
RMM:   8    -0.706907029711E+03   -0.34331E-04   -0.24065E-06  4500   0.374E-03
  20 F= -.70690703E+03 E0= -.70626753E+03  d E =-.155691E-01  mag=    -0.0064
       N       E                     dE             d eps       ncg     rms          rms(c)
DAV:   1    -0.706912832843E+03   -0.58375E-02   -0.17324E-01 15744   0.649E-01    0.134E-01
RMM:   2    -0.706913321001E+03   -0.48816E-03   -0.37129E-03 14797   0.120E-01    0.309E-01
RMM:   3    -0.706913105617E+03    0.21538E-03   -0.70192E-04 13612   0.491E-02    0.217E-01
RMM:   4    -0.706913462263E+03   -0.35665E-03   -0.22158E-04  9599   0.263E-02    0.376E-01
RMM:   5    -0.706912968629E+03    0.49363E-03   -0.73106E-05  8530   0.202E-02    0.254E-01
RMM:   6    -0.706912262770E+03    0.70586E-03   -0.11129E-04  8647   0.154E-02    0.187E-01
RMM:   7    -0.706912116593E+03    0.14618E-03   -0.27792E-05  8034   0.108E-02    0.158E-01
RMM:   8    -0.706912559524E+03   -0.44293E-03   -0.41912E-05  8153   0.105E-02    0.174E-01
RMM:   9    -0.706912737613E+03   -0.17809E-03   -0.20039E-05  7715   0.823E-03    0.153E-01
RMM:  10    -0.706913275184E+03   -0.53757E-03   -0.13929E-04  8659   0.154E-02    0.155E-01
RMM:  11    -0.706913182513E+03    0.92671E-04   -0.30285E-04  9795   0.230E-02
  21 F= -.70691318E+03 E0= -.70627355E+03  d E =-.615280E-02  mag=    -0.0008
       N       E                     dE             d eps       ncg     rms          rms(c)
DAV:   1    -0.706913178740E+03    0.96444E-04   -0.32440E-04 13728   0.384E-02    0.938E-02
RMM:   2    -0.706915026595E+03   -0.18479E-02   -0.28950E-04 10343   0.285E-02    0.579E-01
RMM:   3    -0.706914023519E+03    0.10031E-02   -0.23799E-04  9674   0.306E-02    0.411E-01
RMM:   4    -0.706913182548E+03    0.84097E-03   -0.81615E-05  8117   0.207E-02    0.155E-01
RMM:   5    -0.706913093862E+03    0.88686E-04   -0.21351E-05  7545   0.980E-03    0.115E-01
RMM:   6    -0.706913018174E+03    0.75688E-04   -0.79740E-06  6281   0.508E-03    0.965E-02
RMM:   7    -0.706913017953E+03    0.22135E-06   -0.17858E-06  3580   0.340E-03    0.993E-02
RMM:   8    -0.706913061111E+03   -0.43159E-04   -0.42566E-06  4602   0.382E-03
  22 F= -.70691306E+03 E0= -.70627352E+03  d E =-.603140E-02  mag=    -0.0005
       N       E                     dE             d eps       ncg     rms          rms(c)
DAV:   1    -0.706916535218E+03   -0.35173E-02   -0.64692E-02 15552   0.326E-01    0.129E-01
RMM:   2    -0.706922334631E+03   -0.57994E-02   -0.17862E-03 14682   0.803E-02    0.966E-01
RMM:   3    -0.706917140659E+03    0.51940E-02   -0.56660E-04 13069   0.487E-02    0.401E-01
RMM:   4    -0.706916562808E+03    0.57785E-03   -0.16681E-04  8907   0.274E-02    0.114E-01
RMM:   5    -0.706916478226E+03    0.84583E-04   -0.71015E-05  8218   0.175E-02    0.110E-01
RMM:   6    -0.706916307448E+03    0.17078E-03   -0.59384E-05  8219   0.137E-02    0.103E-01
RMM:   7    -0.706916139502E+03    0.16795E-03   -0.27409E-05  7895   0.101E-02    0.775E-02
RMM:   8    -0.706915999423E+03    0.14008E-03   -0.17995E-05  7303   0.679E-03    0.837E-02
RMM:   9    -0.706916095910E+03   -0.96487E-04   -0.53109E-06  5922   0.496E-03
  23 F= -.70691610E+03 E0= -.70627617E+03  d E =-.303480E-02  mag=     0.0015
       N       E                     dE             d eps       ncg     rms          rms(c)
DAV:   1    -0.706917894189E+03   -0.18948E-02   -0.13089E-01 15456   0.463E-01    0.155E-01
RMM:   2    -0.706919034458E+03   -0.11403E-02   -0.27033E-03 14768   0.105E-01    0.521E-01
RMM:   3    -0.706918166090E+03    0.86837E-03   -0.64671E-04 13325   0.479E-02    0.301E-01
RMM:   4    -0.706917718250E+03    0.44784E-03   -0.21169E-04  9609   0.256E-02    0.155E-01
RMM:   5    -0.706917537781E+03    0.18047E-03   -0.12978E-04  8790   0.218E-02    0.217E-01
RMM:   6    -0.706916835690E+03    0.70209E-03   -0.15483E-04  8839   0.205E-02    0.153E-01
RMM:   7    -0.706916582656E+03    0.25303E-03   -0.40754E-05  8094   0.126E-02    0.138E-01
RMM:   8    -0.706916729854E+03   -0.14720E-03   -0.15152E-05  7446   0.732E-03    0.140E-01
RMM:   9    -0.706917172014E+03   -0.44216E-03   -0.37036E-05  8024   0.951E-03    0.169E-01
RMM:  10    -0.706917636083E+03   -0.46407E-03   -0.56399E-05  8105   0.112E-02    0.135E-01
RMM:  11    -0.706918266323E+03   -0.63024E-03   -0.58173E-04 10918   0.282E-02    0.113E-01
RMM:  12    -0.706918346303E+03   -0.79981E-04   -0.77100E-05  8573   0.175E-02
  24 F= -.70691835E+03 E0= -.70627890E+03  d E =-.528519E-02  mag=    -0.0030
       N       E                     dE             d eps       ncg     rms          rms(c)
DAV:   1    -0.706920871476E+03   -0.26052E-02   -0.36410E-02 15568   0.236E-01    0.103E-01
RMM:   2    -0.706923014872E+03   -0.21434E-02   -0.10098E-03 14192   0.587E-02    0.582E-01
RMM:   3    -0.706921356124E+03    0.16587E-02   -0.29827E-04 10599   0.330E-02    0.325E-01
RMM:   4    -0.706920918243E+03    0.43788E-03   -0.11322E-04  8424   0.224E-02    0.921E-02
RMM:   5    -0.706920932067E+03   -0.13825E-04   -0.43988E-05  8110   0.138E-02    0.814E-02
RMM:   6    -0.706920923741E+03    0.83264E-05   -0.32208E-05  7955   0.105E-02    0.979E-02
RMM:   7    -0.706920886351E+03    0.37390E-04   -0.23174E-05  7811   0.916E-03    0.100E-01
RMM:   8    -0.706920834139E+03    0.52211E-04   -0.14073E-05  7403   0.676E-03
  25 F= -.70692083E+03 E0= -.70628139E+03  d E =-.248784E-02  mag=    -0.0044
       N       E                     dE             d eps       ncg     rms          rms(c)
DAV:   1    -0.706923363985E+03   -0.24776E-02   -0.32790E-01 15504   0.705E-01    0.220E-01
RMM:   2    -0.706931609958E+03   -0.82460E-02   -0.67175E-03 14845   0.156E-01    0.116E+00
RMM:   3    -0.706924290801E+03    0.73192E-02   -0.17422E-03 14726   0.749E-02    0.462E-01
RMM:   4    -0.706923592620E+03    0.69818E-03   -0.48083E-04 12597   0.426E-02    0.164E-01
RMM:   5    -0.706923771235E+03   -0.17861E-03   -0.29394E-04 10702   0.307E-02    0.297E-01
RMM:   6    -0.706923043204E+03    0.72803E-03   -0.29353E-04 10364   0.300E-02    0.210E-01
RMM:   7    -0.706922484803E+03    0.55840E-03   -0.17774E-04  9170   0.223E-02    0.178E-01
RMM:   8    -0.706922217399E+03    0.26740E-03   -0.54240E-05  8364   0.140E-02    0.158E-01
RMM:   9    -0.706922421965E+03   -0.20457E-03   -0.21274E-05  7712   0.871E-03    0.177E-01
RMM:  10    -0.706922910952E+03   -0.48899E-03   -0.68899E-05  8258   0.122E-02    0.149E-01
RMM:  11    -0.706923721108E+03   -0.81016E-03   -0.29054E-04  9597   0.217E-02    0.156E-01
RMM:  12    -0.706923539403E+03    0.18170E-03   -0.29632E-04  9753   0.225E-02    0.117E-01
RMM:  13    -0.706923671821E+03   -0.13242E-03   -0.49358E-05  8376   0.152E-02    0.101E-01
RMM:  14    -0.706923801206E+03   -0.12938E-03   -0.21861E-05  7765   0.876E-03    0.944E-02
RMM:  15    -0.706923797201E+03    0.40045E-05   -0.85062E-06  6820   0.523E-03
  26 F= -.70692380E+03 E0= -.70628405E+03  d E =-.545090E-02  mag=    -0.0004
       N       E                     dE             d eps       ncg     rms          rms(c)
DAV:   1    -0.706926711877E+03   -0.29107E-02   -0.74674E-02 15472   0.318E-01    0.102E-01
RMM:   2    -0.706927093900E+03   -0.38202E-03   -0.12630E-03 14402   0.687E-02    0.275E-01
RMM:   3    -0.706926794403E+03    0.29950E-03   -0.28570E-04 10374   0.320E-02    0.125E-01
RMM:   4    -0.706926821383E+03   -0.26980E-04   -0.84931E-05  8591   0.184E-02    0.121E-01
RMM:   5    -0.706927163509E+03   -0.34213E-03   -0.68745E-05  8181   0.141E-02    0.302E-01
RMM:   6    -0.706926698271E+03    0.46524E-03   -0.46266E-05  8113   0.144E-02    0.133E-01
RMM:   7    -0.706926570412E+03    0.12786E-03   -0.45143E-05  7939   0.109E-02    0.925E-02
RMM:   8    -0.706926568979E+03    0.14326E-05   -0.99401E-06  7064   0.669E-03
  27 F= -.70692657E+03 E0= -.70628684E+03  d E =-.277178E-02  mag=     0.0009
       N       E                     dE             d eps       ncg     rms          rms(c)
DAV:   1    -0.706928683346E+03   -0.21129E-02   -0.37200E-01 15344   0.711E-01    0.225E-01
RMM:   2    -0.706930508994E+03   -0.18256E-02   -0.62116E-03 14836   0.149E-01    0.628E-01
RMM:   3    -0.706929039597E+03    0.14694E-02   -0.13677E-03 14740   0.671E-02    0.227E-01
RMM:   4    -0.706931787629E+03   -0.27480E-02   -0.54160E-04 12929   0.364E-02    0.755E-01
RMM:   5    -0.706928728923E+03    0.30587E-02   -0.22219E-04  9736   0.301E-02    0.291E-01
RMM:   6    -0.706928622808E+03    0.10611E-03   -0.20995E-04  9471   0.243E-02    0.313E-01
RMM:   7    -0.706928006153E+03    0.61665E-03   -0.20770E-04  9233   0.225E-02    0.240E-01
RMM:   8    -0.706928620817E+03   -0.61466E-03   -0.98858E-05  8458   0.174E-02    0.316E-01
RMM:   9    -0.706928782634E+03   -0.16182E-03   -0.84688E-05  8336   0.153E-02    0.283E-01
RMM:  10    -0.706929142609E+03   -0.35998E-03   -0.32183E-04  9645   0.237E-02    0.221E-01
RMM:  11    -0.706929216064E+03   -0.73454E-04   -0.49059E-04 10938   0.296E-02
  28 F= -.70692922E+03 E0= -.70628893E+03  d E =-.541886E-02  mag=    -0.0025
       N       E                     dE             d eps       ncg     rms          rms(c)
DAV:   1    -0.706933075994E+03   -0.39334E-02   -0.16583E-01 15488   0.489E-01    0.135E-01
RMM:   2    -0.706933838282E+03   -0.76229E-03   -0.26666E-03 14804   0.102E-01    0.319E-01
RMM:   3    -0.706933609436E+03    0.22885E-03   -0.71874E-04 13554   0.448E-02    0.258E-01
RMM:   4    -0.706933406215E+03    0.20322E-03   -0.14498E-04  9151   0.226E-02    0.142E-01
RMM:   5    -0.706933943290E+03   -0.53708E-03   -0.83581E-05  8597   0.170E-02    0.343E-01
RMM:   6    -0.706933430079E+03    0.51321E-03   -0.49631E-05  8245   0.148E-02    0.188E-01
RMM:   7    -0.706933274235E+03    0.15584E-03   -0.88887E-05  8392   0.144E-02    0.124E-01
RMM:   8    -0.706933106573E+03    0.16766E-03   -0.96890E-05  8435   0.166E-02    0.100E-01
RMM:   9    -0.706932950490E+03    0.15608E-03   -0.36201E-05  8101   0.121E-02    0.816E-02
RMM:  10    -0.706932970899E+03   -0.20410E-04   -0.95776E-06  6526   0.588E-03
  29 F= -.70693297E+03 E0= -.70629251E+03  d E =-.375484E-02  mag=    -0.0055
       N       E                     dE             d eps       ncg     rms          rms(c)
DAV:   1    -0.706933936620E+03   -0.98613E-03   -0.10014E-01 15552   0.378E-01    0.120E-01
RMM:   2    -0.706934052282E+03   -0.11566E-03   -0.16920E-03 14620   0.805E-02    0.268E-01
RMM:   3    -0.706934441642E+03   -0.38936E-03   -0.47627E-04 12273   0.381E-02    0.398E-01
RMM:   4    -0.706933781983E+03    0.65966E-03   -0.12718E-04  9011   0.220E-02    0.235E-01
RMM:   5    -0.706933530101E+03    0.25188E-03   -0.41649E-05  8313   0.130E-02    0.221E-01
RMM:   6    -0.706933419436E+03    0.11067E-03   -0.16759E-05  7637   0.742E-03    0.216E-01
RMM:   7    -0.706933803236E+03   -0.38380E-03   -0.28359E-05  7691   0.848E-03    0.232E-01
RMM:   8    -0.706934139925E+03   -0.33669E-03   -0.37339E-05  7872   0.927E-03    0.233E-01
RMM:   9    -0.706934376522E+03   -0.23660E-03   -0.44124E-05  8036   0.957E-03    0.216E-01
RMM:  10    -0.706934611928E+03   -0.23541E-03   -0.17187E-04  9005   0.171E-02    0.188E-01
RMM:  11    -0.706934470291E+03    0.14164E-03   -0.11763E-04  8697   0.173E-02    0.182E-01
RMM:  12    -0.706934464966E+03    0.53245E-05   -0.48705E-05  8366   0.144E-02
  30 F= -.70693446E+03 E0= -.70629429E+03  d E =-.524890E-02  mag=     0.0011
       N       E                     dE             d eps       ncg     rms          rms(c)
DAV:   1    -0.706938337285E+03   -0.38670E-02   -0.18123E-01 15456   0.498E-01    0.159E-01
RMM:   2    -0.706945620580E+03   -0.72833E-02   -0.33635E-03 14855   0.107E-01    0.108E+00
RMM:   3    -0.706939538474E+03    0.60821E-02   -0.10380E-03 13868   0.614E-02    0.497E-01
RMM:   4    -0.706938778073E+03    0.76040E-03   -0.31009E-04 10699   0.361E-02    0.209E-01
RMM:   5    -0.706938584227E+03    0.19385E-03   -0.98137E-05  8597   0.193E-02    0.165E-01
RMM:   6    -0.706938563154E+03    0.21073E-04   -0.75799E-05  8399   0.156E-02    0.152E-01
RMM:   7    -0.706938436470E+03    0.12668E-03   -0.82116E-05  8369   0.156E-02    0.125E-01
RMM:   8    -0.706938284859E+03    0.15161E-03   -0.49936E-05  8119   0.127E-02    0.103E-01
RMM:   9    -0.706938234424E+03    0.50436E-04   -0.17341E-05  7357   0.768E-03
  31 F= -.70693823E+03 E0= -.70629744E+03  d E =-.376946E-02  mag=     0.0029
       N       E                     dE             d eps       ncg     rms          rms(c)
DAV:   1    -0.706938723052E+03   -0.43819E-03   -0.60448E-02 15616   0.287E-01    0.122E-01
RMM:   2    -0.706943150315E+03   -0.44273E-02   -0.12229E-03 14577   0.636E-02    0.879E-01
RMM:   3    -0.706938837732E+03    0.43126E-02   -0.44513E-04 12121   0.420E-02    0.311E-01
RMM:   4    -0.706938654213E+03    0.18352E-03   -0.13855E-04  8852   0.247E-02    0.184E-01
RMM:   5    -0.706938506367E+03    0.14785E-03   -0.40262E-05  8156   0.134E-02    0.165E-01
RMM:   6    -0.706938496697E+03    0.96705E-05   -0.12065E-05  6968   0.642E-03    0.161E-01
RMM:   7    -0.706938711735E+03   -0.21504E-03   -0.15524E-05  7164   0.632E-03    0.257E-01
RMM:   8    -0.706938813138E+03   -0.10140E-03   -0.33356E-05  7835   0.992E-03    0.266E-01
RMM:   9    -0.706938774519E+03    0.38619E-04   -0.43024E-05  7791   0.104E-02
  32 F= -.70693877E+03 E0= -.70629858E+03  d E =-.430955E-02  mag=     0.0027
       N       E                     dE             d eps       ncg     rms          rms(c)
DAV:   1    -0.706939085648E+03   -0.27251E-03   -0.32695E-03 15440   0.721E-02    0.172E-01
RMM:   2    -0.706980786285E+03   -0.41701E-01   -0.30307E-03 14380   0.691E-02    0.267E+00
RMM:   3    -0.706938307647E+03    0.42479E-01   -0.14666E-03 13901   0.883E-02    0.378E-01
RMM:   4    -0.706938975371E+03   -0.66772E-03   -0.31019E-04 10396   0.352E-02    0.298E-01
RMM:   5    -0.706938997292E+03   -0.21920E-04   -0.13729E-04  8569   0.206E-02    0.302E-01
RMM:   6    -0.706938706458E+03    0.29083E-03   -0.71367E-05  8232   0.150E-02    0.254E-01
RMM:   7    -0.706939095330E+03   -0.38887E-03   -0.36521E-05  7620   0.104E-02    0.304E-01
RMM:   8    -0.706939210759E+03   -0.11543E-03   -0.16180E-05  7217   0.716E-03    0.299E-01
RMM:   9    -0.706939210922E+03   -0.16351E-06   -0.31832E-04  9724   0.220E-02
  33 F= -.70693921E+03 E0= -.70629625E+03  d E =-.474596E-02  mag=    -0.0003
       N       E                     dE             d eps       ncg     rms          rms(c)
DAV:   1    -0.706940724024E+03   -0.15133E-02   -0.86048E-02 15392   0.380E-01    0.232E-01
RMM:   2    -0.706981053643E+03   -0.40330E-01   -0.52533E-03 14893   0.110E-01    0.261E+00
RMM:   3    -0.706940664041E+03    0.40390E-01   -0.21154E-03 14530   0.991E-02    0.440E-01
RMM:   4    -0.706940751396E+03   -0.87355E-04   -0.58728E-04 12593   0.488E-02    0.211E-01
RMM:   5    -0.706940759011E+03   -0.76145E-05   -0.17134E-04  8929   0.238E-02    0.144E-01
RMM:   6    -0.706940706026E+03    0.52985E-04   -0.72467E-05  8226   0.151E-02    0.141E-01
RMM:   7    -0.706940650165E+03    0.55860E-04   -0.38598E-05  8030   0.120E-02    0.914E-02
RMM:   8    -0.706940603369E+03    0.46796E-04   -0.20691E-05  7666   0.869E-03
  34 F= -.70694060E+03 E0= -.70629947E+03  d E =-.139245E-02  mag=    -0.0025
       N       E                     dE             d eps       ncg     rms          rms(c)
DAV:   1    -0.706940499106E+03    0.15106E-03   -0.71693E-05  9824   0.207E-02    0.983E-02
RMM:   2    -0.706947160835E+03   -0.66617E-02   -0.58130E-04 12594   0.326E-02    0.108E+00
RMM:   3    -0.706940242092E+03    0.69187E-02   -0.38465E-04 11204   0.417E-02    0.234E-01
RMM:   4    -0.706940251626E+03   -0.95341E-05   -0.98712E-05  8314   0.217E-02    0.118E-01
RMM:   5    -0.706940197353E+03    0.54273E-04   -0.23222E-05  7806   0.105E-02    0.118E-01
RMM:   6    -0.706940304258E+03   -0.10690E-03   -0.12607E-05  6858   0.640E-03    0.733E-02
RMM:   7    -0.706940534976E+03   -0.23072E-03   -0.26910E-05  7500   0.757E-03    0.817E-02
RMM:   8    -0.706940727140E+03   -0.19216E-03   -0.55171E-05  7828   0.941E-03    0.715E-02
RMM:   9    -0.706940766817E+03   -0.39677E-04   -0.19273E-05  7375   0.736E-03
  35 F= -.70694077E+03 E0= -.70629943E+03  d E =-.155589E-02  mag=     0.0005
       N       E                     dE             d eps       ncg     rms          rms(c)
DAV:   1    -0.706941495231E+03   -0.76809E-03   -0.19483E-02 15536   0.184E-01    0.751E-02
RMM:   2    -0.706943818884E+03   -0.23237E-02   -0.57308E-04 12930   0.440E-02    0.634E-01
RMM:   3    -0.706941618490E+03    0.22004E-02   -0.20109E-04  9247   0.295E-02    0.219E-01
RMM:   4    -0.706941611188E+03    0.73020E-05   -0.58909E-05  8084   0.187E-02    0.119E-01
RMM:   5    -0.706941518527E+03    0.92660E-04   -0.17281E-05  7806   0.875E-03    0.636E-02
RMM:   6    -0.706941535607E+03   -0.17079E-04   -0.11724E-05  7162   0.672E-03    0.753E-02
RMM:   7    -0.706941504601E+03    0.31006E-04   -0.99527E-06  7261   0.602E-03    0.356E-02
RMM:   8    -0.706941499669E+03    0.49324E-05   -0.90932E-06  6988   0.534E-03
  36 F= -.70694150E+03 E0= -.70629987E+03  d E =-.732852E-03  mag=     0.0010
       N       E                     dE             d eps       ncg     rms          rms(c)
DAV:   1    -0.706941557716E+03   -0.53115E-04   -0.32111E-03 15408   0.749E-02    0.543E-02
RMM:   2    -0.706944238882E+03   -0.26812E-02   -0.24871E-04 10020   0.236E-02    0.666E-01
RMM:   3    -0.706941378750E+03    0.28601E-02   -0.15309E-04  8316   0.270E-02    0.951E-02
RMM:   4    -0.706941529464E+03   -0.15071E-03   -0.39338E-05  8025   0.140E-02    0.668E-02
RMM:   5    -0.706941487174E+03    0.42290E-04   -0.10009E-05  7311   0.699E-03    0.467E-02
RMM:   6    -0.706941477457E+03    0.97162E-05   -0.21724E-06  4354   0.342E-03    0.432E-02
RMM:   7    -0.706941497912E+03   -0.20455E-04   -0.75297E-07  2786   0.285E-03    0.609E-02
RMM:   8    -0.706941537780E+03   -0.39868E-04   -0.50082E-06  5288   0.397E-03
  37 F= -.70694154E+03 E0= -.70629987E+03  d E =-.770963E-03  mag=     0.0008
       N       E                     dE             d eps       ncg     rms          rms(c)
DAV:   1    -0.706942044919E+03   -0.54701E-03   -0.21235E-02 15376   0.189E-01    0.540E-02
RMM:   2    -0.706942140124E+03   -0.95205E-04   -0.37110E-04 11205   0.387E-02    0.126E-01
RMM:   3    -0.706942078382E+03    0.61742E-04   -0.78489E-05  8117   0.178E-02    0.801E-02
RMM:   4    -0.706942205940E+03   -0.12756E-03   -0.32067E-05  7915   0.108E-02    0.175E-01
RMM:   5    -0.706941995617E+03    0.21032E-03   -0.23068E-05  7844   0.979E-03    0.533E-02
RMM:   6    -0.706941950195E+03    0.45421E-04   -0.15414E-05  7563   0.695E-03    0.525E-02
RMM:   7    -0.706941910946E+03    0.39250E-04   -0.70461E-06  6573   0.521E-03    0.403E-02
RMM:   8    -0.706941939714E+03   -0.28768E-04   -0.19845E-06  4026   0.353E-03
  38 F= -.70694194E+03 E0= -.70630011E+03  d E =-.401934E-03  mag=     0.0015
       N       E                     dE             d eps       ncg     rms          rms(c)
DAV:   1    -0.706941997189E+03   -0.86243E-04   -0.14370E-03 14832   0.498E-02    0.625E-02
RMM:   2    -0.706942385678E+03   -0.38849E-03   -0.16717E-04  8940   0.197E-02    0.308E-01
RMM:   3    -0.706941844060E+03    0.54162E-03   -0.88728E-05  8066   0.214E-02    0.585E-02
RMM:   4    -0.706941852254E+03   -0.81941E-05   -0.14287E-05  7217   0.721E-03    0.495E-02
RMM:   5    -0.706941891531E+03   -0.39276E-04   -0.38309E-06  5320   0.414E-03    0.702E-02
RMM:   6    -0.706941916968E+03   -0.25438E-04   -0.41800E-06  5390   0.404E-03    0.447E-02
RMM:   7    -0.706942049802E+03   -0.13283E-03   -0.35939E-05  7678   0.832E-03    0.736E-02
RMM:   8    -0.706942107917E+03   -0.58115E-04   -0.23687E-05  7606   0.774E-03
  39 F= -.70694211E+03 E0= -.70629997E+03  d E =-.570137E-03  mag=    -0.0001
       N       E                     dE             d eps       ncg     rms          rms(c)
DAV:   1    -0.706942335707E+03   -0.28590E-03   -0.14507E-02 15504   0.157E-01    0.437E-02
RMM:   2    -0.706942780535E+03   -0.44483E-03   -0.31710E-04 10381   0.351E-02    0.278E-01
RMM:   3    -0.706942337828E+03    0.44271E-03   -0.74791E-05  8158   0.183E-02    0.567E-02
RMM:   4    -0.706942390223E+03   -0.52395E-04   -0.31500E-05  7925   0.116E-02    0.913E-02
RMM:   5    -0.706942363531E+03    0.26692E-04   -0.93238E-06  7254   0.678E-03    0.570E-02
RMM:   6    -0.706942351416E+03    0.12114E-04   -0.66394E-06  6812   0.474E-03    0.598E-02
RMM:   7    -0.706942335535E+03    0.15882E-04   -0.62121E-06  6656   0.477E-03    0.346E-02
RMM:   8    -0.706942323821E+03    0.11714E-04   -0.30309E-06  4750   0.373E-03
  40 F= -.70694232E+03 E0= -.70630032E+03  d E =-.215904E-03  mag=    -0.0003
       N       E                     dE             d eps       ncg     rms          rms(c)
DAV:   1    -0.706942321105E+03    0.14430E-04   -0.19382E-04 12016   0.188E-02    0.292E-02
RMM:   2    -0.706942466344E+03   -0.14524E-03   -0.27448E-05  7849   0.914E-03    0.165E-01
RMM:   3    -0.706942318906E+03    0.14744E-03   -0.20586E-05  7641   0.945E-03    0.101E-01
RMM:   4    -0.706942292813E+03    0.26093E-04   -0.58409E-06  6456   0.563E-03    0.592E-02
RMM:   5    -0.706942306978E+03   -0.14165E-04   -0.98703E-07  3320   0.311E-03    0.725E-02
RMM:   6    -0.706942317573E+03   -0.10595E-04   -0.29100E-07  2060   0.277E-03    0.792E-02
RMM:   7    -0.706942344653E+03   -0.27079E-04   -0.15968E-06  3320   0.325E-03    0.904E-02
RMM:   8    -0.706942374713E+03   -0.30061E-04   -0.15214E-05  6899   0.579E-03
  41 F= -.70694237E+03 E0= -.70630073E+03  d E =-.266796E-03  mag=     0.0001
       N       E                     dE             d eps       ncg     rms          rms(c)
DAV:   1    -0.706942496368E+03   -0.15172E-03   -0.94174E-03 15184   0.123E-01    0.463E-02
RMM:   2    -0.706943601751E+03   -0.11054E-02   -0.30165E-04 10469   0.307E-02    0.456E-01
RMM:   3    -0.706942453517E+03    0.11482E-02   -0.88967E-05  8066   0.214E-02    0.745E-02
RMM:   4    -0.706942522950E+03   -0.69433E-04   -0.23809E-05  7845   0.110E-02    0.612E-02
RMM:   5    -0.706942578311E+03   -0.55361E-04   -0.11418E-05  6969   0.605E-03    0.110E-01
RMM:   6    -0.706942542597E+03    0.35714E-04   -0.44510E-06  6106   0.468E-03    0.890E-02
RMM:   7    -0.706942506615E+03    0.35982E-04   -0.87994E-06  7204   0.490E-03    0.278E-02
RMM:   8    -0.706942514030E+03   -0.74147E-05   -0.31973E-06  5758   0.408E-03
  42 F= -.70694251E+03 E0= -.70630054E+03  d E =-.139316E-03  mag=     0.0003
       N       E                     dE             d eps       ncg     rms          rms(c)
DAV:   1    -0.706942515471E+03   -0.88558E-05   -0.17121E-05  8720   0.724E-03    0.121E-02
RMM:   2    -0.706942530013E+03   -0.14542E-04   -0.57670E-06  6752   0.542E-03    0.589E-02
RMM:   3    -0.706942525989E+03    0.40242E-05   -0.29052E-06  5064   0.381E-03    0.588E-02
RMM:   4    -0.706942510307E+03    0.15682E-04   -0.70513E-07  3174   0.303E-03    0.271E-02
RMM:   5    -0.706942505445E+03    0.48614E-05   -0.37830E-08  1534   0.242E-03    0.234E-02
RMM:   6    -0.706942501504E+03    0.39412E-05   -0.13017E-08  1412   0.237E-03    0.213E-02
RMM:   7    -0.706942505868E+03   -0.43638E-05   -0.21244E-09  1295   0.232E-03    0.234E-02
RMM:   8    -0.706942520184E+03   -0.14316E-04   -0.45586E-08  1397   0.229E-03
  43 F= -.70694252E+03 E0= -.70630036E+03  d E =-.145471E-03  mag=     0.0000
       N       E                     dE             d eps       ncg     rms          rms(c)
DAV:   1    -0.706942652760E+03   -0.14689E-03   -0.98445E-03 15392   0.117E-01    0.342E-02
RMM:   2    -0.706943167030E+03   -0.51427E-03   -0.19981E-04  8971   0.257E-02    0.286E-01
RMM:   3    -0.706942622691E+03    0.54434E-03   -0.52652E-05  7976   0.160E-02    0.545E-02
RMM:   4    -0.706942658737E+03   -0.36046E-04   -0.14351E-05  7365   0.831E-03    0.243E-02
RMM:   5    -0.706942677322E+03   -0.18584E-04   -0.82928E-06  7189   0.559E-03    0.606E-02
RMM:   6    -0.706942674865E+03    0.24562E-05   -0.48636E-06  6261   0.451E-03    0.593E-02
RMM:   7    -0.706942649004E+03    0.25861E-04   -0.74410E-06  6777   0.467E-03    0.284E-02
RMM:   8    -0.706942641460E+03    0.75436E-05   -0.29548E-06  5146   0.382E-03
  44 F= -.70694264E+03 E0= -.70630059E+03  d E =-.121276E-03  mag=     0.0005
