       N       E                     dE             d eps       ncg     rms          rms(c)
DAV:   1     0.901554170587E+04    0.90155E+04   -0.34261E+05 24880   0.112E+03
DAV:   2     0.779892897310E+03   -0.82356E+04   -0.74244E+04 31024   0.304E+02
DAV:   3    -0.911350847579E+03   -0.16912E+04   -0.16689E+04 29584   0.149E+02
DAV:   4    -0.996059342722E+03   -0.84708E+02   -0.84123E+02 33328   0.410E+01
DAV:   5    -0.999426665609E+03   -0.33673E+01   -0.33578E+01 39760   0.650E+00    0.176E+02
RMM:   6    -0.945302650015E+03    0.54124E+02   -0.27775E+03 27039   0.918E+01    0.355E+02
RMM:   7    -0.731095733610E+03    0.21421E+03   -0.33218E+02 24337   0.305E+01    0.211E+02
RMM:   8    -0.907203685040E+03   -0.17611E+03   -0.31131E+02 24394   0.278E+01    0.215E+02
RMM:   9    -0.662534068799E+03    0.24467E+03   -0.16300E+02 24337   0.205E+01    0.146E+02
RMM:  10    -0.556763970166E+03    0.10577E+03   -0.78619E+01 24356   0.151E+01    0.839E+01
RMM:  11    -0.533690277704E+03    0.23074E+02   -0.30619E+01 24384   0.858E+00    0.820E+01
RMM:  12    -0.528206350219E+03    0.54839E+01   -0.15361E+01 24589   0.642E+00    0.742E+01
RMM:  13    -0.522295914055E+03    0.59104E+01   -0.15960E+01 24528   0.639E+00    0.640E+01
RMM:  14    -0.513620997042E+03    0.86749E+01   -0.13052E+01 24729   0.590E+00    0.516E+01
RMM:  15    -0.498237850786E+03    0.15383E+02   -0.95037E+00 24378   0.485E+00    0.448E+01
RMM:  16    -0.489483856283E+03    0.87540E+01   -0.45569E+00 24560   0.343E+00    0.393E+01
RMM:  17    -0.480321813342E+03    0.91620E+01   -0.30611E+00 25062   0.264E+00    0.369E+01
RMM:  18    -0.471085508510E+03    0.92363E+01   -0.26436E+00 24940   0.255E+00    0.346E+01
RMM:  19    -0.463300546798E+03    0.77850E+01   -0.20070E+00 25148   0.221E+00    0.315E+01
RMM:  20    -0.457158381199E+03    0.61422E+01   -0.17056E+00 25477   0.183E+00    0.302E+01
RMM:  21    -0.454137698717E+03    0.30207E+01   -0.12007E+00 25554   0.168E+00    0.297E+01
RMM:  22    -0.452018787725E+03    0.21189E+01   -0.12428E+00 26054   0.174E+00    0.282E+01
RMM:  23    -0.456560740896E+03   -0.45420E+01   -0.14218E+00 27017   0.183E+00    0.276E+01
RMM:  24    -0.462481789641E+03   -0.59210E+01   -0.15532E+00 27528   0.193E+00    0.270E+01
RMM:  25    -0.471806706494E+03   -0.93249E+01   -0.16348E+00 27587   0.193E+00    0.259E+01
RMM:  26    -0.489305423405E+03   -0.17499E+02   -0.34868E+00 29772   0.256E+00    0.259E+01
RMM:  27    -0.507349243965E+03   -0.18044E+02   -0.40773E+00 30178   0.265E+00    0.247E+01
RMM:  28    -0.533170442620E+03   -0.25821E+02   -0.89388E+00 33489   0.364E+00    0.242E+01
RMM:  29    -0.555084134693E+03   -0.21914E+02   -0.89224E+00 33136   0.351E+00    0.235E+01
RMM:  30    -0.571979783478E+03   -0.16896E+02   -0.62527E+00 32446   0.301E+00    0.232E+01
RMM:  31    -0.589369459885E+03   -0.17390E+02   -0.67200E+00 33073   0.322E+00    0.223E+01
RMM:  32    -0.604216521926E+03   -0.14847E+02   -0.80471E+00 34528   0.347E+00    0.214E+01
RMM:  33    -0.614559940501E+03   -0.10343E+02   -0.66442E+00 33260   0.307E+00    0.203E+01
RMM:  34    -0.619354403881E+03   -0.47945E+01   -0.27497E+00 32158   0.218E+00    0.188E+01
RMM:  35    -0.621467343016E+03   -0.21129E+01   -0.90276E-01 28969   0.137E+00    0.175E+01
RMM:  36    -0.624003474982E+03   -0.25361E+01   -0.58220E-01 27612   0.109E+00    0.165E+01
RMM:  37    -0.627718878309E+03   -0.37154E+01   -0.64596E-01 28570   0.112E+00    0.156E+01
RMM:  38    -0.633229692559E+03   -0.55108E+01   -0.88217E-01 30438   0.124E+00    0.141E+01
RMM:  39    -0.637020032990E+03   -0.37903E+01   -0.76002E-01 30465   0.114E+00    0.138E+01
RMM:  40    -0.641279641340E+03   -0.42596E+01   -0.13880E+00 32256   0.140E+00    0.140E+01
RMM:  41    -0.644339531115E+03   -0.30599E+01   -0.12581E+00 31357   0.127E+00    0.138E+01
RMM:  42    -0.647079241060E+03   -0.27397E+01   -0.15087E+00 32198   0.137E+00    0.152E+01
RMM:  43    -0.648892617455E+03   -0.18134E+01   -0.79474E-01 30638   0.106E+00    0.148E+01
RMM:  44    -0.651352596592E+03   -0.24600E+01   -0.44404E-01 29590   0.807E-01    0.151E+01
RMM:  45    -0.653736311018E+03   -0.23837E+01   -0.47245E-01 29819   0.817E-01    0.151E+01
RMM:  46    -0.656416619260E+03   -0.26803E+01   -0.10123E+00 31982   0.113E+00    0.157E+01
RMM:  47    -0.658153466513E+03   -0.17368E+01   -0.67840E-01 30886   0.980E-01    0.148E+01
RMM:  48    -0.659212635151E+03   -0.10592E+01   -0.28304E-01 28404   0.685E-01    0.135E+01
RMM:  49    -0.660722290926E+03   -0.15097E+01   -0.32018E-01 29249   0.663E-01    0.121E+01
RMM:  50    -0.662482438061E+03   -0.17601E+01   -0.26126E-01 29379   0.609E-01    0.105E+01
RMM:  51    -0.664503954794E+03   -0.20215E+01   -0.99414E-01 36091   0.131E+00    0.741E+00
RMM:  52    -0.665744199503E+03   -0.12402E+01   -0.42616E-01 31612   0.781E-01    0.660E+00
RMM:  53    -0.667237244662E+03   -0.14930E+01   -0.40924E-01 30532   0.647E-01    0.540E+00
RMM:  54    -0.668809364193E+03   -0.15721E+01   -0.13657E-01 27405   0.433E-01    0.423E+00
RMM:  55    -0.669175385964E+03   -0.36602E+00   -0.49631E-02 25468   0.301E-01    0.376E+00
RMM:  56    -0.669599923805E+03   -0.42454E+00   -0.10341E-01 29100   0.407E-01    0.360E+00
RMM:  57    -0.669528438934E+03    0.71485E-01   -0.12802E-01 28269   0.380E-01    0.303E+00
RMM:  58    -0.669543188900E+03   -0.14750E-01   -0.82952E-02 28382   0.355E-01    0.286E+00
RMM:  59    -0.669310931532E+03    0.23226E+00   -0.43883E-02 27469   0.263E-01    0.252E+00
RMM:  60    -0.669302420032E+03    0.85115E-02   -0.43268E-02 27677   0.246E-01    0.230E+00
RMM:  61    -0.669312813389E+03   -0.10393E-01   -0.43910E-02 27546   0.298E-01    0.220E+00
RMM:  62    -0.669564212602E+03   -0.25140E+00   -0.29523E-02 26743   0.230E-01    0.167E+00
RMM:  63    -0.669702994767E+03   -0.13878E+00   -0.12617E-02 25424   0.139E-01    0.145E+00
RMM:  64    -0.669841099475E+03   -0.13810E+00   -0.86228E-03 25117   0.131E-01    0.132E+00
RMM:  65    -0.669952471038E+03   -0.11137E+00   -0.92326E-03 26147   0.118E-01    0.121E+00
RMM:  66    -0.669986686172E+03   -0.34215E-01   -0.42140E-03 24422   0.899E-02    0.117E+00
RMM:  67    -0.669993431355E+03   -0.67452E-02   -0.28846E-03 23524   0.754E-02    0.112E+00
RMM:  68    -0.670087184447E+03   -0.93753E-01   -0.37517E-03 25393   0.650E-02    0.107E+00
RMM:  69    -0.670204693399E+03   -0.11751E+00   -0.39507E-03 26302   0.664E-02    0.104E+00
RMM:  70    -0.670217074174E+03   -0.12381E-01   -0.37514E-03 26353   0.657E-02    0.999E-01
RMM:  71    -0.670137379642E+03    0.79695E-01   -0.35295E-03 26345   0.647E-02    0.993E-01
RMM:  72    -0.669935868266E+03    0.20151E+00   -0.48805E-03 27835   0.716E-02    0.954E-01
RMM:  73    -0.670055556330E+03   -0.11969E+00   -0.44978E-03 28110   0.747E-02    0.907E-01
RMM:  74    -0.670104800087E+03   -0.49244E-01   -0.39499E-03 28445   0.712E-02    0.842E-01
RMM:  75    -0.670128960123E+03   -0.24160E-01   -0.26158E-03 26911   0.634E-02    0.766E-01
RMM:  76    -0.670058708056E+03    0.70252E-01   -0.17891E-03 25437   0.600E-02    0.721E-01
RMM:  77    -0.670033171612E+03    0.25536E-01   -0.24399E-03 26632   0.674E-02    0.632E-01
RMM:  78    -0.670096480479E+03   -0.63309E-01   -0.40152E-03 28739   0.729E-02    0.488E-01
RMM:  79    -0.670236213830E+03   -0.13973E+00   -0.50050E-03 28809   0.717E-02    0.450E-01
RMM:  80    -0.670309202055E+03   -0.72988E-01   -0.42745E-03 27164   0.642E-02
   1 F= -.67030920E+03 E0= -.66989609E+03  d E =-.670309E+03  mag=    80.3323
       N       E                     dE             d eps       ncg     rms          rms(c)
DAV:   1    -0.669766435666E+03    0.46978E+00   -0.14747E+02 28112   0.114E+01    0.391E+00
RMM:   2    -0.670222938972E+03   -0.45650E+00   -0.41301E+00 24321   0.205E+00    0.282E+00
RMM:   3    -0.670380854590E+03   -0.15792E+00   -0.63139E-01 24375   0.854E-01    0.238E+00
RMM:   4    -0.670400062885E+03   -0.19208E-01   -0.11367E-01 24446   0.481E-01    0.159E+00
RMM:   5    -0.670444579253E+03   -0.44516E-01   -0.43587E-02 23898   0.289E-01    0.115E+00
RMM:   6    -0.670493981454E+03   -0.49402E-01   -0.18636E-02 23881   0.165E-01    0.734E-01
RMM:   7    -0.670550391694E+03   -0.56410E-01   -0.10805E-02 24027   0.140E-01    0.908E-01
RMM:   8    -0.670567787922E+03   -0.17396E-01   -0.44970E-03 24017   0.929E-02    0.451E-01
RMM:   9    -0.670580009584E+03   -0.12222E-01   -0.21598E-03 24313   0.516E-02    0.235E-01
RMM:  10    -0.670595470320E+03   -0.15461E-01   -0.89494E-04 22581   0.360E-02    0.193E-01
RMM:  11    -0.670613229687E+03   -0.17759E-01   -0.36383E-04 19597   0.252E-02    0.134E-01
RMM:  12    -0.670636670803E+03   -0.23441E-01   -0.27544E-04 18140   0.192E-02    0.131E-01
RMM:  13    -0.670663850697E+03   -0.27180E-01   -0.23878E-04 17154   0.193E-02    0.117E-01
RMM:  14    -0.670678679304E+03   -0.14829E-01   -0.12873E-04 15347   0.147E-02    0.105E-01
RMM:  15    -0.670694076288E+03   -0.15397E-01   -0.14183E-04 15955   0.133E-02    0.955E-02
RMM:  16    -0.670706021448E+03   -0.11945E-01   -0.15930E-04 15966   0.131E-02    0.933E-02
RMM:  17    -0.670717947422E+03   -0.11926E-01   -0.21846E-04 16678   0.144E-02    0.862E-02
RMM:  18    -0.670728600001E+03   -0.10653E-01   -0.10309E-04 14840   0.113E-02    0.796E-02
RMM:  19    -0.670737510562E+03   -0.89106E-02   -0.51766E-05 13961   0.830E-03    0.771E-02
RMM:  20    -0.670749734646E+03   -0.12224E-01   -0.36789E-05 13825   0.727E-03    0.747E-02
RMM:  21    -0.670769001406E+03   -0.19267E-01   -0.38582E-05 13970   0.736E-03    0.717E-02
RMM:  22    -0.670796172864E+03   -0.27171E-01   -0.55797E-05 14455   0.827E-03    0.689E-02
RMM:  23    -0.670818137839E+03   -0.21965E-01   -0.49901E-05 14138   0.822E-03    0.631E-02
RMM:  24    -0.670838604125E+03   -0.20466E-01   -0.32961E-05 13872   0.763E-03    0.589E-02
RMM:  25    -0.670864163630E+03   -0.25560E-01   -0.31412E-05 13643   0.743E-03    0.564E-02
RMM:  26    -0.670877512451E+03   -0.13349E-01   -0.25294E-05 12880   0.664E-03    0.515E-02
RMM:  27    -0.670891641839E+03   -0.14129E-01   -0.18382E-05 12752   0.520E-03    0.468E-02
RMM:  28    -0.670907986979E+03   -0.16345E-01   -0.16150E-05 12556   0.474E-03    0.444E-02
RMM:  29    -0.670927460172E+03   -0.19473E-01   -0.19197E-05 13318   0.532E-03    0.406E-02
RMM:  30    -0.670943683417E+03   -0.16223E-01   -0.16124E-05 13070   0.525E-03    0.384E-02
RMM:  31    -0.670956812842E+03   -0.13129E-01   -0.12842E-05 12680   0.485E-03    0.347E-02
RMM:  32    -0.670973329453E+03   -0.16517E-01   -0.16002E-05 13004   0.497E-03    0.322E-02
RMM:  33    -0.670987952116E+03   -0.14623E-01   -0.15865E-05 12924   0.491E-03    0.283E-02
RMM:  34    -0.670999216081E+03   -0.11264E-01   -0.18474E-05 12850   0.486E-03    0.249E-02
RMM:  35    -0.671005598414E+03   -0.63823E-02   -0.11010E-05 12073   0.438E-03    0.228E-02
RMM:  36    -0.671011276385E+03   -0.56780E-02   -0.11534E-05 11836   0.400E-03    0.210E-02
RMM:  37    -0.671014715734E+03   -0.34393E-02   -0.10582E-05 11413   0.390E-03    0.192E-02
RMM:  38    -0.671016626752E+03   -0.19110E-02   -0.88470E-06 11341   0.371E-03    0.175E-02
RMM:  39    -0.671017934111E+03   -0.13074E-02   -0.74001E-06 11006   0.350E-03    0.152E-02
RMM:  40    -0.671018928478E+03   -0.99437E-03   -0.51530E-06 10398   0.319E-03    0.137E-02
RMM:  41    -0.671019928974E+03   -0.10005E-02   -0.36067E-06  9999   0.296E-03    0.130E-02
RMM:  42    -0.671021349616E+03   -0.14206E-02   -0.35512E-06 10727   0.300E-03    0.119E-02
RMM:  43    -0.671022939775E+03   -0.15902E-02   -0.28421E-06 10122   0.286E-03    0.102E-02
RMM:  44    -0.671024441885E+03   -0.15021E-02   -0.19845E-06  9033   0.259E-03    0.874E-03
RMM:  45    -0.671025777008E+03   -0.13351E-02   -0.23576E-06  8605   0.248E-03    0.752E-03
RMM:  46    -0.671027050964E+03   -0.12740E-02   -0.36087E-06  8993   0.261E-03    0.637E-03
RMM:  47    -0.671027713721E+03   -0.66276E-03   -0.31826E-06  8863   0.259E-03    0.571E-03
RMM:  48    -0.671028086854E+03   -0.37313E-03   -0.21002E-06  8211   0.248E-03    0.467E-03
RMM:  49    -0.671028224263E+03   -0.13741E-03   -0.16963E-06  7668   0.236E-03    0.440E-03
RMM:  50    -0.671028275659E+03   -0.51396E-04   -0.24335E-06  8423   0.246E-03
   2 F= -.67102828E+03 E0= -.67061360E+03  d E =-.719074E+00  mag=    79.9663
       N       E                     dE             d eps       ncg     rms          rms(c)
DAV:   1    -0.671035519053E+03   -0.72948E-02   -0.51056E-01 26448   0.668E-01    0.219E-01
RMM:   2    -0.671036490558E+03   -0.97150E-03   -0.10010E-02 22228   0.113E-01    0.148E-01
RMM:   3    -0.671036929009E+03   -0.43845E-03   -0.15195E-03 19896   0.475E-02    0.129E-01
RMM:   4    -0.671036961608E+03   -0.32598E-04   -0.41386E-04 16931   0.287E-02    0.999E-02
RMM:   5    -0.671036994815E+03   -0.33207E-04   -0.15013E-04 14695   0.183E-02    0.626E-02
RMM:   6    -0.671037027714E+03   -0.32899E-04   -0.60609E-05 13226   0.101E-02    0.381E-02
RMM:   7    -0.671037069986E+03   -0.42272E-04   -0.29998E-05 12841   0.853E-03    0.491E-02
RMM:   8    -0.671037076643E+03   -0.66576E-05   -0.11490E-05 12286   0.585E-03
   3 F= -.67103708E+03 E0= -.67062260E+03  d E =-.727875E+00  mag=    79.9656
       N       E                     dE             d eps       ncg     rms          rms(c)
DAV:   1    -0.671054716079E+03   -0.17646E-01   -0.45477E+00 26480   0.196E+00    0.658E-01
RMM:   2    -0.671062937242E+03   -0.82212E-02   -0.93330E-02 24025   0.321E-01    0.449E-01
RMM:   3    -0.671066521681E+03   -0.35844E-02   -0.13865E-02 23009   0.133E-01    0.377E-01
RMM:   4    -0.671066757269E+03   -0.23559E-03   -0.32675E-03 22503   0.770E-02    0.360E-01
RMM:   5    -0.671066609137E+03    0.14813E-03   -0.10860E-03 21029   0.458E-02    0.216E-01
RMM:   6    -0.671066576971E+03    0.32166E-04   -0.43902E-04 18680   0.288E-02    0.146E-01
RMM:   7    -0.671066601572E+03   -0.24601E-04   -0.27379E-04 17269   0.241E-02    0.104E-01
RMM:   8    -0.671066622612E+03   -0.21040E-04   -0.11998E-04 14675   0.169E-02
   4 F= -.67106662E+03 E0= -.67065127E+03  d E =-.295460E-01  mag=    79.9651
       N       E                     dE             d eps       ncg     rms          rms(c)
DAV:   1    -0.671067095202E+03   -0.49363E-03   -0.14765E-01 26320   0.354E-01    0.125E-01
RMM:   2    -0.671067403094E+03   -0.30789E-03   -0.30514E-03 20766   0.598E-02    0.974E-02
RMM:   3    -0.671067542969E+03   -0.13987E-03   -0.45707E-04 16890   0.268E-02    0.871E-02
RMM:   4    -0.671067538842E+03    0.41272E-05   -0.10825E-04 14226   0.159E-02    0.632E-02
RMM:   5    -0.671067549744E+03   -0.10902E-04   -0.35840E-05 13155   0.897E-03    0.413E-02
RMM:   6    -0.671067560871E+03   -0.11127E-04   -0.15472E-05 12214   0.650E-03    0.260E-02
RMM:   7    -0.671067575822E+03   -0.14951E-04   -0.97480E-06 11831   0.504E-03    0.192E-02
RMM:   8    -0.671067589214E+03   -0.13392E-04   -0.37810E-06 10554   0.360E-03
   5 F= -.67106759E+03 E0= -.67065254E+03  d E =-.305126E-01  mag=    79.9645
       N       E                     dE             d eps       ncg     rms          rms(c)
DAV:   1    -0.671133154973E+03   -0.65579E-01   -0.53482E-01 26432   0.835E-01    0.223E-01
RMM:   2    -0.671134519031E+03   -0.13641E-02   -0.13868E-02 23867   0.162E-01    0.169E-01
RMM:   3    -0.671134864265E+03   -0.34523E-03   -0.23535E-03 22269   0.690E-02    0.222E-01
RMM:   4    -0.671134618616E+03    0.24565E-03   -0.53725E-04 19519   0.370E-02    0.940E-02
RMM:   5    -0.671134601282E+03    0.17334E-04   -0.20627E-04 16487   0.196E-02    0.997E-02
RMM:   6    -0.671134553657E+03    0.47625E-04   -0.95531E-05 14544   0.162E-02    0.660E-02
RMM:   7    -0.671134554128E+03   -0.47125E-06   -0.47470E-05 13637   0.990E-03    0.303E-02
RMM:   8    -0.671134576657E+03   -0.22529E-04   -0.16596E-05 12843   0.671E-03
   6 F= -.67113458E+03 E0= -.67071945E+03  d E =-.669874E-01  mag=    79.9643
       N       E                     dE             d eps       ncg     rms          rms(c)
DAV:   1    -0.671213090358E+03   -0.78536E-01   -0.48178E+00 26192   0.250E+00    0.670E-01
RMM:   2    -0.671225095470E+03   -0.12005E-01   -0.12392E-01 24320   0.487E-01    0.502E-01
RMM:   3    -0.671227916493E+03   -0.28210E-02   -0.21502E-02 23965   0.209E-01    0.662E-01
RMM:   4    -0.671225944706E+03    0.19718E-02   -0.47362E-03 23519   0.111E-01    0.271E-01
RMM:   5    -0.671225905607E+03    0.39100E-04   -0.18432E-03 23303   0.548E-02    0.299E-01
RMM:   6    -0.671225467230E+03    0.43838E-03   -0.77850E-04 21169   0.425E-02    0.193E-01
RMM:   7    -0.671225412353E+03    0.54877E-04   -0.43991E-04 19190   0.262E-02    0.903E-02
RMM:   8    -0.671225499343E+03   -0.86989E-04   -0.15915E-04 15966   0.171E-02
   7 F= -.67122550E+03 E0= -.67081032E+03  d E =-.157910E+00  mag=    79.9652
       N       E                     dE             d eps       ncg     rms          rms(c)
DAV:   1    -0.671259729792E+03   -0.34317E-01   -0.93451E-01 27440   0.114E+00    0.280E-01
RMM:   2    -0.671261887351E+03   -0.21576E-02   -0.21758E-02 23964   0.213E-01    0.211E-01
RMM:   3    -0.671262396854E+03   -0.50950E-03   -0.37494E-03 22759   0.895E-02    0.220E-01
RMM:   4    -0.671262184070E+03    0.21278E-03   -0.88171E-04 21161   0.474E-02    0.101E-01
RMM:   5    -0.671262146609E+03    0.37461E-04   -0.33148E-04 17839   0.234E-02    0.758E-02
RMM:   6    -0.671262180567E+03   -0.33957E-04   -0.11610E-04 15227   0.151E-02    0.589E-02
RMM:   7    -0.671262303903E+03   -0.12334E-03   -0.67647E-05 14259   0.132E-02    0.604E-02
RMM:   8    -0.671262368245E+03   -0.64342E-04   -0.29275E-05 13406   0.878E-03
   8 F= -.67126237E+03 E0= -.67084749E+03  d E =-.368689E-01  mag=    79.9661
       N       E                     dE             d eps       ncg     rms          rms(c)
DAV:   1    -0.671264301400E+03   -0.19975E-02   -0.68779E-02 26720   0.310E-01    0.770E-02
RMM:   2    -0.671264513982E+03   -0.21258E-03   -0.16272E-03 21850   0.583E-02    0.721E-02
RMM:   3    -0.671264574064E+03   -0.60082E-04   -0.29090E-04 17068   0.256E-02    0.744E-02
RMM:   4    -0.671264568675E+03    0.53886E-05   -0.69634E-05 14106   0.146E-02    0.388E-02
RMM:   5    -0.671264589988E+03   -0.21312E-04   -0.20472E-05 13066   0.707E-03    0.283E-02
RMM:   6    -0.671264630390E+03   -0.40403E-04   -0.11081E-05 12294   0.560E-03    0.203E-02
RMM:   7    -0.671264705043E+03   -0.74652E-04   -0.77689E-06 11958   0.455E-03    0.154E-02
RMM:   8    -0.671264761708E+03   -0.56665E-04   -0.34535E-06 10525   0.344E-03
   9 F= -.67126476E+03 E0= -.67084991E+03  d E =-.392624E-01  mag=    79.9669
       N       E                     dE             d eps       ncg     rms          rms(c)
DAV:   1    -0.671288216811E+03   -0.23512E-01   -0.63067E-01 27040   0.905E-01    0.237E-01
RMM:   2    -0.671289770344E+03   -0.15535E-02   -0.14144E-02 23620   0.165E-01    0.161E-01
RMM:   3    -0.671290232575E+03   -0.46223E-03   -0.22799E-03 22049   0.678E-02    0.150E-01
RMM:   4    -0.671290203264E+03    0.29312E-04   -0.53941E-04 19469   0.362E-02    0.874E-02
RMM:   5    -0.671290207739E+03   -0.44755E-05   -0.19001E-04 15827   0.186E-02    0.585E-02
RMM:   6    -0.671290241010E+03   -0.33271E-04   -0.73489E-05 13987   0.122E-02    0.518E-02
RMM:   7    -0.671290297733E+03   -0.56722E-04   -0.37953E-05 13549   0.980E-03    0.551E-02
RMM:   8    -0.671290326477E+03   -0.28745E-04   -0.17486E-05 12881   0.685E-03
  10 F= -.67129033E+03 E0= -.67087563E+03  d E =-.255648E-01  mag=    79.9675
       N       E                     dE             d eps       ncg     rms          rms(c)
DAV:   1    -0.671291221340E+03   -0.92361E-03   -0.21104E-02 26784   0.166E-01    0.446E-02
RMM:   2    -0.671291311012E+03   -0.89672E-04   -0.49207E-04 18271   0.307E-02    0.386E-02
RMM:   3    -0.671291343809E+03   -0.32797E-04   -0.86208E-05 14200   0.143E-02    0.404E-02
RMM:   4    -0.671291348297E+03   -0.44880E-05   -0.20362E-05 13020   0.817E-03    0.195E-02
RMM:   5    -0.671291360941E+03   -0.12644E-04   -0.63755E-06 11511   0.399E-03    0.169E-02
RMM:   6    -0.671291375096E+03   -0.14155E-04   -0.35599E-06 10848   0.350E-03    0.116E-02
RMM:   7    -0.671291395592E+03   -0.20496E-04   -0.21169E-06  9513   0.279E-03    0.808E-03
RMM:   8    -0.671291407262E+03   -0.11670E-04   -0.69903E-07  7526   0.239E-03
  11 F= -.67129141E+03 E0= -.67087672E+03  d E =-.266456E-01  mag=    79.9681
       N       E                     dE             d eps       ncg     rms          rms(c)
DAV:   1    -0.671301080174E+03   -0.96846E-02   -0.28857E-01 26992   0.627E-01    0.159E-01
RMM:   2    -0.671301736018E+03   -0.65584E-03   -0.60571E-03 23301   0.110E-01    0.121E-01
RMM:   3    -0.671301966414E+03   -0.23040E-03   -0.96604E-04 20910   0.454E-02    0.107E-01
RMM:   4    -0.671301937313E+03    0.29101E-04   -0.22650E-04 16630   0.241E-02    0.588E-02
RMM:   5    -0.671301927110E+03    0.10203E-04   -0.84541E-05 14056   0.143E-02    0.494E-02
RMM:   6    -0.671301909419E+03    0.17691E-04   -0.34200E-05 13141   0.879E-03    0.265E-02
RMM:   7    -0.671301912980E+03   -0.35609E-05   -0.20614E-05 13091   0.698E-03    0.396E-02
RMM:   8    -0.671301907045E+03    0.59349E-05   -0.92566E-06 12361   0.544E-03
  12 F= -.67130191E+03 E0= -.67088718E+03  d E =-.104998E-01  mag=    79.9687
       N       E                     dE             d eps       ncg     rms          rms(c)
DAV:   1    -0.671301920529E+03   -0.75493E-05   -0.48362E-04 24448   0.265E-02    0.105E-02
RMM:   2    -0.671301925697E+03   -0.51679E-05   -0.15172E-05 12791   0.584E-03    0.169E-02
RMM:   3    -0.671301926837E+03   -0.11399E-05   -0.36064E-06 11021   0.378E-03    0.733E-03
RMM:   4    -0.671301931174E+03   -0.43372E-05   -0.48706E-07  6472   0.213E-03    0.522E-03
RMM:   5    -0.671301936949E+03   -0.57747E-05   -0.14309E-07  5555   0.198E-03    0.472E-03
RMM:   6    -0.671301945978E+03   -0.90292E-05   -0.43091E-08  5270   0.199E-03    0.438E-03
RMM:   7    -0.671301956047E+03   -0.10069E-04   -0.76414E-08  5454   0.205E-03    0.404E-03
RMM:   8    -0.671301966292E+03   -0.10245E-04   -0.76327E-08  5358   0.205E-03
  13 F= -.67130197E+03 E0= -.67088721E+03  d E =-.105590E-01  mag=    79.9694
       N       E                     dE             d eps       ncg     rms          rms(c)
DAV:   1    -0.671307625039E+03   -0.56690E-02   -0.13125E-01 26608   0.402E-01    0.132E-01
RMM:   2    -0.671308006932E+03   -0.38189E-03   -0.29537E-03 22417   0.776E-02    0.872E-02
RMM:   3    -0.671308110249E+03   -0.10332E-03   -0.47723E-04 18461   0.307E-02    0.806E-02
RMM:   4    -0.671308095407E+03    0.14842E-04   -0.11739E-04 14868   0.179E-02    0.523E-02
RMM:   5    -0.671308088481E+03    0.69253E-05   -0.42662E-05 13367   0.102E-02    0.459E-02
RMM:   6    -0.671308073378E+03    0.15104E-04   -0.16902E-05 12765   0.676E-03    0.237E-02
RMM:   7    -0.671308069778E+03    0.35996E-05   -0.12409E-05 12350   0.551E-03    0.226E-02
RMM:   8    -0.671308069231E+03    0.54715E-06   -0.49435E-06 11556   0.435E-03
  14 F= -.67130807E+03 E0= -.67089331E+03  d E =-.610294E-02  mag=    79.9700
       N       E                     dE             d eps       ncg     rms          rms(c)
DAV:   1    -0.671309096567E+03   -0.10268E-02   -0.99212E-02 26992   0.350E-01    0.115E-01
RMM:   2    -0.671309386233E+03   -0.28967E-03   -0.22412E-03 21948   0.675E-02    0.764E-02
RMM:   3    -0.671309459826E+03   -0.73594E-04   -0.36632E-04 17672   0.271E-02    0.687E-02
RMM:   4    -0.671309449113E+03    0.10713E-04   -0.92858E-05 14305   0.163E-02    0.411E-02
RMM:   5    -0.671309442194E+03    0.69197E-05   -0.31884E-05 12959   0.907E-03    0.335E-02
RMM:   6    -0.671309434960E+03    0.72340E-05   -0.13848E-05 12406   0.599E-03    0.228E-02
RMM:   7    -0.671309434271E+03    0.68871E-06   -0.86920E-06 12170   0.471E-03    0.243E-02
RMM:   8    -0.671309433621E+03    0.64960E-06   -0.32452E-06 11060   0.354E-03
  15 F= -.67130943E+03 E0= -.67089466E+03  d E =-.746733E-02  mag=    79.9706
       N       E                     dE             d eps       ncg     rms          rms(c)
DAV:   1    -0.671313005736E+03   -0.35715E-02   -0.14269E-01 26192   0.389E-01    0.156E-01
RMM:   2    -0.671313438854E+03   -0.43312E-03   -0.29375E-03 22460   0.720E-02    0.974E-02
RMM:   3    -0.671313564698E+03   -0.12584E-03   -0.45597E-04 18239   0.303E-02    0.921E-02
RMM:   4    -0.671313541507E+03    0.23191E-04   -0.13052E-04 15153   0.189E-02    0.479E-02
RMM:   5    -0.671313544808E+03   -0.33011E-05   -0.44362E-05 13352   0.104E-02    0.405E-02
RMM:   6    -0.671313539017E+03    0.57914E-05   -0.18117E-05 12644   0.681E-03    0.286E-02
RMM:   7    -0.671313539557E+03   -0.54017E-06   -0.11437E-05 12273   0.543E-03    0.235E-02
RMM:   8    -0.671313541050E+03   -0.14934E-05   -0.40878E-06 11089   0.386E-03
  16 F= -.67131354E+03 E0= -.67089880E+03  d E =-.410743E-02  mag=    79.9713
       N       E                     dE             d eps       ncg     rms          rms(c)
DAV:   1    -0.671313935738E+03   -0.39618E-03   -0.38142E-02 27344   0.201E-01    0.812E-02
RMM:   2    -0.671314061527E+03   -0.12579E-03   -0.79060E-04 19162   0.373E-02    0.519E-02
RMM:   3    -0.671314098218E+03   -0.36690E-04   -0.12528E-04 15168   0.165E-02    0.529E-02
RMM:   4    -0.671314093533E+03    0.46841E-05   -0.37336E-05 12983   0.105E-02    0.237E-02
RMM:   5    -0.671314101342E+03   -0.78087E-05   -0.11829E-05 12051   0.545E-03    0.212E-02
RMM:   6    -0.671314105786E+03   -0.44438E-05   -0.50054E-06 11130   0.396E-03    0.142E-02
RMM:   7    -0.671314113328E+03   -0.75419E-05   -0.28631E-06 10177   0.312E-03    0.140E-02
RMM:   8    -0.671314121250E+03   -0.79218E-05   -0.78217E-07  7796   0.250E-03
  17 F= -.67131412E+03 E0= -.67089939E+03  d E =-.468763E-02  mag=    79.9719
       N       E                     dE             d eps       ncg     rms          rms(c)
DAV:   1    -0.671316802548E+03   -0.26892E-02   -0.79334E-02 26208   0.326E-01    0.976E-02
RMM:   2    -0.671317022076E+03   -0.21953E-03   -0.15786E-03 21651   0.570E-02    0.665E-02
RMM:   3    -0.671317102975E+03   -0.80898E-04   -0.27817E-04 16832   0.243E-02    0.710E-02
RMM:   4    -0.671317091781E+03    0.11194E-04   -0.67797E-05 14008   0.141E-02    0.350E-02
RMM:   5    -0.671317104151E+03   -0.12370E-04   -0.25173E-05 12886   0.773E-03    0.324E-02
RMM:   6    -0.671317111764E+03   -0.76126E-05   -0.10291E-05 12176   0.547E-03    0.194E-02
RMM:   7    -0.671317123523E+03   -0.11759E-04   -0.67363E-06 11831   0.440E-03    0.173E-02
RMM:   8    -0.671317132893E+03   -0.93705E-05   -0.28102E-06 10421   0.337E-03
  18 F= -.67131713E+03 E0= -.67090239E+03  d E =-.301164E-02  mag=    79.9727
       N       E                     dE             d eps       ncg     rms          rms(c)
DAV:   1    -0.671317195789E+03   -0.72267E-04   -0.23833E-03 26240   0.567E-02    0.183E-02
RMM:   2    -0.671317214517E+03   -0.18728E-04   -0.52095E-05 14022   0.104E-02    0.172E-02
RMM:   3    -0.671317223338E+03   -0.88206E-05   -0.98451E-06 12225   0.577E-03    0.169E-02
RMM:   4    -0.671317228208E+03   -0.48704E-05   -0.21923E-06  9743   0.310E-03    0.643E-03
RMM:   5    -0.671317237846E+03   -0.96373E-05   -0.37110E-07  5839   0.211E-03    0.694E-03
RMM:   6    -0.671317247722E+03   -0.98762E-05   -0.84246E-08  5102   0.197E-03    0.537E-03
RMM:   7    -0.671317258255E+03   -0.10533E-04   -0.64393E-08  5030   0.194E-03    0.453E-03
RMM:   8    -0.671317268653E+03   -0.10399E-04   -0.78226E-08  5076   0.200E-03
  19 F= -.67131727E+03 E0= -.67090253E+03  d E =-.314740E-02  mag=    79.9734
       N       E                     dE             d eps       ncg     rms          rms(c)
DAV:   1    -0.671318610141E+03   -0.13519E-02   -0.31065E-02 26352   0.202E-01    0.705E-02
RMM:   2    -0.671318706186E+03   -0.96046E-04   -0.58599E-04 19329   0.357E-02    0.418E-02
RMM:   3    -0.671318735782E+03   -0.29596E-04   -0.96499E-05 14876   0.148E-02    0.366E-02
RMM:   4    -0.671318735463E+03    0.31944E-06   -0.22133E-05 13172   0.869E-03    0.278E-02
RMM:   5    -0.671318735325E+03    0.13784E-06   -0.81768E-06 12201   0.477E-03    0.183E-02
RMM:   6    -0.671318737144E+03   -0.18189E-05   -0.43238E-06 11492   0.373E-03    0.129E-02
RMM:   7    -0.671318743923E+03   -0.67796E-05   -0.26377E-06 11086   0.318E-03    0.101E-02
RMM:   8    -0.671318750702E+03   -0.67791E-05   -0.55365E-07  7333   0.233E-03
  20 F= -.67131875E+03 E0= -.67090401E+03  d E =-.148205E-02  mag=    79.9741
       N       E                     dE             d eps       ncg     rms          rms(c)
DAV:   1    -0.671319157595E+03   -0.41367E-03   -0.47628E-02 26624   0.250E-01    0.873E-02
RMM:   2    -0.671319300063E+03   -0.14247E-03   -0.89922E-04 20714   0.443E-02    0.514E-02
RMM:   3    -0.671319342986E+03   -0.42922E-04   -0.14930E-04 15533   0.180E-02    0.425E-02
RMM:   4    -0.671319343328E+03   -0.34273E-06   -0.35128E-05 13624   0.109E-02    0.352E-02
RMM:   5    -0.671319341030E+03    0.22980E-05   -0.12469E-05 12613   0.587E-03    0.220E-02
RMM:   6    -0.671319341860E+03   -0.82981E-06   -0.65534E-06 12040   0.430E-03    0.158E-02
RMM:   7    -0.671319348533E+03   -0.66729E-05   -0.38796E-06 11790   0.371E-03    0.122E-02
RMM:   8    -0.671319355380E+03   -0.68471E-05   -0.12528E-06  9155   0.268E-03
  21 F= -.67131936E+03 E0= -.67090460E+03  d E =-.208673E-02  mag=    79.9748
       N       E                     dE             d eps       ncg     rms          rms(c)
DAV:   1    -0.671320330207E+03   -0.98167E-03   -0.14562E-02 27392   0.136E-01    0.567E-02
RMM:   2    -0.671320390913E+03   -0.60706E-04   -0.29436E-04 16997   0.261E-02    0.362E-02
RMM:   3    -0.671320407267E+03   -0.16354E-04   -0.50433E-05 14258   0.115E-02    0.338E-02
RMM:   4    -0.671320408170E+03   -0.90292E-06   -0.14599E-05 12599   0.690E-03    0.180E-02
RMM:   5    -0.671320416644E+03   -0.84741E-05   -0.55241E-06 11593   0.399E-03    0.180E-02
RMM:   6    -0.671320422530E+03   -0.58855E-05   -0.23879E-06 10349   0.307E-03    0.109E-02
RMM:   7    -0.671320430382E+03   -0.78520E-05   -0.79103E-07  7685   0.247E-03    0.674E-03
RMM:   8    -0.671320439922E+03   -0.95400E-05   -0.11269E-07  5635   0.215E-03
  22 F= -.67132044E+03 E0= -.67090566E+03  d E =-.108454E-02  mag=    79.9755
       N       E                     dE             d eps       ncg     rms          rms(c)
DAV:   1    -0.671321339632E+03   -0.90925E-03   -0.13106E-01 26416   0.409E-01    0.170E-01
RMM:   2    -0.671321800722E+03   -0.46109E-03   -0.26105E-03 23175   0.780E-02    0.110E-01
RMM:   3    -0.671321928405E+03   -0.12768E-03   -0.46503E-04 18777   0.321E-02    0.112E-01
RMM:   4    -0.671321883064E+03    0.45341E-04   -0.12625E-04 15299   0.197E-02    0.533E-02
RMM:   5    -0.671321881209E+03    0.18547E-05   -0.54600E-05 14197   0.112E-02    0.564E-02
RMM:   6    -0.671321860374E+03    0.20835E-04   -0.26073E-05 13613   0.880E-03    0.298E-02
RMM:   7    -0.671321858389E+03    0.19846E-05   -0.14167E-05 12720   0.620E-03    0.206E-02
RMM:   8    -0.671321862633E+03   -0.42436E-05   -0.49039E-06 12001   0.431E-03
  23 F= -.67132186E+03 E0= -.67090705E+03  d E =-.250725E-02  mag=    79.9762
       N       E                     dE             d eps       ncg     rms          rms(c)
DAV:   1    -0.671323421999E+03   -0.15636E-02   -0.20833E-02 27440   0.169E-01    0.665E-02
RMM:   2    -0.671323502735E+03   -0.80736E-04   -0.41789E-04 18410   0.316E-02    0.476E-02
RMM:   3    -0.671323524652E+03   -0.21917E-04   -0.82790E-05 14853   0.153E-02    0.502E-02
RMM:   4    -0.671323520583E+03    0.40689E-05   -0.24643E-05 13249   0.926E-03    0.177E-02
RMM:   5    -0.671323530514E+03   -0.99312E-05   -0.76433E-06 12089   0.458E-03    0.159E-02
RMM:   6    -0.671323537438E+03   -0.69235E-05   -0.37366E-06 10793   0.354E-03    0.114E-02
RMM:   7    -0.671323546401E+03   -0.89635E-05   -0.18064E-06  9724   0.296E-03    0.906E-03
RMM:   8    -0.671323553837E+03   -0.74361E-05   -0.23966E-07  6336   0.225E-03
  24 F= -.67132355E+03 E0= -.67090872E+03  d E =-.169120E-02  mag=    79.9770
       N       E                     dE             d eps       ncg     rms          rms(c)
DAV:   1    -0.671324456729E+03   -0.91033E-03   -0.92818E-02 27120   0.356E-01    0.138E-01
RMM:   2    -0.671324764544E+03   -0.30782E-03   -0.18203E-03 23020   0.658E-02    0.905E-02
RMM:   3    -0.671324837336E+03   -0.72792E-04   -0.33001E-04 17699   0.282E-02    0.869E-02
RMM:   4    -0.671324815535E+03    0.21801E-04   -0.97007E-05 14909   0.179E-02    0.398E-02
RMM:   5    -0.671324810489E+03    0.50459E-05   -0.34729E-05 13742   0.950E-03    0.298E-02
RMM:   6    -0.671324806187E+03    0.43018E-05   -0.17044E-05 13267   0.643E-03    0.222E-02
RMM:   7    -0.671324806563E+03   -0.37579E-06   -0.81565E-06 12492   0.519E-03    0.205E-02
RMM:   8    -0.671324808953E+03   -0.23902E-05   -0.29666E-06 11240   0.340E-03
  25 F= -.67132481E+03 E0= -.67090994E+03  d E =-.294632E-02  mag=    79.9778
       N       E                     dE             d eps       ncg     rms          rms(c)
DAV:   1    -0.671325743771E+03   -0.93721E-03   -0.14041E-02 27488   0.145E-01    0.509E-02
RMM:   2    -0.671325800281E+03   -0.56510E-04   -0.31207E-04 17509   0.272E-02    0.387E-02
RMM:   3    -0.671325818045E+03   -0.17764E-04   -0.54335E-05 14459   0.130E-02    0.395E-02
RMM:   4    -0.671325815028E+03    0.30175E-05   -0.15036E-05 13123   0.754E-03    0.185E-02
RMM:   5    -0.671325819847E+03   -0.48196E-05   -0.48010E-06 11880   0.376E-03    0.176E-02
RMM:   6    -0.671325824829E+03   -0.49816E-05   -0.22025E-06 10717   0.307E-03    0.100E-02
RMM:   7    -0.671325837161E+03   -0.12332E-04   -0.11265E-06  8738   0.258E-03    0.628E-03
RMM:   8    -0.671325848425E+03   -0.11264E-04   -0.13355E-07  5710   0.220E-03
  26 F= -.67132585E+03 E0= -.67091100E+03  d E =-.103947E-02  mag=    79.9787
       N       E                     dE             d eps       ncg     rms          rms(c)
DAV:   1    -0.671326148058E+03   -0.31090E-03   -0.16283E-02 27504   0.156E-01    0.543E-02
RMM:   2    -0.671326209576E+03   -0.61518E-04   -0.35899E-04 18146   0.292E-02    0.359E-02
RMM:   3    -0.671326229632E+03   -0.20056E-04   -0.57881E-05 14499   0.130E-02    0.323E-02
RMM:   4    -0.671326229153E+03    0.47917E-06   -0.16178E-05 13136   0.767E-03    0.190E-02
RMM:   5    -0.671326234993E+03   -0.58403E-05   -0.52605E-06 12000   0.413E-03    0.139E-02
RMM:   6    -0.671326242883E+03   -0.78902E-05   -0.21774E-06 10140   0.299E-03    0.124E-02
RMM:   7    -0.671326254445E+03   -0.11562E-04   -0.11884E-06  9033   0.265E-03    0.766E-03
RMM:   8    -0.671326265319E+03   -0.10874E-04   -0.12701E-07  5546   0.220E-03
  27 F= -.67132627E+03 E0= -.67091143E+03  d E =-.145637E-02  mag=    79.9794
       N       E                     dE             d eps       ncg     rms          rms(c)
DAV:   1    -0.671326964973E+03   -0.71053E-03   -0.15637E-02 27600   0.151E-01    0.631E-02
RMM:   2    -0.671327044180E+03   -0.79208E-04   -0.34900E-04 18322   0.295E-02    0.417E-02
RMM:   3    -0.671327067703E+03   -0.23523E-04   -0.56867E-05 14449   0.132E-02    0.357E-02
RMM:   4    -0.671327068808E+03   -0.11050E-05   -0.18091E-05 13244   0.814E-03    0.212E-02
RMM:   5    -0.671327078579E+03   -0.97714E-05   -0.59180E-06 12103   0.442E-03    0.142E-02
RMM:   6    -0.671327089714E+03   -0.11135E-04   -0.23848E-06 10547   0.304E-03    0.127E-02
RMM:   7    -0.671327103578E+03   -0.13864E-04   -0.12811E-06  9441   0.271E-03    0.749E-03
RMM:   8    -0.671327116675E+03   -0.13096E-04   -0.10679E-07  5590   0.218E-03
  28 F= -.67132712E+03 E0= -.67091229E+03  d E =-.851355E-03  mag=    79.9802
       N       E                     dE             d eps       ncg     rms          rms(c)
DAV:   1    -0.671327332361E+03   -0.22878E-03   -0.25331E-02 27440   0.193E-01    0.802E-02
RMM:   2    -0.671327447951E+03   -0.11559E-03   -0.56095E-04 20691   0.374E-02    0.515E-02
RMM:   3    -0.671327482696E+03   -0.34745E-04   -0.89687E-05 14699   0.158E-02    0.430E-02
RMM:   4    -0.671327482240E+03    0.45588E-06   -0.29447E-05 13959   0.105E-02    0.275E-02
RMM:   5    -0.671327490364E+03   -0.81235E-05   -0.96500E-06 12647   0.543E-03    0.182E-02
RMM:   6    -0.671327500713E+03   -0.10349E-04   -0.43093E-06 11767   0.370E-03    0.165E-02
RMM:   7    -0.671327514817E+03   -0.14105E-04   -0.26326E-06 11495   0.319E-03    0.959E-03
RMM:   8    -0.671327528023E+03   -0.13205E-04   -0.31576E-07  6813   0.231E-03
  29 F= -.67132753E+03 E0= -.67091271E+03  d E =-.126270E-02  mag=    79.9809
       N       E                     dE             d eps       ncg     rms          rms(c)
DAV:   1    -0.671328058293E+03   -0.54348E-03   -0.10400E-02 27664   0.118E-01    0.616E-02
RMM:   2    -0.671328124124E+03   -0.65831E-04   -0.22231E-04 16791   0.234E-02    0.391E-02
RMM:   3    -0.671328142971E+03   -0.18847E-04   -0.33746E-05 14229   0.105E-02    0.300E-02
RMM:   4    -0.671328145462E+03   -0.24908E-05   -0.10779E-05 12950   0.637E-03    0.222E-02
RMM:   5    -0.671328156248E+03   -0.10786E-04   -0.41820E-06 11778   0.378E-03    0.163E-02
RMM:   6    -0.671328167147E+03   -0.10899E-04   -0.19003E-06 10247   0.288E-03    0.101E-02
RMM:   7    -0.671328180835E+03   -0.13688E-04   -0.10149E-06  8537   0.259E-03    0.496E-03
RMM:   8    -0.671328191131E+03   -0.10296E-04   -0.35476E-08  5026   0.212E-03
  30 F= -.67132819E+03 E0= -.67091336E+03  d E =-.663108E-03  mag=    79.9815
       N       E                     dE             d eps       ncg     rms          rms(c)
DAV:   1    -0.671328790497E+03   -0.60966E-03   -0.93633E-02 25344   0.353E-01    0.184E-01
RMM:   2    -0.671329269097E+03   -0.47860E-03   -0.19472E-03 23492   0.699E-02    0.115E-01
RMM:   3    -0.671329376772E+03   -0.10767E-03   -0.29523E-04 18196   0.284E-02    0.802E-02
RMM:   4    -0.671329365354E+03    0.11418E-04   -0.10407E-04 14970   0.190E-02    0.590E-02
RMM:   5    -0.671329367360E+03   -0.20061E-05   -0.41972E-05 14068   0.116E-02    0.338E-02
RMM:   6    -0.671329381859E+03   -0.14499E-04   -0.21531E-05 13829   0.729E-03    0.237E-02
RMM:   7    -0.671329397445E+03   -0.15586E-04   -0.92871E-06 12941   0.553E-03    0.188E-02
RMM:   8    -0.671329405842E+03   -0.83968E-05   -0.29748E-06 11576   0.347E-03
  31 F= -.67132941E+03 E0= -.67091456E+03  d E =-.187782E-02  mag=    79.9821
       N       E                     dE             d eps       ncg     rms          rms(c)
DAV:   1    -0.671326294686E+03    0.31028E-02   -0.37463E-01 25344   0.704E-01    0.368E-01
RMM:   2    -0.671328177569E+03   -0.18829E-02   -0.77777E-03 24164   0.140E-01    0.234E-01
RMM:   3    -0.671328585888E+03   -0.40832E-03   -0.11948E-03 23165   0.578E-02    0.166E-01
RMM:   4    -0.671328518795E+03    0.67093E-04   -0.40536E-04 19965   0.356E-02    0.111E-01
RMM:   5    -0.671328502676E+03    0.16118E-04   -0.15611E-04 15946   0.211E-02    0.727E-02
RMM:   6    -0.671328520086E+03   -0.17410E-04   -0.86879E-05 14718   0.149E-02    0.655E-02
RMM:   7    -0.671328525739E+03   -0.56531E-05   -0.40547E-05 14365   0.109E-02    0.390E-02
RMM:   8    -0.671328534573E+03   -0.88336E-05   -0.13631E-05 13693   0.663E-03
  32 F= -.67132853E+03 E0= -.67091366E+03  d E =-.100655E-02  mag=    79.9827
       N       E                     dE             d eps       ncg     rms          rms(c)
DAV:   1    -0.671328609370E+03   -0.83631E-04   -0.19129E-01 26816   0.502E-01    0.263E-01
RMM:   2    -0.671329559661E+03   -0.95029E-03   -0.39459E-03 23887   0.100E-01    0.167E-01
RMM:   3    -0.671329791114E+03   -0.23145E-03   -0.60512E-04 21674   0.413E-02    0.128E-01
RMM:   4    -0.671329751165E+03    0.39949E-04   -0.19871E-04 16740   0.256E-02    0.835E-02
RMM:   5    -0.671329766603E+03   -0.15438E-04   -0.84593E-05 14598   0.158E-02    0.688E-02
RMM:   6    -0.671329762632E+03    0.39702E-05   -0.41247E-05 14329   0.106E-02    0.452E-02
RMM:   7    -0.671329765181E+03   -0.25481E-05   -0.24365E-05 13991   0.832E-03    0.241E-02
RMM:   8    -0.671329767233E+03   -0.20526E-05   -0.77521E-06 12767   0.523E-03
  33 F= -.67132977E+03 E0= -.67091490E+03  d E =-.223921E-02  mag=    79.9832
       N       E                     dE             d eps       ncg     rms          rms(c)
DAV:   1    -0.671330476958E+03   -0.71178E-03   -0.10232E-02 27952   0.116E-01    0.606E-02
RMM:   2    -0.671330531734E+03   -0.54775E-04   -0.20130E-04 16382   0.224E-02    0.418E-02
RMM:   3    -0.671330553633E+03   -0.21899E-04   -0.34270E-05 14272   0.106E-02    0.444E-02
RMM:   4    -0.671330546706E+03    0.69272E-05   -0.10293E-05 13162   0.634E-03    0.198E-02
RMM:   5    -0.671330556188E+03   -0.94823E-05   -0.42230E-06 11764   0.367E-03    0.168E-02
RMM:   6    -0.671330567037E+03   -0.10849E-04   -0.26224E-06 11204   0.335E-03    0.959E-03
RMM:   7    -0.671330577623E+03   -0.10585E-04   -0.93951E-07  8392   0.254E-03    0.445E-03
RMM:   8    -0.671330585934E+03   -0.83116E-05   -0.34645E-08  4916   0.207E-03
  34 F= -.67133059E+03 E0= -.67091571E+03  d E =-.818701E-03  mag=    79.9838
       N       E                     dE             d eps       ncg     rms          rms(c)
DAV:   1    -0.671331755564E+03   -0.11779E-02   -0.91985E-02 25600   0.347E-01    0.182E-01
RMM:   2    -0.671332186373E+03   -0.43081E-03   -0.17958E-03 23481   0.667E-02    0.111E-01
RMM:   3    -0.671332291718E+03   -0.10535E-03   -0.26555E-04 17572   0.273E-02    0.835E-02
RMM:   4    -0.671332276300E+03    0.15419E-04   -0.95154E-05 14766   0.186E-02    0.567E-02
RMM:   5    -0.671332283949E+03   -0.76499E-05   -0.39092E-05 14276   0.109E-02    0.423E-02
RMM:   6    -0.671332291802E+03   -0.78524E-05   -0.19748E-05 13967   0.733E-03    0.331E-02
RMM:   7    -0.671332297915E+03   -0.61127E-05   -0.10066E-05 13028   0.562E-03    0.182E-02
RMM:   8    -0.671332303195E+03   -0.52801E-05   -0.32836E-06 11832   0.359E-03
  35 F= -.67133230E+03 E0= -.67091737E+03  d E =-.253596E-02  mag=    79.9843
       N       E                     dE             d eps       ncg     rms          rms(c)
DAV:   1    -0.671329259241E+03    0.30387E-02   -0.36853E-01 25216   0.693E-01    0.363E-01
RMM:   2    -0.671330983829E+03   -0.17246E-02   -0.71714E-03 24141   0.134E-01    0.221E-01
RMM:   3    -0.671331383224E+03   -0.39939E-03   -0.10522E-03 23261   0.545E-02    0.156E-01
RMM:   4    -0.671331324415E+03    0.58808E-04   -0.35665E-04 19490   0.332E-02    0.106E-01
RMM:   5    -0.671331309552E+03    0.14863E-04   -0.14012E-04 15617   0.203E-02    0.702E-02
RMM:   6    -0.671331323915E+03   -0.14362E-04   -0.82134E-05 14615   0.146E-02    0.621E-02
RMM:   7    -0.671331323077E+03    0.83726E-06   -0.35569E-05 14358   0.104E-02    0.390E-02
RMM:   8    -0.671331321793E+03    0.12843E-05   -0.12059E-05 13613   0.624E-03
  36 F= -.67133132E+03 E0= -.67091628E+03  d E =-.155456E-02  mag=    79.9849
       N       E                     dE             d eps       ncg     rms          rms(c)
DAV:   1    -0.671331834581E+03   -0.51150E-03   -0.15708E-01 26288   0.452E-01    0.237E-01
RMM:   2    -0.671332600591E+03   -0.76601E-03   -0.30345E-03 23755   0.872E-02    0.147E-01
RMM:   3    -0.671332808714E+03   -0.20812E-03   -0.45689E-04 20756   0.363E-02    0.124E-01
RMM:   4    -0.671332758908E+03    0.49806E-04   -0.14915E-04 15752   0.226E-02    0.739E-02
RMM:   5    -0.671332765429E+03   -0.65211E-05   -0.66403E-05 14434   0.138E-02    0.657E-02
RMM:   6    -0.671332752641E+03    0.12788E-04   -0.35005E-05 14325   0.100E-02    0.373E-02
RMM:   7    -0.671332757402E+03   -0.47614E-05   -0.20080E-05 13619   0.765E-03    0.216E-02
RMM:   8    -0.671332762621E+03   -0.52187E-05   -0.61473E-06 12331   0.478E-03
  37 F= -.67133276E+03 E0= -.67091780E+03  d E =-.299539E-02  mag=    79.9854
       N       E                     dE             d eps       ncg     rms          rms(c)
DAV:   1    -0.671334132546E+03   -0.13751E-02   -0.22918E-02 27920   0.176E-01    0.831E-02
RMM:   2    -0.671334218483E+03   -0.85937E-04   -0.44537E-04 19108   0.336E-02    0.535E-02
RMM:   3    -0.671334257145E+03   -0.38662E-04   -0.72634E-05 14685   0.150E-02    0.576E-02
RMM:   4    -0.671334245460E+03    0.11685E-04   -0.23150E-05 14112   0.952E-03    0.273E-02
RMM:   5    -0.671334254710E+03   -0.92494E-05   -0.87550E-06 12823   0.496E-03    0.254E-02
RMM:   6    -0.671334260184E+03   -0.54743E-05   -0.52758E-06 11929   0.451E-03    0.123E-02
RMM:   7    -0.671334267492E+03   -0.73081E-05   -0.23111E-06 11015   0.302E-03    0.784E-03
RMM:   8    -0.671334272019E+03   -0.45272E-05   -0.19809E-07  6196   0.224E-03
  38 F= -.67133427E+03 E0= -.67091929E+03  d E =-.150940E-02  mag=    79.9859
       N       E                     dE             d eps       ncg     rms          rms(c)
DAV:   1    -0.671335701838E+03   -0.14343E-02   -0.16221E-01 25264   0.468E-01    0.221E-01
RMM:   2    -0.671336314387E+03   -0.61255E-03   -0.31362E-03 24001   0.891E-02    0.133E-01
RMM:   3    -0.671336515281E+03   -0.20089E-03   -0.50182E-04 21027   0.371E-02    0.113E-01
RMM:   4    -0.671336486780E+03    0.28502E-04   -0.15016E-04 15647   0.227E-02    0.743E-02
RMM:   5    -0.671336500528E+03   -0.13749E-04   -0.62037E-05 14526   0.137E-02    0.629E-02
RMM:   6    -0.671336495122E+03    0.54063E-05   -0.30356E-05 14313   0.949E-03    0.380E-02
RMM:   7    -0.671336498659E+03   -0.35367E-05   -0.16722E-05 13732   0.705E-03    0.224E-02
RMM:   8    -0.671336500484E+03   -0.18254E-05   -0.60272E-06 12250   0.465E-03
  39 F= -.67133650E+03 E0= -.67092148E+03  d E =-.373786E-02  mag=    79.9865
       N       E                     dE             d eps       ncg     rms          rms(c)
DAV:   1    -0.671332516153E+03    0.39825E-02   -0.64974E-01 25056   0.935E-01    0.445E-01
RMM:   2    -0.671335039580E+03   -0.25234E-02   -0.12589E-02 24301   0.179E-01    0.274E-01
RMM:   3    -0.671335794666E+03   -0.75509E-03   -0.20485E-03 24399   0.762E-02    0.232E-01
RMM:   4    -0.671335672545E+03    0.12212E-03   -0.64062E-04 21697   0.453E-02    0.141E-01
RMM:   5    -0.671335729611E+03   -0.57066E-04   -0.25457E-04 18092   0.251E-02    0.137E-01
RMM:   6    -0.671335666135E+03    0.63476E-04   -0.12262E-04 15117   0.188E-02    0.757E-02
RMM:   7    -0.671335660873E+03    0.52615E-05   -0.67551E-05 14563   0.137E-02    0.444E-02
RMM:   8    -0.671335657737E+03    0.31367E-05   -0.25578E-05 14233   0.926E-03
  40 F= -.67133566E+03 E0= -.67092055E+03  d E =-.289512E-02  mag=    79.9871
       N       E                     dE             d eps       ncg     rms          rms(c)
DAV:   1    -0.671335876416E+03   -0.21554E-03   -0.26974E-01 25792   0.602E-01    0.287E-01
RMM:   2    -0.671336965836E+03   -0.10894E-02   -0.51926E-03 24154   0.115E-01    0.173E-01
RMM:   3    -0.671337337281E+03   -0.37144E-03   -0.83312E-04 23071   0.472E-02    0.158E-01
RMM:   4    -0.671337256714E+03    0.80566E-04   -0.23290E-04 17091   0.275E-02    0.980E-02
RMM:   5    -0.671337268849E+03   -0.12135E-04   -0.10606E-04 14753   0.173E-02    0.892E-02
RMM:   6    -0.671337242241E+03    0.26608E-04   -0.57249E-05 14443   0.133E-02    0.465E-02
RMM:   7    -0.671337253371E+03   -0.11130E-04   -0.30466E-05 14240   0.928E-03    0.282E-02
RMM:   8    -0.671337262514E+03   -0.91428E-05   -0.10087E-05 12930   0.594E-03
  41 F= -.67133726E+03 E0= -.67092223E+03  d E =-.449989E-02  mag=    79.9876
       N       E                     dE             d eps       ncg     rms          rms(c)
DAV:   1    -0.671338163620E+03   -0.91025E-03   -0.49429E-03 27536   0.774E-02    0.419E-02
RMM:   2    -0.671338185595E+03   -0.21975E-04   -0.94701E-05 15155   0.152E-02    0.286E-02
RMM:   3    -0.671338195770E+03   -0.10175E-04   -0.16081E-05 14078   0.726E-03    0.319E-02
RMM:   4    -0.671338192333E+03    0.34366E-05   -0.45409E-06 12160   0.436E-03    0.144E-02
RMM:   5    -0.671338197698E+03   -0.53649E-05   -0.17802E-06  9818   0.280E-03    0.133E-02
RMM:   6    -0.671338202110E+03   -0.44126E-05   -0.11834E-06  8989   0.269E-03    0.645E-03
RMM:   7    -0.671338206395E+03   -0.42845E-05   -0.11371E-07  5595   0.208E-03    0.303E-03
RMM:   8    -0.671338210308E+03   -0.39130E-05   -0.19092E-08  4867   0.194E-03
  42 F= -.67133821E+03 E0= -.67092316E+03  d E =-.947794E-03  mag=    79.9880
       N       E                     dE             d eps       ncg     rms          rms(c)
DAV:   1    -0.671340562784E+03   -0.23564E-02   -0.44221E-02 25952   0.231E-01    0.124E-01
RMM:   2    -0.671340738665E+03   -0.17588E-03   -0.81156E-04 21455   0.442E-02    0.738E-02
RMM:   3    -0.671340794862E+03   -0.56197E-04   -0.12453E-04 15264   0.188E-02    0.639E-02
RMM:   4    -0.671340785677E+03    0.91856E-05   -0.46869E-05 14375   0.135E-02    0.406E-02
RMM:   5    -0.671340790055E+03   -0.43786E-05   -0.18150E-05 13840   0.714E-03    0.358E-02
RMM:   6    -0.671340789184E+03    0.87172E-06   -0.90977E-06 12838   0.552E-03    0.213E-02
RMM:   7    -0.671340792497E+03   -0.33132E-05   -0.42706E-06 12128   0.379E-03    0.112E-02
RMM:   8    -0.671340796088E+03   -0.35912E-05   -0.84265E-07  8644   0.254E-03
  43 F= -.67134080E+03 E0= -.67092573E+03  d E =-.353357E-02  mag=    79.9885
       N       E                     dE             d eps       ncg     rms          rms(c)
DAV:   1    -0.671344184993E+03   -0.33925E-02   -0.17682E-01 25152   0.461E-01    0.248E-01
RMM:   2    -0.671344903347E+03   -0.71835E-03   -0.32393E-03 23885   0.885E-02    0.147E-01
RMM:   3    -0.671345117155E+03   -0.21381E-03   -0.49246E-04 20446   0.368E-02    0.120E-01
RMM:   4    -0.671345091098E+03    0.26058E-04   -0.17063E-04 15995   0.243E-02    0.876E-02
RMM:   5    -0.671345096084E+03   -0.49868E-05   -0.75681E-05 14614   0.150E-02    0.742E-02
RMM:   6    -0.671345081030E+03    0.15054E-04   -0.37465E-05 14366   0.106E-02    0.407E-02
RMM:   7    -0.671345082835E+03   -0.18054E-05   -0.17595E-05 13984   0.731E-03    0.216E-02
RMM:   8    -0.671345086575E+03   -0.37397E-05   -0.57881E-06 12292   0.461E-03
  44 F= -.67134509E+03 E0= -.67093000E+03  d E =-.782406E-02  mag=    79.9890
       N       E                     dE             d eps       ncg     rms          rms(c)
DAV:   1    -0.671344811180E+03    0.27166E-03   -0.70714E-01 24960   0.922E-01    0.495E-01
RMM:   2    -0.671347777654E+03   -0.29665E-02   -0.13005E-02 24310   0.178E-01    0.298E-01
RMM:   3    -0.671348600899E+03   -0.82324E-03   -0.20118E-03 24188   0.755E-02    0.243E-01
RMM:   4    -0.671348483780E+03    0.11712E-03   -0.68581E-04 21794   0.470E-02    0.162E-01
RMM:   5    -0.671348536151E+03   -0.52371E-04   -0.28477E-04 18864   0.270E-02    0.157E-01
RMM:   6    -0.671348443415E+03    0.92736E-04   -0.14523E-04 15471   0.207E-02    0.794E-02
RMM:   7    -0.671348440078E+03    0.33379E-05   -0.71286E-05 14632   0.143E-02    0.422E-02
RMM:   8    -0.671348444531E+03   -0.44536E-05   -0.24955E-05 14291   0.915E-03
  45 F= -.67134844E+03 E0= -.67093330E+03  d E =-.111820E-01  mag=    79.9895
       N       E                     dE             d eps       ncg     rms          rms(c)
DAV:   1    -0.671352891916E+03   -0.44518E-02   -0.40488E-02 27856   0.251E-01    0.894E-02
RMM:   2    -0.671353032984E+03   -0.14107E-03   -0.81240E-04 22710   0.457E-02    0.556E-02
RMM:   3    -0.671353082406E+03   -0.49422E-04   -0.13322E-04 15044   0.190E-02    0.540E-02
RMM:   4    -0.671353079333E+03    0.30724E-05   -0.38635E-05 14346   0.125E-02    0.350E-02
RMM:   5    -0.671353085811E+03   -0.64778E-05   -0.13249E-05 13689   0.593E-03    0.272E-02
RMM:   6    -0.671353091225E+03   -0.54133E-05   -0.80386E-06 12621   0.529E-03    0.178E-02
RMM:   7    -0.671353103263E+03   -0.12039E-04   -0.46433E-06 12186   0.379E-03    0.102E-02
RMM:   8    -0.671353110622E+03   -0.73584E-05   -0.11929E-06  9417   0.268E-03
  46 F= -.67135311E+03 E0= -.67093796E+03  d E =-.466609E-02  mag=    79.9900
       N       E                     dE             d eps       ncg     rms          rms(c)
DAV:   1    -0.671355009276E+03   -0.19060E-02   -0.21230E-01 25632   0.574E-01    0.200E-01
RMM:   2    -0.671355644037E+03   -0.63476E-03   -0.42215E-03 24046   0.104E-01    0.121E-01
RMM:   3    -0.671355826522E+03   -0.18248E-03   -0.68894E-04 22523   0.425E-02    0.982E-02
RMM:   4    -0.671355809657E+03    0.16864E-04   -0.16797E-04 15892   0.235E-02    0.729E-02
RMM:   5    -0.671355798941E+03    0.10717E-04   -0.64637E-05 14489   0.147E-02    0.413E-02
RMM:   6    -0.671355806467E+03   -0.75265E-05   -0.34196E-05 14353   0.923E-03    0.465E-02
RMM:   7    -0.671355804415E+03    0.20522E-05   -0.19341E-05 13850   0.772E-03    0.313E-02
RMM:   8    -0.671355806265E+03   -0.18501E-05   -0.68863E-06 12715   0.458E-03
  47 F= -.67135581E+03 E0= -.67094062E+03  d E =-.736173E-02  mag=    79.9905
       N       E                     dE             d eps       ncg     rms          rms(c)
DAV:   1    -0.671356167828E+03   -0.36341E-03   -0.12805E-02 28144   0.141E-01    0.493E-02
RMM:   2    -0.671356211330E+03   -0.43502E-04   -0.25670E-04 16673   0.257E-02    0.348E-02
RMM:   3    -0.671356229867E+03   -0.18538E-04   -0.42180E-05 14346   0.122E-02    0.376E-02
RMM:   4    -0.671356228322E+03    0.15455E-05   -0.11137E-05 13481   0.676E-03    0.182E-02
RMM:   5    -0.671356236751E+03   -0.84289E-05   -0.36473E-06 11874   0.348E-03    0.164E-02
RMM:   6    -0.671356243609E+03   -0.68578E-05   -0.19832E-06 10988   0.303E-03    0.920E-03
RMM:   7    -0.671356250565E+03   -0.69570E-05   -0.43198E-07  7176   0.239E-03    0.465E-03
RMM:   8    -0.671356255405E+03   -0.48396E-05   -0.35546E-08  5292   0.210E-03
  48 F= -.67135626E+03 E0= -.67094106E+03  d E =-.781087E-02  mag=    79.9910
       N       E                     dE             d eps       ncg     rms          rms(c)
DAV:   1    -0.671358741515E+03   -0.24909E-02   -0.26434E-02 27440   0.196E-01    0.582E-02
RMM:   2    -0.671358821270E+03   -0.79755E-04   -0.58194E-04 19708   0.359E-02    0.480E-02
RMM:   3    -0.671358852918E+03   -0.31648E-04   -0.10182E-04 14927   0.155E-02    0.419E-02
RMM:   4    -0.671358852065E+03    0.85263E-06   -0.26143E-05 13565   0.947E-03    0.248E-02
RMM:   5    -0.671358855612E+03   -0.35465E-05   -0.92084E-06 12352   0.494E-03    0.183E-02
RMM:   6    -0.671358858664E+03   -0.30524E-05   -0.34892E-06 10884   0.347E-03    0.133E-02
RMM:   7    -0.671358863350E+03   -0.46855E-05   -0.20984E-06  9775   0.289E-03    0.910E-03
RMM:   8    -0.671358869916E+03   -0.65668E-05   -0.61174E-07  7297   0.243E-03
  49 F= -.67135887E+03 E0= -.67094370E+03  d E =-.261451E-02  mag=    79.9914
       N       E                     dE             d eps       ncg     rms          rms(c)
DAV:   1    -0.671360231224E+03   -0.13679E-02   -0.77071E-02 26688   0.335E-01    0.994E-02
RMM:   2    -0.671360437330E+03   -0.20611E-03   -0.16971E-03 23080   0.614E-02    0.825E-02
RMM:   3    -0.671360512617E+03   -0.75287E-04   -0.30580E-04 17360   0.258E-02    0.707E-02
RMM:   4    -0.671360501312E+03    0.11305E-04   -0.75251E-05 14616   0.159E-02    0.421E-02
RMM:   5    -0.671360504939E+03   -0.36275E-05   -0.27702E-05 13447   0.843E-03    0.307E-02
RMM:   6    -0.671360504978E+03   -0.38650E-07   -0.11201E-05 12791   0.561E-03    0.230E-02
RMM:   7    -0.671360507488E+03   -0.25104E-05   -0.71615E-06 12293   0.444E-03    0.165E-02
RMM:   8    -0.671360512466E+03   -0.49779E-05   -0.30920E-06 10946   0.341E-03
  50 F= -.67136051E+03 E0= -.67094538E+03  d E =-.425706E-02  mag=    79.9918
       N       E                     dE             d eps       ncg     rms          rms(c)
DAV:   1    -0.671362692181E+03   -0.21847E-02   -0.28966E-02 27488   0.194E-01    0.774E-02
RMM:   2    -0.671362791047E+03   -0.98867E-04   -0.63609E-04 20193   0.379E-02    0.583E-02
RMM:   3    -0.671362818439E+03   -0.27392E-04   -0.11938E-04 15143   0.171E-02    0.545E-02
RMM:   4    -0.671362805549E+03    0.12891E-04   -0.37090E-05 13725   0.113E-02    0.253E-02
RMM:   5    -0.671362800395E+03    0.51535E-05   -0.12769E-05 12681   0.574E-03    0.219E-02
RMM:   6    -0.671362794709E+03    0.56862E-05   -0.53135E-06 11783   0.416E-03    0.127E-02
RMM:   7    -0.671362797070E+03   -0.23614E-05   -0.30396E-06 10696   0.321E-03    0.144E-02
RMM:   8    -0.671362800182E+03   -0.31115E-05   -0.87833E-07  8209   0.259E-03
  51 F= -.67136280E+03 E0= -.67094769E+03  d E =-.228772E-02  mag=    79.9921
       N       E                     dE             d eps       ncg     rms          rms(c)
DAV:   1    -0.671363518029E+03   -0.72096E-03   -0.20799E-01 26336   0.521E-01    0.206E-01
RMM:   2    -0.671364212865E+03   -0.69484E-03   -0.45238E-03 23966   0.101E-01    0.152E-01
RMM:   3    -0.671364394599E+03   -0.18173E-03   -0.83822E-04 21577   0.433E-02    0.131E-01
RMM:   4    -0.671364322442E+03    0.72157E-04   -0.22411E-04 16776   0.256E-02    0.660E-02
RMM:   5    -0.671364301160E+03    0.21282E-04   -0.87310E-05 14726   0.150E-02    0.532E-02
RMM:   6    -0.671364276723E+03    0.24437E-04   -0.38905E-05 14030   0.100E-02    0.334E-02
RMM:   7    -0.671364281457E+03   -0.47348E-05   -0.22374E-05 13387   0.757E-03    0.373E-02
RMM:   8    -0.671364282548E+03   -0.10910E-05   -0.86546E-06 12732   0.534E-03
  52 F= -.67136428E+03 E0= -.67094928E+03  d E =-.377008E-02  mag=    79.9925
       N       E                     dE             d eps       ncg     rms          rms(c)
DAV:   1    -0.671364540716E+03   -0.25926E-03   -0.19019E-02 27744   0.158E-01    0.631E-02
RMM:   2    -0.671364606095E+03   -0.65380E-04   -0.41973E-04 18153   0.310E-02    0.496E-02
RMM:   3    -0.671364637341E+03   -0.31245E-04   -0.78723E-05 14725   0.147E-02    0.454E-02
RMM:   4    -0.671364640385E+03   -0.30440E-05   -0.24645E-05 13227   0.918E-03    0.203E-02
RMM:   5    -0.671364655555E+03   -0.15170E-04   -0.79311E-06 12163   0.468E-03    0.168E-02
RMM:   6    -0.671364665931E+03   -0.10376E-04   -0.30231E-06 10365   0.329E-03    0.924E-03
RMM:   7    -0.671364671468E+03   -0.55372E-05   -0.16189E-06  9288   0.278E-03    0.104E-02
RMM:   8    -0.671364673677E+03   -0.22086E-05   -0.23454E-07  6402   0.228E-03
  53 F= -.67136467E+03 E0= -.67094960E+03  d E =-.416121E-02  mag=    79.9929
       N       E                     dE             d eps       ncg     rms          rms(c)
DAV:   1    -0.671366562427E+03   -0.18910E-02   -0.24822E-02 26896   0.190E-01    0.726E-02
RMM:   2    -0.671366638502E+03   -0.76075E-04   -0.50627E-04 20142   0.364E-02    0.538E-02
RMM:   3    -0.671366659192E+03   -0.20691E-04   -0.10230E-04 14798   0.168E-02    0.549E-02
RMM:   4    -0.671366647562E+03    0.11630E-04   -0.31770E-05 13587   0.109E-02    0.210E-02
RMM:   5    -0.671366647399E+03    0.16345E-06   -0.10070E-05 12483   0.508E-03    0.191E-02
RMM:   6    -0.671366645782E+03    0.16168E-05   -0.45973E-06 11815   0.384E-03    0.132E-02
RMM:   7    -0.671366647046E+03   -0.12638E-05   -0.25203E-06 10561   0.304E-03    0.114E-02
RMM:   8    -0.671366648939E+03   -0.18924E-05   -0.40461E-07  6943   0.233E-03
  54 F= -.67136665E+03 E0= -.67095158E+03  d E =-.197526E-02  mag=    79.9932
       N       E                     dE             d eps       ncg     rms          rms(c)
DAV:   1    -0.671367385918E+03   -0.73887E-03   -0.40948E-02 27376   0.244E-01    0.935E-02
RMM:   2    -0.671367516387E+03   -0.13047E-03   -0.83623E-04 22102   0.467E-02    0.695E-02
RMM:   3    -0.671367550623E+03   -0.34236E-04   -0.17210E-04 15776   0.211E-02    0.702E-02
RMM:   4    -0.671367532391E+03    0.18233E-04   -0.53007E-05 14204   0.142E-02    0.268E-02
RMM:   5    -0.671367531890E+03    0.50059E-06   -0.17230E-05 12928   0.651E-03    0.233E-02
RMM:   6    -0.671367528284E+03    0.36056E-05   -0.81379E-06 12428   0.486E-03    0.158E-02
RMM:   7    -0.671367528958E+03   -0.67381E-06   -0.43769E-06 11739   0.373E-03    0.162E-02
RMM:   8    -0.671367529095E+03   -0.13690E-06   -0.12441E-06  9067   0.271E-03
  55 F= -.67136753E+03 E0= -.67095245E+03  d E =-.285542E-02  mag=    79.9937
       N       E                     dE             d eps       ncg     rms          rms(c)
DAV:   1    -0.671368794838E+03   -0.12659E-02   -0.38722E-02 27440   0.235E-01    0.963E-02
RMM:   2    -0.671368947695E+03   -0.15286E-03   -0.81320E-04 22133   0.457E-02    0.730E-02
RMM:   3    -0.671369001138E+03   -0.53443E-04   -0.16957E-04 15702   0.211E-02    0.761E-02
RMM:   4    -0.671368987845E+03    0.13294E-04   -0.54046E-05 14215   0.143E-02    0.269E-02
RMM:   5    -0.671369005010E+03   -0.17166E-04   -0.18626E-05 13136   0.663E-03    0.286E-02
RMM:   6    -0.671369011672E+03   -0.66613E-05   -0.80531E-06 12514   0.510E-03    0.182E-02
RMM:   7    -0.671369015677E+03   -0.40052E-05   -0.44566E-06 11790   0.365E-03    0.142E-02
RMM:   8    -0.671369017402E+03   -0.17253E-05   -0.12681E-06  9241   0.270E-03
  56 F= -.67136902E+03 E0= -.67095390E+03  d E =-.148831E-02  mag=    79.9941
       N       E                     dE             d eps       ncg     rms          rms(c)
DAV:   1    -0.671369139288E+03   -0.12361E-03   -0.84679E-03 27376   0.110E-01    0.449E-02
RMM:   2    -0.671369177026E+03   -0.37738E-04   -0.18341E-04 15852   0.213E-02    0.354E-02
RMM:   3    -0.671369192300E+03   -0.15275E-04   -0.36235E-05 14163   0.108E-02    0.342E-02
RMM:   4    -0.671369192920E+03   -0.61980E-06   -0.10814E-05 12682   0.634E-03    0.130E-02
RMM:   5    -0.671369202264E+03   -0.93440E-05   -0.36346E-06 11135   0.339E-03    0.115E-02
RMM:   6    -0.671369209834E+03   -0.75703E-05   -0.12997E-06  8640   0.266E-03    0.585E-03
RMM:   7    -0.671369214207E+03   -0.43726E-05   -0.32055E-07  6385   0.228E-03    0.693E-03
RMM:   8    -0.671369217158E+03   -0.29509E-05   -0.46789E-08  5220   0.211E-03
  57 F= -.67136922E+03 E0= -.67095408E+03  d E =-.168806E-02  mag=    79.9944
       N       E                     dE             d eps       ncg     rms          rms(c)
DAV:   1    -0.671370025357E+03   -0.81115E-03   -0.33447E-02 27008   0.210E-01    0.985E-02
RMM:   2    -0.671370168749E+03   -0.14339E-03   -0.66256E-04 21273   0.408E-02    0.654E-02
RMM:   3    -0.671370221991E+03   -0.53242E-04   -0.12139E-04 15124   0.182E-02    0.595E-02
RMM:   4    -0.671370218546E+03    0.34454E-05   -0.41807E-05 14056   0.127E-02    0.292E-02
RMM:   5    -0.671370235758E+03   -0.17213E-04   -0.14206E-05 12974   0.609E-03    0.197E-02
RMM:   6    -0.671370246516E+03   -0.10758E-04   -0.67373E-06 12316   0.448E-03    0.149E-02
RMM:   7    -0.671370252558E+03   -0.60415E-05   -0.32782E-06 11676   0.344E-03    0.145E-02
RMM:   8    -0.671370254268E+03   -0.17104E-05   -0.71331E-07  8249   0.249E-03
  58 F= -.67137025E+03 E0= -.67095510E+03  d E =-.103711E-02  mag=    79.9948
       N       E                     dE             d eps       ncg     rms          rms(c)
DAV:   1    -0.671370349286E+03   -0.96729E-04   -0.12847E-02 27264   0.130E-01    0.610E-02
RMM:   2    -0.671370407392E+03   -0.58106E-04   -0.25970E-04 16796   0.254E-02    0.418E-02
RMM:   3    -0.671370432694E+03   -0.25302E-04   -0.46906E-05 14423   0.122E-02    0.397E-02
RMM:   4    -0.671370432371E+03    0.32270E-06   -0.14836E-05 13193   0.756E-03    0.197E-02
RMM:   5    -0.671370443131E+03   -0.10760E-04   -0.51770E-06 12128   0.386E-03    0.182E-02
RMM:   6    -0.671370449282E+03   -0.61509E-05   -0.23251E-06 11047   0.313E-03    0.994E-03
RMM:   7    -0.671370455407E+03   -0.61248E-05   -0.11531E-06  8590   0.257E-03    0.540E-03
RMM:   8    -0.671370458501E+03   -0.30943E-05   -0.12677E-07  5839   0.219E-03
  59 F= -.67137046E+03 E0= -.67095529E+03  d E =-.124134E-02  mag=    79.9951
       N       E                     dE             d eps       ncg     rms          rms(c)
DAV:   1    -0.671371074500E+03   -0.61909E-03   -0.37828E-02 26736   0.220E-01    0.111E-01
RMM:   2    -0.671371250043E+03   -0.17554E-03   -0.71632E-04 21863   0.436E-02    0.769E-02
RMM:   3    -0.671371312120E+03   -0.62076E-04   -0.14337E-04 15439   0.200E-02    0.814E-02
RMM:   4    -0.671371286953E+03    0.25166E-04   -0.49222E-05 14321   0.139E-02    0.331E-02
RMM:   5    -0.671371295044E+03   -0.80909E-05   -0.16473E-05 13310   0.633E-03    0.316E-02
RMM:   6    -0.671371297081E+03   -0.20368E-05   -0.87213E-06 12552   0.542E-03    0.159E-02
RMM:   7    -0.671371302800E+03   -0.57188E-05   -0.51445E-06 12087   0.386E-03    0.102E-02
RMM:   8    -0.671371305833E+03   -0.30329E-05   -0.13331E-06  9464   0.276E-03
  60 F= -.67137131E+03 E0= -.67095613E+03  d E =-.847332E-03  mag=    79.9953
       N       E                     dE             d eps       ncg     rms          rms(c)
DAV:   1    -0.671371360019E+03   -0.57219E-04   -0.11183E-02 27168   0.120E-01    0.607E-02
RMM:   2    -0.671371413609E+03   -0.53590E-04   -0.21728E-04 16509   0.238E-02    0.421E-02
RMM:   3    -0.671371430826E+03   -0.17217E-04   -0.42184E-05 14486   0.118E-02    0.394E-02
RMM:   4    -0.671371427158E+03    0.36675E-05   -0.13873E-05 13054   0.735E-03    0.173E-02
RMM:   5    -0.671371431737E+03   -0.45784E-05   -0.45564E-06 11891   0.371E-03    0.171E-02
RMM:   6    -0.671371434178E+03   -0.24410E-05   -0.20779E-06 10797   0.300E-03    0.980E-03
RMM:   7    -0.671371436739E+03   -0.25616E-05   -0.68228E-07  7562   0.241E-03    0.465E-03
RMM:   8    -0.671371438584E+03   -0.18450E-05   -0.45520E-08  5330   0.212E-03
  61 F= -.67137144E+03 E0= -.67095626E+03  d E =-.980083E-03  mag=    79.9956
       N       E                     dE             d eps       ncg     rms          rms(c)
DAV:   1    -0.671371895626E+03   -0.45889E-03   -0.35879E-02 26592   0.217E-01    0.105E-01
RMM:   2    -0.671372052714E+03   -0.15709E-03   -0.71382E-04 21743   0.430E-02    0.750E-02
RMM:   3    -0.671372101888E+03   -0.49174E-04   -0.14961E-04 15575   0.205E-02    0.782E-02
RMM:   4    -0.671372078413E+03    0.23474E-04   -0.50753E-05 14320   0.141E-02    0.283E-02
RMM:   5    -0.671372080995E+03   -0.25821E-05   -0.14986E-05 13207   0.613E-03    0.298E-02
RMM:   6    -0.671372076280E+03    0.47153E-05   -0.71490E-06 12435   0.498E-03    0.170E-02
RMM:   7    -0.671372078244E+03   -0.19642E-05   -0.46260E-06 11966   0.362E-03    0.108E-02
RMM:   8    -0.671372081192E+03   -0.29476E-05   -0.13829E-06  9590   0.278E-03
  62 F= -.67137208E+03 E0= -.67095693E+03  d E =-.642607E-03  mag=    79.9959
       N       E                     dE             d eps       ncg     rms          rms(c)
DAV:   1    -0.671372102599E+03   -0.24355E-04   -0.33014E-03 26736   0.660E-02    0.319E-02
RMM:   2    -0.671372120029E+03   -0.17430E-04   -0.69160E-05 14851   0.132E-02    0.236E-02
RMM:   3    -0.671372125051E+03   -0.50222E-05   -0.14302E-05 13440   0.710E-03    0.232E-02
RMM:   4    -0.671372123595E+03    0.14557E-05   -0.42456E-06 11937   0.426E-03    0.787E-03
RMM:   5    -0.671372124878E+03   -0.12829E-05   -0.45475E-07  6944   0.227E-03    0.662E-03
RMM:   6    -0.671372126124E+03   -0.12456E-05   -0.12120E-07  5776   0.213E-03    0.526E-03
RMM:   7    -0.671372127537E+03   -0.14128E-05   -0.59584E-08  5244   0.209E-03    0.399E-03
RMM:   8    -0.671372128989E+03   -0.14519E-05   -0.82740E-08  5364   0.214E-03
  63 F= -.67137213E+03 E0= -.67095698E+03  d E =-.690404E-03  mag=    79.9961
       N       E                     dE             d eps       ncg     rms          rms(c)
DAV:   1    -0.671372352136E+03   -0.22460E-03   -0.13741E-02 26752   0.137E-01    0.605E-02
RMM:   2    -0.671372403326E+03   -0.51191E-04   -0.29331E-04 17392   0.272E-02    0.422E-02
RMM:   3    -0.671372427824E+03   -0.24498E-04   -0.53755E-05 14603   0.130E-02    0.372E-02
RMM:   4    -0.671372425028E+03    0.27968E-05   -0.16764E-05 13233   0.791E-03    0.176E-02
RMM:   5    -0.671372426316E+03   -0.12885E-05   -0.50761E-06 12160   0.401E-03    0.142E-02
RMM:   6    -0.671372425954E+03    0.36228E-06   -0.19984E-06 10588   0.297E-03    0.112E-02
RMM:   7    -0.671372426083E+03   -0.12945E-06   -0.69134E-07  7836   0.248E-03    0.602E-03
RMM:   8    -0.671372427102E+03   -0.10189E-05   -0.11620E-07  5540   0.220E-03
  64 F= -.67137243E+03 E0= -.67095727E+03  d E =-.298114E-03  mag=    79.9963
       N       E                     dE             d eps       ncg     rms          rms(c)
DAV:   1    -0.671372433334E+03   -0.72508E-05   -0.51542E-04 25360   0.268E-02    0.119E-02
RMM:   2    -0.671372437205E+03   -0.38706E-05   -0.12255E-05 13818   0.565E-03    0.900E-03
RMM:   3    -0.671372438859E+03   -0.16545E-05   -0.18435E-06 10633   0.299E-03    0.740E-03
RMM:   4    -0.671372439082E+03   -0.22305E-06   -0.12128E-07  5703   0.206E-03    0.280E-03
RMM:   5    -0.671372439777E+03   -0.69430E-06   -0.41069E-09  4518   0.186E-03    0.280E-03
RMM:   6    -0.671372440365E+03   -0.58813E-06   -0.15350E-09  4455   0.184E-03    0.240E-03
RMM:   7    -0.671372441121E+03   -0.75623E-06   -0.28241E-09  4574   0.190E-03    0.152E-03
RMM:   8    -0.671372441804E+03   -0.68266E-06   -0.73007E-10  4396   0.192E-03
  65 F= -.67137244E+03 E0= -.67095727E+03  d E =-.312815E-03  mag=    79.9965
       N       E                     dE             d eps       ncg     rms          rms(c)
DAV:   1    -0.671372597061E+03   -0.15594E-03   -0.11487E-02 26752   0.130E-01    0.566E-02
RMM:   2    -0.671372644553E+03   -0.47493E-04   -0.24493E-04 17043   0.262E-02    0.387E-02
RMM:   3    -0.671372661618E+03   -0.17064E-04   -0.44518E-05 14514   0.125E-02    0.341E-02
RMM:   4    -0.671372659006E+03    0.26119E-05   -0.14204E-05 13264   0.737E-03    0.155E-02
RMM:   5    -0.671372660516E+03   -0.15106E-05   -0.44814E-06 12021   0.383E-03    0.108E-02
RMM:   6    -0.671372661725E+03   -0.12089E-05   -0.17796E-06  9988   0.287E-03    0.738E-03
RMM:   7    -0.671372663184E+03   -0.14589E-05   -0.69472E-07  7946   0.254E-03    0.452E-03
RMM:   8    -0.671372664465E+03   -0.12810E-05   -0.68534E-08  5280   0.217E-03
  66 F= -.67137266E+03 E0= -.67095749E+03  d E =-.222662E-03  mag=    79.9968
       N       E                     dE             d eps       ncg     rms          rms(c)
DAV:   1    -0.671372667510E+03   -0.43260E-05   -0.25284E-04 24848   0.195E-02    0.882E-03
RMM:   2    -0.671372670219E+03   -0.27088E-05   -0.72010E-06 13234   0.468E-03    0.885E-03
RMM:   3    -0.671372671290E+03   -0.10715E-05   -0.93164E-07  8198   0.257E-03    0.887E-03
RMM:   4    -0.671372671217E+03    0.73574E-07   -0.20294E-08  4791   0.192E-03    0.269E-03
RMM:   5    -0.671372671821E+03   -0.60396E-06   -0.24476E-08  4767   0.194E-03    0.216E-03
RMM:   6    -0.671372672776E+03   -0.95507E-06   -0.55329E-09  4304   0.188E-03    0.122E-03
RMM:   7    -0.671372673891E+03   -0.11157E-05   -0.20113E-09  4347   0.190E-03    0.934E-04
RMM:   8    -0.671372674461E+03   -0.56950E-06   -0.73543E-10  3991   0.190E-03
  67 F= -.67137267E+03 E0= -.67095750E+03  d E =-.232657E-03  mag=    79.9970
       N       E                     dE             d eps       ncg     rms          rms(c)
DAV:   1    -0.671372808579E+03   -0.13469E-03   -0.95684E-03 26448   0.116E-01    0.563E-02
RMM:   2    -0.671372841571E+03   -0.32992E-04   -0.20123E-04 16417   0.234E-02    0.364E-02
RMM:   3    -0.671372859011E+03   -0.17440E-04   -0.34337E-05 14489   0.111E-02    0.305E-02
RMM:   4    -0.671372856503E+03    0.25081E-05   -0.10884E-05 13011   0.645E-03    0.146E-02
RMM:   5    -0.671372856791E+03   -0.28731E-06   -0.34160E-06 11751   0.348E-03    0.101E-02
RMM:   6    -0.671372857396E+03   -0.60489E-06   -0.11052E-06  9048   0.263E-03    0.913E-03
RMM:   7    -0.671372857376E+03    0.20023E-07   -0.28192E-07  6523   0.238E-03    0.523E-03
RMM:   8    -0.671372857491E+03   -0.11502E-06   -0.56137E-08  5249   0.223E-03
  68 F= -.67137286E+03 E0= -.67095766E+03  d E =-.183030E-03  mag=    79.9972
       N       E                     dE             d eps       ncg     rms          rms(c)
DAV:   1    -0.671372864801E+03   -0.74259E-05   -0.19123E-03 26640   0.518E-02    0.253E-02
RMM:   2    -0.671372870979E+03   -0.61775E-05   -0.42947E-05 14574   0.109E-02    0.167E-02
RMM:   3    -0.671372874723E+03   -0.37439E-05   -0.69336E-06 13162   0.518E-03    0.133E-02
RMM:   4    -0.671372874297E+03    0.42608E-06   -0.20031E-06 10992   0.313E-03    0.688E-03
RMM:   5    -0.671372874422E+03   -0.12480E-06   -0.45562E-08  5472   0.201E-03    0.448E-03
RMM:   6    -0.671372874865E+03   -0.44331E-06   -0.37082E-08  5055   0.197E-03    0.279E-03
RMM:   7    -0.671372875163E+03   -0.29802E-06   -0.29337E-08  4944   0.205E-03    0.194E-03
RMM:   8    -0.671372875409E+03   -0.24633E-06   -0.31834E-08  4668   0.207E-03
  69 F= -.67137288E+03 E0= -.67095767E+03  d E =-.200948E-03  mag=    79.9974
       N       E                     dE             d eps       ncg     rms          rms(c)
DAV:   1    -0.671372999306E+03   -0.12414E-03   -0.81357E-03 27248   0.106E-01    0.533E-02
RMM:   2    -0.671373028948E+03   -0.29642E-04   -0.16832E-04 15941   0.212E-02    0.321E-02
RMM:   3    -0.671373045466E+03   -0.16518E-04   -0.25843E-05 14406   0.965E-03    0.228E-02
RMM:   4    -0.671373044919E+03    0.54715E-06   -0.78455E-06 12742   0.551E-03    0.148E-02
RMM:   5    -0.671373044926E+03   -0.65193E-08   -0.27682E-06 11555   0.336E-03    0.895E-03
RMM:   6    -0.671373044892E+03    0.33528E-07   -0.74069E-07  8107   0.250E-03    0.640E-03
RMM:   7    -0.671373044367E+03    0.52480E-06   -0.23489E-07  6566   0.234E-03    0.344E-03
RMM:   8    -0.671373043937E+03    0.43074E-06   -0.24620E-08  4994   0.216E-03
  70 F= -.67137304E+03 E0= -.67095782E+03  d E =-.168527E-03  mag=    79.9977
       N       E                     dE             d eps       ncg     rms          rms(c)
DAV:   1    -0.671373061047E+03   -0.16680E-04   -0.74710E-03 27344   0.101E-01    0.512E-02
RMM:   2    -0.671373087992E+03   -0.26945E-04   -0.15681E-04 15760   0.206E-02    0.321E-02
RMM:   3    -0.671373103314E+03   -0.15322E-04   -0.24898E-05 14372   0.955E-03    0.239E-02
RMM:   4    -0.671373102326E+03    0.98813E-06   -0.77048E-06 12490   0.548E-03    0.144E-02
RMM:   5    -0.671373101989E+03    0.33667E-06   -0.25464E-06 11419   0.326E-03    0.844E-03
RMM:   6    -0.671373101753E+03    0.23609E-06   -0.50829E-07  7367   0.243E-03    0.629E-03
RMM:   7    -0.671373101224E+03    0.52899E-06   -0.14656E-07  6100   0.230E-03    0.455E-03
RMM:   8    -0.671373100746E+03    0.47823E-06   -0.36052E-08  5016   0.219E-03
  71 F= -.67137310E+03 E0= -.67095785E+03  d E =-.225337E-03  mag=    79.9979
       N       E                     dE             d eps       ncg     rms          rms(c)
DAV:   1    -0.671373259657E+03   -0.15843E-03   -0.10182E-02 27856   0.114E-01    0.642E-02
RMM:   2    -0.671373305978E+03   -0.46321E-04   -0.19857E-04 16426   0.232E-02    0.385E-02
RMM:   3    -0.671373329864E+03   -0.23886E-04   -0.29939E-05 14476   0.105E-02    0.281E-02
RMM:   4    -0.671373328554E+03    0.13094E-05   -0.96824E-06 13236   0.612E-03    0.179E-02
RMM:   5    -0.671373329168E+03   -0.61374E-06   -0.34313E-06 11755   0.350E-03    0.153E-02
RMM:   6    -0.671373328485E+03    0.68359E-06   -0.13196E-06  9717   0.276E-03    0.840E-03
RMM:   7    -0.671373328296E+03    0.18859E-06   -0.56544E-07  7507   0.245E-03    0.361E-03
RMM:   8    -0.671373328088E+03    0.20815E-06   -0.34868E-08  5151   0.213E-03
  72 F= -.67137333E+03 E0= -.67095806E+03  d E =-.227342E-03  mag=    79.9982
       N       E                     dE             d eps       ncg     rms          rms(c)
DAV:   1    -0.671373217275E+03    0.11102E-03   -0.91495E-02 26384   0.342E-01    0.192E-01
RMM:   2    -0.671373663550E+03   -0.44628E-03   -0.17282E-03 23788   0.690E-02    0.111E-01
RMM:   3    -0.671373821967E+03   -0.15842E-03   -0.26080E-04 17362   0.274E-02    0.713E-02
RMM:   4    -0.671373813527E+03    0.84401E-05   -0.81951E-05 14781   0.175E-02    0.521E-02
RMM:   5    -0.671373813597E+03   -0.70315E-07   -0.33388E-05 14411   0.100E-02    0.365E-02
RMM:   6    -0.671373812712E+03    0.88476E-06   -0.16784E-05 14123   0.689E-03    0.312E-02
RMM:   7    -0.671373807187E+03    0.55251E-05   -0.87039E-06 12994   0.525E-03    0.156E-02
RMM:   8    -0.671373804781E+03    0.24065E-05   -0.27686E-06 11751   0.338E-03
  73 F= -.67137380E+03 E0= -.67095851E+03  d E =-.704035E-03  mag=    79.9984
       N       E                     dE             d eps       ncg     rms          rms(c)
DAV:   1    -0.671371490065E+03    0.23171E-02   -0.36597E-01 25776   0.685E-01    0.385E-01
RMM:   2    -0.671373352217E+03   -0.18622E-02   -0.69042E-03 24294   0.138E-01    0.223E-01
RMM:   3    -0.671373890087E+03   -0.53787E-03   -0.10612E-03 24055   0.551E-02    0.137E-01
RMM:   4    -0.671373852363E+03    0.37725E-04   -0.30774E-04 18758   0.310E-02    0.101E-01
RMM:   5    -0.671373836522E+03    0.15841E-04   -0.12236E-04 15428   0.190E-02    0.665E-02
RMM:   6    -0.671373837472E+03   -0.95041E-06   -0.65808E-05 14637   0.131E-02    0.634E-02
RMM:   7    -0.671373812214E+03    0.25257E-04   -0.32277E-05 14440   0.990E-03    0.309E-02
RMM:   8    -0.671373806186E+03    0.60289E-05   -0.10880E-05 13658   0.596E-03
  74 F= -.67137381E+03 E0= -.67095846E+03  d E =-.705440E-03  mag=    79.9988
       N       E                     dE             d eps       ncg     rms          rms(c)
DAV:   1    -0.671373347817E+03    0.46440E-03   -0.90827E-02 27552   0.341E-01    0.192E-01
RMM:   2    -0.671373782703E+03   -0.43489E-03   -0.17050E-03 23775   0.690E-02    0.118E-01
RMM:   3    -0.671373963685E+03   -0.18098E-03   -0.27777E-04 17815   0.288E-02    0.104E-01
RMM:   4    -0.671373920504E+03    0.43181E-04   -0.89051E-05 14823   0.183E-02    0.533E-02
RMM:   5    -0.671373927308E+03   -0.68042E-05   -0.35180E-05 14334   0.985E-03    0.471E-02
RMM:   6    -0.671373919432E+03    0.78767E-05   -0.19684E-05 13903   0.802E-03    0.235E-02
RMM:   7    -0.671373924389E+03   -0.49579E-05   -0.11481E-05 13133   0.568E-03    0.148E-02
RMM:   8    -0.671373926302E+03   -0.19125E-05   -0.33181E-06 11870   0.376E-03
  75 F= -.67137393E+03 E0= -.67095861E+03  d E =-.825556E-03  mag=    79.9991
       N       E                     dE             d eps       ncg     rms          rms(c)
DAV:   1    -0.671373960549E+03   -0.36159E-04   -0.20775E-04 22464   0.165E-02    0.109E-02
RMM:   2    -0.671373964678E+03   -0.41295E-05   -0.81476E-06 13771   0.536E-03    0.143E-02
RMM:   3    -0.671373965585E+03   -0.90664E-06   -0.19140E-06 10307   0.288E-03    0.105E-02
RMM:   4    -0.671373965983E+03   -0.39814E-06   -0.52041E-08  5307   0.191E-03    0.361E-03
RMM:   5    -0.671373966814E+03   -0.83121E-06   -0.78291E-08  5448   0.193E-03    0.268E-03
RMM:   6    -0.671373968398E+03   -0.15837E-05   -0.48910E-09  4991   0.185E-03    0.199E-03
RMM:   7    -0.671373969847E+03   -0.14491E-05   -0.28046E-08  5166   0.195E-03    0.133E-03
RMM:   8    -0.671373970703E+03   -0.85635E-06   -0.16420E-08  5073   0.195E-03
  76 F= -.67137397E+03 E0= -.67095865E+03  d E =-.444013E-04  mag=    79.9993
       N       E                     dE             d eps       ncg     rms          rms(c)
DAV:   1    -0.671374063875E+03   -0.94028E-04   -0.18862E-03 25808   0.478E-02    0.283E-02
RMM:   2    -0.671374072682E+03   -0.88075E-05   -0.36713E-05 14569   0.101E-02    0.166E-02
RMM:   3    -0.671374078241E+03   -0.55586E-05   -0.52317E-06 12894   0.445E-03    0.109E-02
RMM:   4    -0.671374078406E+03   -0.16578E-06   -0.10955E-06  9097   0.272E-03    0.695E-03
RMM:   5    -0.671374078980E+03   -0.57323E-06   -0.51229E-08  5711   0.209E-03    0.652E-03
RMM:   6    -0.671374079375E+03   -0.39488E-06   -0.53046E-08  5278   0.209E-03    0.415E-03
RMM:   7    -0.671374079670E+03   -0.29523E-06   -0.34791E-08  5027   0.206E-03    0.168E-03
RMM:   8    -0.671374079970E+03   -0.30035E-06   -0.98422E-09  4846   0.206E-03
  77 F= -.67137408E+03 E0= -.67095876E+03  d E =-.153668E-03  mag=    79.9996
[...]
RMM:   8    -0.671398928157E+03    0.50780E-05   -0.49815E-06 12479   0.432E-03
 128 F= -.67139893E+03 E0= -.67098351E+03  d E =-.886089E-03  mag=    80.0172
       N       E                     dE             d eps       ncg     rms          rms(c)
DAV:   1    -0.671399013903E+03   -0.80668E-04   -0.32034E-02 27136   0.206E-01    0.112E-01
RMM:   2    -0.671399173283E+03   -0.15938E-03   -0.67872E-04 22133   0.417E-02    0.734E-02
RMM:   3    -0.671399223779E+03   -0.50495E-04   -0.10919E-04 15024   0.182E-02    0.643E-02
RMM:   4    -0.671399207727E+03    0.16052E-04   -0.37896E-05 14475   0.124E-02    0.315E-02
RMM:   5    -0.671399211553E+03   -0.38268E-05   -0.14173E-05 13598   0.617E-03    0.308E-02
RMM:   6    -0.671399209249E+03    0.23041E-05   -0.76196E-06 12743   0.509E-03    0.180E-02
RMM:   7    -0.671399213846E+03   -0.45970E-05   -0.46111E-06 12294   0.382E-03    0.103E-02
RMM:   8    -0.671399217046E+03   -0.31996E-05   -0.99043E-07  9017   0.259E-03
 129 F= -.67139922E+03 E0= -.67098380E+03  d E =-.117498E-02  mag=    80.0173
       N       E                     dE             d eps       ncg     rms          rms(c)
DAV:   1    -0.671399477784E+03   -0.26394E-03   -0.12311E-03 25904   0.417E-02    0.180E-02
RMM:   2    -0.671399487615E+03   -0.98310E-05   -0.26613E-05 14273   0.835E-03    0.138E-02
RMM:   3    -0.671399491716E+03   -0.41011E-05   -0.44875E-06 12568   0.425E-03    0.142E-02
RMM:   4    -0.671399493015E+03   -0.12992E-05   -0.64013E-07  7973   0.246E-03    0.512E-03
RMM:   5    -0.671399496668E+03   -0.36526E-05   -0.57977E-08  5084   0.201E-03    0.521E-03
RMM:   6    -0.671399501878E+03   -0.52103E-05   -0.27836E-08  4893   0.199E-03    0.301E-03
RMM:   7    -0.671399505848E+03   -0.39702E-05   -0.88646E-08  5131   0.200E-03    0.189E-03
RMM:   8    -0.671399508842E+03   -0.29937E-05   -0.42570E-08  4785   0.199E-03
 130 F= -.67139951E+03 E0= -.67098410E+03  d E =-.291796E-03  mag=    80.0173
       N       E                     dE             d eps       ncg     rms          rms(c)
DAV:   1    -0.671400016004E+03   -0.51016E-03   -0.11066E-02 27104   0.124E-01    0.533E-02
RMM:   2    -0.671400064431E+03   -0.48427E-04   -0.22962E-04 16255   0.237E-02    0.329E-02
RMM:   3    -0.671400078471E+03   -0.14040E-04   -0.32047E-05 14409   0.107E-02    0.233E-02
RMM:   4    -0.671400080798E+03   -0.23274E-05   -0.87089E-06 12888   0.566E-03    0.182E-02
RMM:   5    -0.671400085435E+03   -0.46366E-05   -0.34900E-06 11761   0.356E-03    0.135E-02
RMM:   6    -0.671400090373E+03   -0.49379E-05   -0.11879E-06  9343   0.266E-03    0.797E-03
RMM:   7    -0.671400094627E+03   -0.42543E-05   -0.53263E-07  7423   0.243E-03    0.396E-03
RMM:   8    -0.671400097695E+03   -0.30678E-05   -0.33632E-08  5168   0.212E-03
 131 F= -.67140010E+03 E0= -.67098468E+03  d E =-.880649E-03  mag=    80.0174
       N       E                     dE             d eps       ncg     rms          rms(c)
DAV:   1    -0.671399939523E+03    0.15510E-03   -0.44226E-02 27200   0.248E-01    0.106E-01
RMM:   2    -0.671400115583E+03   -0.17606E-03   -0.89324E-04 22792   0.469E-02    0.644E-02
RMM:   3    -0.671400162020E+03   -0.46437E-04   -0.12943E-04 15137   0.188E-02    0.432E-02
RMM:   4    -0.671400164996E+03   -0.29765E-05   -0.37902E-05 14327   0.120E-02    0.369E-02
RMM:   5    -0.671400167868E+03   -0.28722E-05   -0.14477E-05 13527   0.654E-03    0.258E-02
RMM:   6    -0.671400172664E+03   -0.47954E-05   -0.72918E-06 12647   0.480E-03    0.172E-02
RMM:   7    -0.671400177482E+03   -0.48182E-05   -0.41452E-06 12240   0.384E-03    0.104E-02
RMM:   8    -0.671400180519E+03   -0.30366E-05   -0.10878E-06  9532   0.264E-03
 132 F= -.67140018E+03 E0= -.67098475E+03  d E =-.963473E-03  mag=    80.0175
       N       E                     dE             d eps       ncg     rms          rms(c)
DAV:   1    -0.671400294975E+03   -0.11749E-03   -0.98660E-03 27200   0.117E-01    0.503E-02
RMM:   2    -0.671400334944E+03   -0.39970E-04   -0.20099E-04 15853   0.221E-02    0.328E-02
RMM:   3    -0.671400347543E+03   -0.12598E-04   -0.29630E-05 14336   0.103E-02    0.294E-02
RMM:   4    -0.671400344225E+03    0.33183E-05   -0.77012E-06 12853   0.538E-03    0.161E-02
RMM:   5    -0.671400347196E+03   -0.29709E-05   -0.30380E-06 11503   0.324E-03    0.133E-02
RMM:   6    -0.671400349570E+03   -0.23739E-05   -0.14619E-06 10062   0.279E-03    0.737E-03
RMM:   7    -0.671400353278E+03   -0.37081E-05   -0.33795E-07  6810   0.233E-03    0.332E-03
RMM:   8    -0.671400356124E+03   -0.28466E-05   -0.67071E-08  5323   0.207E-03
 133 F= -.67140036E+03 E0= -.67098493E+03  d E =-.113908E-02  mag=    80.0176
       N       E                     dE             d eps       ncg     rms          rms(c)
DAV:   1    -0.671400647670E+03   -0.29439E-03   -0.28410E-03 26496   0.619E-02    0.283E-02
RMM:   2    -0.671400663518E+03   -0.15849E-04   -0.56595E-05 14615   0.120E-02    0.176E-02
RMM:   3    -0.671400670110E+03   -0.65914E-05   -0.81933E-06 12985   0.565E-03    0.140E-02
RMM:   4    -0.671400672173E+03   -0.20633E-05   -0.21865E-06 11088   0.323E-03    0.898E-03
RMM:   5    -0.671400677282E+03   -0.51088E-05   -0.14973E-07  5962   0.212E-03    0.703E-03
RMM:   6    -0.671400681228E+03   -0.39460E-05   -0.23394E-07  6065   0.218E-03    0.461E-03
RMM:   7    -0.671400685338E+03   -0.41099E-05   -0.59476E-08  5116   0.207E-03    0.210E-03
RMM:   8    -0.671400688508E+03   -0.31698E-05   -0.64050E-08  5058   0.208E-03
 134 F= -.67140069E+03 E0= -.67098526E+03  d E =-.332383E-03  mag=    80.0177
       N       E                     dE             d eps       ncg     rms          rms(c)
DAV:   1    -0.671400941385E+03   -0.25605E-03   -0.25040E-02 27040   0.183E-01    0.843E-02
RMM:   2    -0.671401046196E+03   -0.10481E-03   -0.48872E-04 20173   0.350E-02    0.494E-02
RMM:   3    -0.671401078673E+03   -0.32477E-04   -0.70178E-05 14714   0.146E-02    0.311E-02
RMM:   4    -0.671401081984E+03   -0.33113E-05   -0.21992E-05 13796   0.916E-03    0.274E-02
RMM:   5    -0.671401086189E+03   -0.42049E-05   -0.81352E-06 12743   0.517E-03    0.166E-02
RMM:   6    -0.671401091937E+03   -0.57481E-05   -0.38386E-06 11970   0.352E-03    0.163E-02
RMM:   7    -0.671401094600E+03   -0.26631E-05   -0.20114E-06 11438   0.296E-03    0.653E-03
RMM:   8    -0.671401097299E+03   -0.26985E-05   -0.95756E-09  5486   0.197E-03
 135 F= -.67140110E+03 E0= -.67098566E+03  d E =-.741174E-03  mag=    80.0178
       N       E                     dE             d eps       ncg     rms          rms(c)
DAV:   1    -0.671401316763E+03   -0.22216E-03   -0.33316E-03 26576   0.671E-02    0.334E-02
RMM:   2    -0.671401334409E+03   -0.17646E-04   -0.67641E-05 14767   0.138E-02    0.211E-02
RMM:   3    -0.671401341647E+03   -0.72382E-05   -0.10530E-05 13800   0.646E-03    0.190E-02
RMM:   4    -0.671401342416E+03   -0.76881E-06   -0.31298E-06 11753   0.370E-03    0.112E-02
RMM:   5    -0.671401346180E+03   -0.37644E-05   -0.32200E-07  6901   0.226E-03    0.751E-03
RMM:   6    -0.671401349934E+03   -0.37542E-05   -0.20925E-07  6088   0.219E-03    0.487E-03
RMM:   7    -0.671401353193E+03   -0.32582E-05   -0.29354E-08  5146   0.206E-03    0.255E-03
RMM:   8    -0.671401355819E+03   -0.26268E-05   -0.68714E-08  5136   0.210E-03
 136 F= -.67140136E+03 E0= -.67098592E+03  d E =-.258521E-03  mag=    80.0179
       N       E                     dE             d eps       ncg     rms          rms(c)
DAV:   1    -0.671401510937E+03   -0.15774E-03   -0.23373E-02 27328   0.178E-01    0.881E-02
RMM:   2    -0.671401610310E+03   -0.99373E-04   -0.45519E-04 20045   0.357E-02    0.511E-02
RMM:   3    -0.671401645896E+03   -0.35585E-04   -0.67757E-05 14727   0.147E-02    0.333E-02
RMM:   4    -0.671401646557E+03   -0.66124E-06   -0.23590E-05 14101   0.963E-03    0.267E-02
RMM:   5    -0.671401649981E+03   -0.34240E-05   -0.87547E-06 12838   0.541E-03    0.147E-02
RMM:   6    -0.671401653571E+03   -0.35898E-05   -0.40107E-06 11963   0.370E-03    0.129E-02
RMM:   7    -0.671401656479E+03   -0.29085E-05   -0.14958E-06 10407   0.282E-03    0.842E-03
RMM:   8    -0.671401658467E+03   -0.19884E-05   -0.32976E-08  5565   0.206E-03
 137 F= -.67140166E+03 E0= -.67098620E+03  d E =-.561169E-03  mag=    80.0181
       N       E                     dE             d eps       ncg     rms          rms(c)
DAV:   1    -0.671401917355E+03   -0.26088E-03   -0.78885E-03 27168   0.101E-01    0.544E-02
RMM:   2    -0.671401956794E+03   -0.39440E-04   -0.15305E-04 15764   0.208E-02    0.334E-02
RMM:   3    -0.671401973200E+03   -0.16405E-04   -0.24979E-05 14483   0.968E-03    0.308E-02
RMM:   4    -0.671401970446E+03    0.27539E-05   -0.81052E-06 12868   0.567E-03    0.160E-02
RMM:   5    -0.671401973756E+03   -0.33099E-05   -0.26215E-06 11279   0.316E-03    0.144E-02
RMM:   6    -0.671401975876E+03   -0.21202E-05   -0.14745E-06 10182   0.282E-03    0.646E-03
RMM:   7    -0.671401978850E+03   -0.29742E-05   -0.14733E-07  6020   0.222E-03    0.298E-03
RMM:   8    -0.671401981019E+03   -0.21691E-05   -0.69764E-09  4930   0.203E-03
 138 F= -.67140198E+03 E0= -.67098650E+03  d E =-.322551E-03  mag=    80.0182
       N       E                     dE             d eps       ncg     rms          rms(c)
DAV:   1    -0.671402053911E+03   -0.75061E-04   -0.32332E-02 27328   0.204E-01    0.110E-01
RMM:   2    -0.671402204128E+03   -0.15022E-03   -0.60936E-04 21597   0.417E-02    0.652E-02
RMM:   3    -0.671402254226E+03   -0.50098E-04   -0.97190E-05 14994   0.175E-02    0.482E-02
RMM:   4    -0.671402250805E+03    0.34207E-05   -0.38559E-05 14338   0.124E-02    0.316E-02
RMM:   5    -0.671402251866E+03   -0.10608E-05   -0.12961E-05 13325   0.638E-03    0.189E-02
RMM:   6    -0.671402253885E+03   -0.20196E-05   -0.65490E-06 12551   0.450E-03    0.151E-02
RMM:   7    -0.671402256011E+03   -0.21262E-05   -0.28180E-06 11664   0.343E-03    0.109E-02
RMM:   8    -0.671402257200E+03   -0.11884E-05   -0.86571E-08  6218   0.219E-03
 139 F= -.67140226E+03 E0= -.67098672E+03  d E =-.598732E-03  mag=    80.0184
       N       E                     dE             d eps       ncg     rms          rms(c)
DAV:   1    -0.671402463191E+03   -0.20718E-03   -0.73513E-03 27312   0.967E-02    0.531E-02
RMM:   2    -0.671402498461E+03   -0.35270E-04   -0.14160E-04 15641   0.200E-02    0.326E-02
RMM:   3    -0.671402515654E+03   -0.17193E-04   -0.22775E-05 14480   0.925E-03    0.294E-02
RMM:   4    -0.671402513292E+03    0.23628E-05   -0.75238E-06 12765   0.549E-03    0.158E-02
RMM:   5    -0.671402516335E+03   -0.30431E-05   -0.24189E-06 11144   0.306E-03    0.140E-02
RMM:   6    -0.671402518055E+03   -0.17206E-05   -0.12119E-06  9652   0.274E-03    0.592E-03
RMM:   7    -0.671402520631E+03   -0.25760E-05   -0.17851E-07  6080   0.223E-03    0.319E-03
RMM:   8    -0.671402522388E+03   -0.17569E-05   -0.16258E-08  5054   0.205E-03
 140 F= -.67140252E+03 E0= -.67098698E+03  d E =-.265189E-03  mag=    80.0187
       N       E                     dE             d eps       ncg     rms          rms(c)
DAV:   1    -0.671402532985E+03   -0.12354E-04   -0.30908E-02 27216   0.198E-01    0.108E-01
RMM:   2    -0.671402673731E+03   -0.14075E-03   -0.57666E-04 21383   0.407E-02    0.644E-02
RMM:   3    -0.671402728498E+03   -0.54767E-04   -0.92309E-05 14930   0.171E-02    0.487E-02
RMM:   4    -0.671402724350E+03    0.41472E-05   -0.36487E-05 14314   0.121E-02    0.305E-02
RMM:   5    -0.671402725380E+03   -0.10300E-05   -0.12586E-05 13308   0.611E-03    0.202E-02
RMM:   6    -0.671402726592E+03   -0.12121E-05   -0.57662E-06 12501   0.430E-03    0.172E-02
RMM:   7    -0.671402726960E+03   -0.36741E-06   -0.25977E-06 11639   0.317E-03    0.105E-02
RMM:   8    -0.671402728160E+03   -0.12005E-05   -0.99500E-08  6276   0.220E-03
 141 F= -.67140273E+03 E0= -.67098716E+03  d E =-.470961E-03  mag=    80.0189
       N       E                     dE             d eps       ncg     rms          rms(c)
DAV:   1    -0.671402890851E+03   -0.16389E-03   -0.11101E-02 26992   0.119E-01    0.650E-02
RMM:   2    -0.671402942477E+03   -0.51626E-04   -0.21231E-04 16527   0.243E-02    0.407E-02
RMM:   3    -0.671402967243E+03   -0.24766E-04   -0.34308E-05 14541   0.111E-02    0.398E-02
RMM:   4    -0.671402961960E+03    0.52839E-05   -0.11814E-05 13712   0.682E-03    0.203E-02
RMM:   5    -0.671402964503E+03   -0.25434E-05   -0.41995E-06 12061   0.366E-03    0.166E-02
RMM:   6    -0.671402966107E+03   -0.16042E-05   -0.23101E-06 11514   0.317E-03    0.829E-03
RMM:   7    -0.671402968961E+03   -0.28536E-05   -0.55256E-07  7838   0.245E-03    0.422E-03
RMM:   8    -0.671402971065E+03   -0.21039E-05   -0.24417E-08  5306   0.206E-03
 142 F= -.67140297E+03 E0= -.67098741E+03  d E =-.242904E-03  mag=    80.0192
       N       E                     dE             d eps       ncg     rms          rms(c)
DAV:   1    -0.671402943898E+03    0.25063E-04   -0.25473E-02 27296   0.180E-01    0.982E-02
RMM:   2    -0.671403057595E+03   -0.11370E-03   -0.47675E-04 20278   0.364E-02    0.575E-02
RMM:   3    -0.671403104204E+03   -0.46609E-04   -0.72277E-05 14741   0.152E-02    0.423E-02
RMM:   4    -0.671403102301E+03    0.19032E-05   -0.26767E-05 14319   0.104E-02    0.299E-02
RMM:   5    -0.671403104627E+03   -0.23264E-05   -0.10015E-05 13168   0.545E-03    0.237E-02
RMM:   6    -0.671403105469E+03   -0.84192E-06   -0.46040E-06 12252   0.401E-03    0.148E-02
RMM:   7    -0.671403107932E+03   -0.24633E-05   -0.23873E-06 11471   0.306E-03    0.840E-03
RMM:   8    -0.671403110044E+03   -0.21113E-05   -0.15336E-07  6490   0.225E-03
 143 F= -.67140311E+03 E0= -.67098754E+03  d E =-.381883E-03  mag=    80.0195
       N       E                     dE             d eps       ncg     rms          rms(c)
DAV:   1    -0.671403231811E+03   -0.12388E-03   -0.11126E-02 27072   0.120E-01    0.635E-02
RMM:   2    -0.671403280506E+03   -0.48695E-04   -0.22324E-04 16513   0.249E-02    0.390E-02
RMM:   3    -0.671403306745E+03   -0.26239E-04   -0.35198E-05 14553   0.113E-02    0.357E-02
RMM:   4    -0.671403304240E+03    0.25043E-05   -0.11617E-05 13622   0.676E-03    0.195E-02
RMM:   5    -0.671403307230E+03   -0.29895E-05   -0.39515E-06 11997   0.356E-03    0.153E-02
RMM:   6    -0.671403308702E+03   -0.14724E-05   -0.19739E-06 11173   0.299E-03    0.836E-03
RMM:   7    -0.671403310323E+03   -0.16205E-05   -0.42115E-07  7348   0.241E-03    0.385E-03
RMM:   8    -0.671403311100E+03   -0.77765E-06   -0.28932E-08  5276   0.210E-03
 144 F= -.67140331E+03 E0= -.67098775E+03  d E =-.201057E-03  mag=    80.0198
       N       E                     dE             d eps       ncg     rms          rms(c)
DAV:   1    -0.671403317104E+03   -0.67810E-05   -0.52305E-03 27408   0.824E-02    0.435E-02
RMM:   2    -0.671403339031E+03   -0.21928E-04   -0.10650E-04 15194   0.170E-02    0.263E-02
RMM:   3    -0.671403351138E+03   -0.12107E-04   -0.16397E-05 14278   0.781E-03    0.203E-02
RMM:   4    -0.671403351003E+03    0.13458E-06   -0.50430E-06 12047   0.455E-03    0.123E-02
RMM:   5    -0.671403352495E+03   -0.14915E-05   -0.13719E-06  9671   0.275E-03    0.106E-02
RMM:   6    -0.671403353113E+03   -0.61840E-06   -0.29412E-07  6613   0.231E-03    0.633E-03
RMM:   7    -0.671403353475E+03   -0.36182E-06   -0.10216E-07  5432   0.221E-03    0.333E-03
RMM:   8    -0.671403353625E+03   -0.15041E-06   -0.10183E-07  5284   0.214E-03
 145 F= -.67140335E+03 E0= -.67098779E+03  d E =-.243582E-03  mag=    80.0200
       N       E                     dE             d eps       ncg     rms          rms(c)
DAV:   1    -0.671403467514E+03   -0.11404E-03   -0.69636E-03 27408   0.969E-02    0.481E-02
RMM:   2    -0.671403496893E+03   -0.29379E-04   -0.14374E-04 15487   0.194E-02    0.294E-02
RMM:   3    -0.671403509715E+03   -0.12822E-04   -0.20576E-05 14424   0.873E-03    0.231E-02
RMM:   4    -0.671403509311E+03    0.40326E-06   -0.61315E-06 12824   0.492E-03    0.154E-02
RMM:   5    -0.671403510189E+03   -0.87777E-06   -0.21021E-06 10746   0.295E-03    0.117E-02
RMM:   6    -0.671403510449E+03   -0.25984E-06   -0.72469E-07  8273   0.253E-03    0.617E-03
RMM:   7    -0.671403510405E+03    0.44238E-07   -0.18590E-07  6011   0.227E-03    0.342E-03
RMM:   8    -0.671403510065E+03    0.33993E-06   -0.41737E-08  5063   0.214E-03
 146 F= -.67140351E+03 E0= -.67098793E+03  d E =-.156439E-03  mag=    80.0203
       N       E                     dE             d eps       ncg     rms          rms(c)
DAV:   1    -0.671403523350E+03   -0.12945E-04   -0.33033E-03 27216   0.668E-02    0.332E-02
RMM:   2    -0.671403537215E+03   -0.13865E-04   -0.69865E-05 14831   0.136E-02    0.202E-02
RMM:   3    -0.671403543476E+03   -0.62617E-05   -0.10033E-05 14085   0.611E-03    0.149E-02
RMM:   4    -0.671403543497E+03   -0.20955E-07   -0.27593E-06 11491   0.346E-03    0.104E-02
RMM:   5    -0.671403543792E+03   -0.29430E-06   -0.27803E-07  6661   0.227E-03    0.798E-03
RMM:   6    -0.671403543964E+03   -0.17183E-06   -0.12906E-07  5718   0.217E-03    0.553E-03
RMM:   7    -0.671403543578E+03    0.38557E-06   -0.32317E-08  5102   0.207E-03    0.284E-03
RMM:   8    -0.671403543219E+03    0.35856E-06   -0.11860E-07  5302   0.216E-03
 147 F= -.67140354E+03 E0= -.67098796E+03  d E =-.189594E-03  mag=    80.0205
       N       E                     dE             d eps       ncg     rms          rms(c)
DAV:   1    -0.671403610970E+03   -0.67392E-04   -0.61776E-03 27056   0.920E-02    0.456E-02
RMM:   2    -0.671403635827E+03   -0.24857E-04   -0.13150E-04 15383   0.189E-02    0.261E-02
RMM:   3    -0.671403646237E+03   -0.10410E-04   -0.17300E-05 14402   0.804E-03    0.136E-02
RMM:   4    -0.671403647837E+03   -0.16000E-05   -0.50344E-06 12560   0.441E-03    0.150E-02
RMM:   5    -0.671403649118E+03   -0.12815E-05   -0.21840E-06 11423   0.318E-03    0.782E-03
RMM:   6    -0.671403651353E+03   -0.22347E-05   -0.12530E-07  5916   0.213E-03    0.641E-03
RMM:   7    -0.671403652337E+03   -0.98394E-06   -0.49866E-08  5188   0.208E-03    0.432E-03
RMM:   8    -0.671403653306E+03   -0.96951E-06   -0.15668E-08  5009   0.198E-03
 148 F= -.67140365E+03 E0= -.67098807E+03  d E =-.110087E-03  mag=    80.0208
       N       E                     dE             d eps       ncg     rms          rms(c)
DAV:   1    -0.671403657755E+03   -0.54180E-05   -0.75746E-04 25792   0.323E-02    0.161E-02
RMM:   2    -0.671403662188E+03   -0.44331E-05   -0.17855E-05 14400   0.709E-03    0.105E-02
RMM:   3    -0.671403664396E+03   -0.22082E-05   -0.24778E-06 11604   0.333E-03    0.808E-03
RMM:   4    -0.671403664905E+03   -0.50897E-06   -0.22773E-07  6392   0.217E-03    0.423E-03
RMM:   5    -0.671403666141E+03   -0.12363E-05   -0.18249E-09  4572   0.192E-03    0.432E-03
RMM:   6    -0.671403667683E+03   -0.15413E-05   -0.19150E-09  4779   0.186E-03    0.262E-03
RMM:   7    -0.671403669260E+03   -0.15772E-05   -0.47224E-09  4772   0.193E-03    0.135E-03
RMM:   8    -0.671403670194E+03   -0.93412E-06   -0.35760E-09  4679   0.196E-03
 149 F= -.67140367E+03 E0= -.67098808E+03  d E =-.126975E-03  mag=    80.0210
       N       E                     dE             d eps       ncg     rms          rms(c)
DAV:   1    -0.671403715371E+03   -0.46111E-04   -0.55511E-03 26832   0.870E-02    0.442E-02
RMM:   2    -0.671403740538E+03   -0.25167E-04   -0.11489E-04 15212   0.179E-02    0.253E-02
RMM:   3    -0.671403750454E+03   -0.99158E-05   -0.15336E-05 14332   0.769E-03    0.159E-02
RMM:   4    -0.671403751730E+03   -0.12764E-05   -0.46820E-06 12190   0.431E-03    0.148E-02
RMM:   5    -0.671403753677E+03   -0.19465E-05   -0.16499E-06 10481   0.287E-03    0.898E-03
RMM:   6    -0.671403755501E+03   -0.18240E-05   -0.30970E-07  6521   0.225E-03    0.634E-03
RMM:   7    -0.671403756828E+03   -0.13267E-05   -0.76803E-08  5200   0.211E-03    0.313E-03
RMM:   8    -0.671403757608E+03   -0.78045E-06   -0.24789E-08  4925   0.201E-03
 150 F= -.67140376E+03 E0= -.67098817E+03  d E =-.874139E-04  mag=    80.0212
