 ----------------------------------------------------
    OOO  PPPP  EEEEE N   N M   M PPPP
   O   O P   P E     NN  N MM MM P   P
   O   O PPPP  EEEEE N N N M M M PPPP   -- VERSION
   O   O P     E     N  NN M   M P
    OOO  P     EEEEE N   N M   M P
 ----------------------------------------------------
 running   16 mpi-ranks, with    4 threads/rank
 distrk:  each k-point on   16 cores,    1 groups
 distr:  one band on    1 cores,   16 groups
 vasp.6.2.1 16May21 (build Jul 28 2021 23:24:15) complex                        
  
 POSCAR found type information on POSCAR IrO 
 POSCAR found :  2 types and      96 ions
 scaLAPACK will be used
 -----------------------------------------------------------------------------
|                                                                             |
|           W    W    AA    RRRRR   N    N  II  N    N   GGGG   !!!           |
|           W    W   A  A   R    R  NN   N  II  NN   N  G    G  !!!           |
|           W    W  A    A  R    R  N N  N  II  N N  N  G       !!!           |
|           W WW W  AAAAAA  RRRRR   N  N N  II  N  N N  G  GGG   !            |
|           WW  WW  A    A  R   R   N   NN  II  N   NN  G    G                |
|           W    W  A    A  R    R  N    N  II  N    N   GGGG   !!!           |
|                                                                             |
|     The real-space projection scheme for the treatment of the non-local     |
|     pseudopotentials has been switched on but on file POTCAR I have not     |
|     found any entries, signalling me that you have never performed a        |
|     real-space optimization of all non-local projectors! BE WARNED that     |
|     a calculation using the real-space projection scheme together with      |
|     non-local projectors which were not real-space optimized (according     |
|     to the plane-wave cutoff used in this calculation) might give more      |
|     or less inaccurate results. I hope you know what you are doing.         |
|                                                                             |
 -----------------------------------------------------------------------------

 LDA part: xc-table for Pade appr. of Perdew
 POSCAR, INCAR and KPOINTS ok, starting setup
 FFT: planning ...
 WAVECAR not read
 WARNING: random wavefunctions but no delay for mixing, default for NELMDL
 entering main loop
       N       E                     dE             d eps       ncg     rms          rms(c)
DAV:   1     0.721577938483E+04    0.72158E+04   -0.28223E+05 12752   0.124E+03
DAV:   2     0.591922027976E+03   -0.66239E+04   -0.59672E+04 13600   0.370E+02
DAV:   3    -0.707352306951E+03   -0.12993E+04   -0.12445E+04 15648   0.163E+02
DAV:   4    -0.780211309097E+03   -0.72859E+02   -0.70894E+02 17280   0.432E+01
DAV:   5    -0.781884164450E+03   -0.16729E+01   -0.16509E+01 16192   0.609E+00    0.173E+02
RMM:   6    -0.610749701744E+03    0.17113E+03   -0.59227E+02 12603   0.389E+01    0.128E+02
RMM:   7    -0.629994590934E+03   -0.19245E+02   -0.11584E+02 12556   0.241E+01    0.600E+01
RMM:   8    -0.637287451738E+03   -0.72929E+01   -0.51704E+01 12611   0.113E+01    0.107E+02
RMM:   9    -0.582674526175E+03    0.54613E+02   -0.20431E+01 12555   0.925E+00    0.202E+01
RMM:  10    -0.588210125365E+03   -0.55356E+01   -0.93578E+00 13168   0.361E+00    0.127E+01
RMM:  11    -0.605416430800E+03   -0.17206E+02   -0.60372E+00 13113   0.378E+00    0.136E+01
RMM:  12    -0.610141923728E+03   -0.47255E+01   -0.29499E+00 12624   0.266E+00    0.104E+01
RMM:  13    -0.617581326704E+03   -0.74394E+01   -0.30667E+00 13153   0.257E+00    0.111E+01
RMM:  14    -0.622583335387E+03   -0.50020E+01   -0.39267E+00 13934   0.266E+00    0.930E+00
RMM:  15    -0.624491430321E+03   -0.19081E+01   -0.61292E-01 12718   0.128E+00    0.131E+01
RMM:  16    -0.625610372944E+03   -0.11189E+01   -0.78515E-01 13059   0.136E+00    0.850E+00
RMM:  17    -0.632443000815E+03   -0.68326E+01   -0.14692E+00 14283   0.165E+00    0.720E+00
RMM:  18    -0.640810915093E+03   -0.83679E+01   -0.37294E+00 16142   0.224E+00    0.480E+00
RMM:  19    -0.643625821136E+03   -0.28149E+01   -0.83521E-01 14034   0.115E+00    0.471E+00
RMM:  20    -0.645517288794E+03   -0.18915E+01   -0.60546E-01 13854   0.958E-01    0.292E+00
RMM:  21    -0.647903974608E+03   -0.23867E+01   -0.61673E-01 14288   0.871E-01    0.332E+00
RMM:  22    -0.649130937918E+03   -0.12270E+01   -0.38085E-01 13981   0.721E-01    0.235E+00
RMM:  23    -0.650152011907E+03   -0.10211E+01   -0.27538E-01 13938   0.596E-01    0.190E+00
RMM:  24    -0.650698107311E+03   -0.54610E+00   -0.10611E-01 13198   0.396E-01    0.173E+00
RMM:  25    -0.651340950900E+03   -0.64284E+00   -0.18811E-01 14351   0.449E-01    0.149E+00
RMM:  26    -0.651691870679E+03   -0.35092E+00   -0.13070E-01 14177   0.376E-01    0.147E+00
RMM:  27    -0.651879557333E+03   -0.18769E+00   -0.81066E-02 14102   0.279E-01    0.995E-01
RMM:  28    -0.651989534941E+03   -0.10998E+00   -0.19319E-02 13193   0.161E-01    0.829E-01
RMM:  29    -0.652027615265E+03   -0.38080E-01   -0.73580E-03 13076   0.124E-01    0.634E-01
RMM:  30    -0.652054117105E+03   -0.26502E-01   -0.39411E-03 12691   0.987E-02    0.511E-01
RMM:  31    -0.652077473676E+03   -0.23357E-01   -0.23046E-03 12316   0.719E-02    0.395E-01
RMM:  32    -0.652109943405E+03   -0.32470E-01   -0.14422E-03 11762   0.546E-02    0.278E-01
RMM:  33    -0.652157004606E+03   -0.47061E-01   -0.11520E-03 11582   0.403E-02    0.202E-01
RMM:  34    -0.652211023516E+03   -0.54019E-01   -0.66875E-04 10627   0.321E-02    0.156E-01
RMM:  35    -0.652279817786E+03   -0.68794E-01   -0.54279E-04  9989   0.280E-02    0.102E-01
RMM:  36    -0.652304758269E+03   -0.24940E-01   -0.18997E-04  8439   0.191E-02    0.628E-02
RMM:  37    -0.652312107436E+03   -0.73492E-02   -0.79743E-05  7756   0.139E-02    0.373E-02
RMM:  38    -0.652314911125E+03   -0.28037E-02   -0.39994E-05  7562   0.959E-03    0.244E-02
RMM:  39    -0.652316116607E+03   -0.12055E-02   -0.22518E-05  6697   0.734E-03    0.192E-02
RMM:  40    -0.652316630232E+03   -0.51362E-03   -0.14068E-05  6300   0.574E-03    0.139E-02
RMM:  41    -0.652316765487E+03   -0.13526E-03   -0.70131E-06  5593   0.437E-03    0.961E-03
RMM:  42    -0.652316822817E+03   -0.57330E-04   -0.30920E-06  4309   0.342E-03
   1 F= -.65231682E+03 E0= -.65168812E+03  d E =-.652317E+03  mag=     0.0000
 curvature:   0.00 expect dE= 0.000E+00 dE for cont linesearch  0.000E+00
 trial: gam= 0.00000 g(F)=  0.114E+02 g(S)=  0.000E+00 ort = 0.000E+00 (trialstep = 0.100E+01)
 search vector abs. value=  0.114E+02
 bond charge predicted
       N       E                     dE             d eps       ncg     rms          rms(c)
DAV:   1    -0.649443824174E+03    0.28729E+01   -0.24999E+03 12640   0.723E+01    0.156E+01
RMM:   2    -0.663472790276E+03   -0.14029E+02   -0.70529E+01 12544   0.177E+01    0.488E+01
RMM:   3    -0.657234592544E+03    0.62382E+01   -0.22092E+01 14906   0.767E+00    0.224E+01
RMM:   4    -0.657687253957E+03   -0.45266E+00   -0.29980E+00 12733   0.304E+00    0.249E+01
RMM:   5    -0.655869410874E+03    0.18178E+01   -0.12114E+00 12555   0.227E+00    0.153E+01
RMM:   6    -0.655350206530E+03    0.51920E+00   -0.14664E+00 13090   0.183E+00    0.889E+00
RMM:   7    -0.655908283661E+03   -0.55808E+00   -0.59786E-01 13059   0.128E+00    0.117E+01
RMM:   8    -0.655395870790E+03    0.51241E+00   -0.25681E-01 13924   0.761E-01    0.655E+00
RMM:   9    -0.655213176236E+03    0.18269E+00   -0.10993E-01 12544   0.528E-01    0.381E+00
RMM:  10    -0.655171178617E+03    0.41998E-01   -0.90379E-02 12619   0.431E-01    0.285E+00
RMM:  11    -0.655146091198E+03    0.25087E-01   -0.12277E-01 13825   0.485E-01    0.129E+00
RMM:  12    -0.655142891998E+03    0.31992E-02   -0.12025E-02 12716   0.219E-01    0.111E+00
RMM:  13    -0.655142493809E+03    0.39819E-03   -0.44996E-03 13047   0.998E-02    0.100E+00
RMM:  14    -0.655143172984E+03   -0.67917E-03   -0.20430E-03 12238   0.644E-02    0.784E-01
RMM:  15    -0.655141583869E+03    0.15891E-02   -0.19078E-03 12569   0.708E-02    0.455E-01
RMM:  16    -0.655140750394E+03    0.83347E-03   -0.12839E-03 12348   0.552E-02    0.185E-01
RMM:  17    -0.655140904586E+03   -0.15419E-03   -0.60499E-04 10818   0.342E-02    0.125E-01
RMM:  18    -0.655140973253E+03   -0.68667E-04   -0.88058E-05  7654   0.187E-02
   2 F= -.65514097E+03 E0= -.65455308E+03  d E =-.282415E+01  mag=    -0.0003
 trial-energy change:   -2.824150  1 .order   -3.484772  -11.423588    4.454043
 step:   0.6638(harm=  0.7195)  dis= 0.09750  next Energy=  -655.914898 (dE=-0.360E+01)
 bond charge predicted
       N       E                     dE             d eps       ncg     rms          rms(c)
DAV:   1    -0.655493634480E+03   -0.35273E+00   -0.27943E+02 12944   0.237E+01    0.842E+00
RMM:   2    -0.656382016672E+03   -0.88838E+00   -0.59365E+00 12544   0.513E+00    0.103E+01
RMM:   3    -0.656136898397E+03    0.24512E+00   -0.15416E+00 13953   0.209E+00    0.484E+00
RMM:   4    -0.656201214180E+03   -0.64316E-01   -0.42725E-01 12556   0.124E+00    0.688E+00
RMM:   5    -0.656665276444E+03   -0.46406E+00   -0.18625E-01 12590   0.812E-01    0.100E+01
RMM:   6    -0.655960980054E+03    0.70430E+00   -0.10774E-01 12604   0.590E-01    0.197E+00
RMM:   7    -0.655953746346E+03    0.72337E-02   -0.68033E-02 12714   0.432E-01    0.164E+00
RMM:   8    -0.655942122230E+03    0.11624E-01   -0.24361E-02 12731   0.296E-01    0.575E-01
RMM:   9    -0.655939984988E+03    0.21372E-02   -0.71300E-03 14361   0.119E-01    0.319E-01
RMM:  10    -0.655939590385E+03    0.39460E-03   -0.26035E-03 12511   0.779E-02    0.273E-01
RMM:  11    -0.655939634663E+03   -0.44278E-04   -0.25259E-03 12533   0.777E-02    0.159E-01
RMM:  12    -0.655939775378E+03   -0.14071E-03   -0.65001E-04 11526   0.444E-02    0.114E-01
RMM:  13    -0.655939765726E+03    0.96517E-05   -0.16475E-04  7988   0.212E-02
   3 F= -.65593977E+03 E0= -.65534676E+03  d E =-.362294E+01  mag=    -0.0002
 curvature:  -0.35 expect dE=-0.108E+01 dE for cont linesearch -0.218E-01
 ZBRENT: interpolating
 opt :   0.7176  next Energy=  -655.962608 (dE=-0.365E+01)
 bond charge predicted
       N       E                     dE             d eps       ncg     rms          rms(c)
DAV:   1    -0.655949200236E+03   -0.94249E-02   -0.71306E+00 12992   0.379E+00    0.959E-01
RMM:   2    -0.655976042313E+03   -0.26842E-01   -0.14604E-01 12544   0.792E-01    0.203E+00
RMM:   3    -0.655966474990E+03    0.95673E-02   -0.40236E-02 15156   0.329E-01    0.124E+00
RMM:   4    -0.655970405317E+03   -0.39303E-02   -0.98479E-03 12553   0.167E-01    0.148E+00
RMM:   5    -0.655985268675E+03   -0.14863E-01   -0.55324E-03 12568   0.133E-01    0.199E+00
RMM:   6    -0.655961750578E+03    0.23518E-01   -0.56467E-03 13140   0.124E-01    0.498E-01
RMM:   7    -0.655961781782E+03   -0.31204E-04   -0.28622E-03 12466   0.893E-02    0.433E-01
RMM:   8    -0.655961062527E+03    0.71925E-03   -0.57468E-04 10702   0.515E-02    0.231E-01
RMM:   9    -0.655960758575E+03    0.30395E-03   -0.44359E-04 11006   0.319E-02    0.176E-01
RMM:  10    -0.655960639110E+03    0.11947E-03   -0.37576E-04 10211   0.314E-02    0.130E-01
RMM:  11    -0.655960581071E+03    0.58040E-04   -0.25390E-04  8420   0.266E-02
   4 F= -.65596058E+03 E0= -.65536894E+03  d E =-.364376E+01  mag=    -0.0001
 curvature:  -0.36 expect dE=-0.128E+01 dE for cont linesearch -0.157E-02
 trial: gam= 0.32805 g(F)=  0.352E+01 g(S)=  0.000E+00 ort =-0.223E+00 (trialstep = 0.944E+00)
 search vector abs. value=  0.461E+01
 bond charge predicted
       N       E                     dE             d eps       ncg     rms          rms(c)
DAV:   1    -0.651674318076E+03    0.42863E+01   -0.96543E+02 12544   0.491E+01    0.843E+00
RMM:   2    -0.654899575363E+03   -0.32253E+01   -0.23761E+01 12544   0.104E+01    0.261E+01
RMM:   3    -0.654769928828E+03    0.12965E+00   -0.57869E+00 14258   0.418E+00    0.192E+01
RMM:   4    -0.654485824434E+03    0.28410E+00   -0.99273E-01 12613   0.200E+00    0.158E+01
RMM:   5    -0.654086062181E+03    0.39976E+00   -0.34439E-01 12768   0.125E+00    0.137E+01
RMM:   6    -0.654273993416E+03   -0.18793E+00   -0.32866E-01 12617   0.878E-01    0.131E+01
RMM:   7    -0.654645199109E+03   -0.37121E+00   -0.22856E-01 13235   0.738E-01    0.142E+01
RMM:   8    -0.654026999238E+03    0.61820E+00   -0.30713E-01 14409   0.829E-01    0.667E+00
RMM:   9    -0.654012395450E+03    0.14604E-01   -0.31221E-02 13297   0.306E-01    0.644E+00
RMM:  10    -0.653957850639E+03    0.54545E-01   -0.39170E-02 12570   0.317E-01    0.538E+00
RMM:  11    -0.653940199485E+03    0.17651E-01   -0.29877E-02 12631   0.257E-01    0.488E+00
RMM:  12    -0.653918159896E+03    0.22040E-01   -0.17633E-02 13706   0.201E-01    0.417E+00
RMM:  13    -0.653905881504E+03    0.12278E-01   -0.65915E-03 12938   0.135E-01    0.308E+00
RMM:  14    -0.653901341998E+03    0.45395E-02   -0.45578E-03 14369   0.962E-02    0.259E+00
RMM:  15    -0.653896289686E+03    0.50523E-02   -0.45816E-03 13128   0.988E-02    0.194E+00
RMM:  16    -0.653892744478E+03    0.35452E-02   -0.48058E-03 14033   0.975E-02    0.139E+00
RMM:  17    -0.653891655025E+03    0.10895E-02   -0.16387E-03 14005   0.573E-02    0.114E+00
RMM:  18    -0.653891222960E+03    0.43207E-03   -0.40222E-04  9456   0.306E-02    0.903E-01
RMM:  19    -0.653891035320E+03    0.18764E-03   -0.18179E-04  8026   0.226E-02    0.708E-01
RMM:  20    -0.653890757799E+03    0.27752E-03   -0.26276E-04  8410   0.274E-02    0.462E-01
RMM:  21    -0.653890664302E+03    0.93497E-04   -0.16859E-04  7650   0.221E-02
   5 F= -.65389066E+03 E0= -.65330220E+03  d E =0.206992E+01  mag=     0.0001
 trial-energy change:    2.069917  1 .order    0.265705   -3.256548    3.787958
 step:   0.4362(harm=  0.4362)  dis= 0.02611  next Energy=  -656.713303 (dE=-0.753E+00)
 bond charge predicted
       N       E                     dE             d eps       ncg     rms          rms(c)
DAV:   1    -0.655139110594E+03   -0.12484E+01   -0.27895E+02 12544   0.263E+01    0.684E+00
RMM:   2    -0.655931052701E+03   -0.79194E+00   -0.62719E+00 12544   0.534E+00    0.116E+01
RMM:   3    -0.655791333888E+03    0.13972E+00   -0.14187E+00 14185   0.214E+00    0.613E+00
RMM:   4    -0.656186408148E+03   -0.39507E+00   -0.32508E-01 12587   0.110E+00    0.976E+00
RMM:   5    -0.656070446028E+03    0.11596E+00   -0.15968E-01 12548   0.827E-01    0.800E+00
RMM:   6    -0.655857437220E+03    0.21301E+00   -0.95289E-02 12569   0.535E-01    0.554E+00
RMM:   7    -0.655745204099E+03    0.11223E+00   -0.71600E-02 12957   0.442E-01    0.208E+00
RMM:   8    -0.655735339131E+03    0.98650E-02   -0.21416E-02 12608   0.278E-01    0.188E+00
RMM:   9    -0.655732175960E+03    0.31632E-02   -0.83528E-03 13704   0.150E-01    0.155E+00
RMM:  10    -0.655725207404E+03    0.69686E-02   -0.72182E-03 12556   0.134E-01    0.792E-01
RMM:  11    -0.655724305603E+03    0.90180E-03   -0.50349E-03 12636   0.106E-01    0.621E-01
RMM:  12    -0.655724267511E+03    0.38092E-04   -0.20363E-03 13470   0.712E-02    0.451E-01
RMM:  13    -0.655724011318E+03    0.25619E-03   -0.57898E-04 11303   0.399E-02    0.306E-01
RMM:  14    -0.655724000121E+03    0.11196E-04   -0.24389E-04  8738   0.230E-02
   6 F= -.65572400E+03 E0= -.65513715E+03  d E =0.236581E+00  mag=     0.0000
 curvature:  -0.29 expect dE=-0.208E+01 dE for cont linesearch -0.284E+00
 ZBRENT: interpolating
 opt :   0.2702  next Energy=  -655.899881 (dE= 0.607E-01)
 bond charge predicted
       N       E                     dE             d eps       ncg     rms          rms(c)
DAV:   1    -0.656000086461E+03   -0.27608E+00   -0.29876E+01 12832   0.860E+00    0.155E+00
RMM:   2    -0.656087595040E+03   -0.87509E-01   -0.65486E-01 12544   0.172E+00    0.402E+00
RMM:   3    -0.656086629961E+03    0.96508E-03   -0.15190E-01 14211   0.686E-01    0.307E+00
RMM:   4    -0.656070989056E+03    0.15641E-01   -0.28027E-02 12613   0.327E-01    0.237E+00
RMM:   5    -0.656070443300E+03    0.54576E-03   -0.10876E-02 12706   0.207E-01    0.234E+00
RMM:   6    -0.656083784107E+03   -0.13341E-01   -0.86256E-03 12654   0.148E-01    0.254E+00
RMM:   7    -0.656072497734E+03    0.11286E-01   -0.71675E-03 13341   0.137E-01    0.191E+00
RMM:   8    -0.656065369112E+03    0.71286E-02   -0.59812E-03 13361   0.123E-01    0.126E+00
RMM:   9    -0.656064342477E+03    0.10266E-02   -0.11944E-03 12214   0.645E-02    0.113E+00
RMM:  10    -0.656063228985E+03    0.11135E-02   -0.59690E-04 11452   0.368E-02    0.983E-01
RMM:  11    -0.656062212841E+03    0.10161E-02   -0.10327E-03 12371   0.463E-02    0.770E-01
RMM:  12    -0.656061880356E+03    0.33248E-03   -0.37531E-04  9929   0.326E-02    0.631E-01
RMM:  13    -0.656061770193E+03    0.11016E-03   -0.16254E-04  7961   0.225E-02    0.546E-01
RMM:  14    -0.656061730040E+03    0.40153E-04   -0.74146E-05  7617   0.168E-02
   7 F= -.65606173E+03 E0= -.65547407E+03  d E =-.101149E+00  mag=     0.0000
 curvature:  -0.18 expect dE=-0.805E+00 dE for cont linesearch -0.158E+00
 ZBRENT: bisectioning
 opt :   0.1351  next Energy=  -656.327057 (dE=-0.366E+00)
 bond charge predicted
       N       E                     dE             d eps       ncg     rms          rms(c)
DAV:   1    -0.656187668302E+03   -0.12590E+00   -0.19820E+01 12896   0.701E+00    0.141E+00
RMM:   2    -0.656245848707E+03   -0.58180E-01   -0.43784E-01 12544   0.140E+00    0.324E+00
RMM:   3    -0.656249881756E+03   -0.40330E-02   -0.10365E-01 14240   0.561E-01    0.269E+00
RMM:   4    -0.656232089427E+03    0.17792E-01   -0.21607E-02 12562   0.282E-01    0.187E+00
RMM:   5    -0.656242056250E+03   -0.99668E-02   -0.92342E-03 12618   0.183E-01    0.229E+00
RMM:   6    -0.656239673027E+03    0.23832E-02   -0.62523E-03 12639   0.134E-01    0.212E+00
RMM:   7    -0.656240002998E+03   -0.32997E-03   -0.81259E-03 13787   0.135E-01    0.174E+00
RMM:   8    -0.656233039656E+03    0.69633E-02   -0.48863E-03 13255   0.117E-01    0.126E+00
RMM:   9    -0.656232658367E+03    0.38129E-03   -0.10962E-03 12494   0.562E-02    0.122E+00
RMM:  10    -0.656231745059E+03    0.91331E-03   -0.30449E-04  9292   0.280E-02    0.113E+00
RMM:  11    -0.656230076660E+03    0.16684E-02   -0.12435E-03 12513   0.510E-02    0.896E-01
RMM:  12    -0.656229913611E+03    0.16305E-03   -0.18632E-04  7646   0.264E-02    0.819E-01
RMM:  13    -0.656229843008E+03    0.70602E-04   -0.69950E-05  7614   0.173E-02
   8 F= -.65622984E+03 E0= -.65564077E+03  d E =-.269262E+00  mag=     0.0000
 curvature:  -0.30 expect dE=-0.707E+00 dE for cont linesearch -0.350E-02
 trial: gam= 0.49535 g(F)=  0.233E+01 g(S)=  0.000E+00 ort = 0.231E+00 (trialstep = 0.782E+00)
 search vector abs. value=  0.369E+01
 bond charge predicted
       N       E                     dE             d eps       ncg     rms          rms(c)
DAV:   1    -0.654124376081E+03    0.21055E+01   -0.51774E+02 12544   0.351E+01    0.622E+00
RMM:   2    -0.655496362202E+03   -0.13720E+01   -0.12124E+01 12544   0.760E+00    0.119E+01
RMM:   3    -0.655410129339E+03    0.86233E-01   -0.29384E+00 14176   0.305E+00    0.529E+00
RMM:   4    -0.655655372698E+03   -0.24524E+00   -0.45555E-01 12846   0.135E+00    0.860E+00
RMM:   5    -0.655890894350E+03   -0.23552E+00   -0.19027E-01 13214   0.799E-01    0.963E+00
RMM:   6    -0.655407618815E+03    0.48328E+00   -0.17611E-01 12737   0.708E-01    0.309E+00
RMM:   7    -0.655401206837E+03    0.64120E-02   -0.11886E-01 13028   0.540E-01    0.235E+00
RMM:   8    -0.655374853983E+03    0.26353E-01   -0.29811E-02 12622   0.325E-01    0.101E+00
RMM:   9    -0.655372296607E+03    0.25574E-02   -0.12349E-02 14655   0.156E-01    0.867E-01
RMM:  10    -0.655367362359E+03    0.49342E-02   -0.68415E-03 12549   0.124E-01    0.636E-01
RMM:  11    -0.655366168191E+03    0.11942E-02   -0.10975E-02 13302   0.139E-01    0.403E-01
RMM:  12    -0.655365813751E+03    0.35444E-03   -0.21381E-03 14011   0.772E-02    0.244E-01
RMM:  13    -0.655365726067E+03    0.87685E-04   -0.60274E-04 10544   0.337E-02
   9 F= -.65536573E+03 E0= -.65476952E+03  d E =0.864117E+00  mag=     0.0000
 trial-energy change:    0.864117  1 .order    0.054711   -1.914293    2.023715
 step:   0.1978(harm=  0.3801)  dis= 0.01439  next Energy=  -656.458913 (dE=-0.229E+00)
 bond charge predicted
       N       E                     dE             d eps       ncg     rms          rms(c)
DAV:   1    -0.655758572876E+03   -0.39276E+00   -0.28925E+02 12544   0.262E+01    0.528E+00
RMM:   2    -0.656408168037E+03   -0.64960E+00   -0.61909E+00 12544   0.530E+00    0.702E+00
RMM:   3    -0.656432545107E+03   -0.24377E-01   -0.14352E+00 14102   0.213E+00    0.262E+00
RMM:   4    -0.656522219501E+03   -0.89674E-01   -0.26517E-01 12681   0.102E+00    0.529E+00
RMM:   5    -0.656483149110E+03    0.39070E-01   -0.10343E-01 12655   0.657E-01    0.346E+00
RMM:   6    -0.656498440782E+03   -0.15292E-01   -0.56839E-02 12790   0.389E-01    0.360E+00
RMM:   7    -0.656438180081E+03    0.60261E-01   -0.36063E-02 12678   0.321E-01    0.191E+00
RMM:   8    -0.656416400489E+03    0.21780E-01   -0.11993E-02 12588   0.215E-01    0.614E-01
RMM:   9    -0.656414684734E+03    0.17158E-02   -0.53072E-03 14728   0.997E-02    0.368E-01
RMM:  10    -0.656413695564E+03    0.98917E-03   -0.20700E-03 12381   0.671E-02    0.269E-01
RMM:  11    -0.656413512670E+03    0.18289E-03   -0.23835E-03 12724   0.659E-02    0.200E-01
RMM:  12    -0.656413410097E+03    0.10257E-03   -0.54247E-04 11346   0.404E-02    0.106E-01
RMM:  13    -0.656413371426E+03    0.38671E-04   -0.14982E-04  7942   0.207E-02
  10 F= -.65641337E+03 E0= -.65582474E+03  d E =-.183528E+00  mag=     0.0000
 curvature:  -0.23 expect dE=-0.484E+00 dE for cont linesearch -0.112E-02
 trial: gam= 0.89396 g(F)=  0.213E+01 g(S)=  0.000E+00 ort =-0.135E+00 (trialstep = 0.508E+00)
 search vector abs. value=  0.484E+01
 bond charge predicted
       N       E                     dE             d eps       ncg     rms          rms(c)
DAV:   1    -0.655644198935E+03    0.76921E+00   -0.27794E+02 12544   0.254E+01    0.465E+00
RMM:   2    -0.656242453554E+03   -0.59825E+00   -0.56495E+00 12544   0.530E+00    0.630E+00
RMM:   3    -0.656306115617E+03   -0.63662E-01   -0.15000E+00 14234   0.216E+00    0.298E+00
RMM:   4    -0.656401801205E+03   -0.95686E-01   -0.25787E-01 12805   0.999E-01    0.524E+00
RMM:   5    -0.656479764763E+03   -0.77964E-01   -0.10324E-01 12997   0.588E-01    0.573E+00
RMM:   6    -0.656346092812E+03    0.13367E+00   -0.58916E-02 12578   0.422E-01    0.358E+00
RMM:   7    -0.656286259451E+03    0.59833E-01   -0.71044E-02 13474   0.424E-01    0.164E+00
RMM:   8    -0.656276979346E+03    0.92801E-02   -0.21081E-02 12606   0.251E-01    0.690E-01
RMM:   9    -0.656273792844E+03    0.31865E-02   -0.51659E-03 12839   0.144E-01    0.515E-01
RMM:  10    -0.656272687977E+03    0.11049E-02   -0.20458E-03 13136   0.702E-02    0.334E-01
RMM:  11    -0.656272029411E+03    0.65857E-03   -0.22054E-03 12536   0.664E-02    0.253E-01
RMM:  12    -0.656271887437E+03    0.14197E-03   -0.12173E-03 11973   0.548E-02    0.131E-01
RMM:  13    -0.656271917036E+03   -0.29599E-04   -0.53133E-04 10528   0.334E-02
  11 F= -.65627192E+03 E0= -.65567931E+03  d E =0.141454E+00  mag=     0.0000
 trial-energy change:    0.141454  1 .order    0.100263   -1.018228    1.218755
 step:   0.2175(harm=  0.2312)  dis= 0.01460  next Energy=  -656.628106 (dE=-0.215E+00)
 bond charge predicted
       N       E                     dE             d eps       ncg     rms          rms(c)
DAV:   1    -0.656429230944E+03   -0.15734E+00   -0.90929E+01 12544   0.145E+01    0.262E+00
RMM:   2    -0.656604490366E+03   -0.17526E+00   -0.16979E+00 12544   0.284E+00    0.310E+00
RMM:   3    -0.656637104642E+03   -0.32614E-01   -0.43033E-01 14236   0.114E+00    0.172E+00
RMM:   4    -0.656722647631E+03   -0.85543E-01   -0.81445E-02 12789   0.545E-01    0.418E+00
RMM:   5    -0.656684773485E+03    0.37874E-01   -0.32884E-02 12994   0.330E-01    0.328E+00
RMM:   6    -0.656628532045E+03    0.56241E-01   -0.17609E-02 12559   0.239E-01    0.127E+00
RMM:   7    -0.656623745538E+03    0.47865E-02   -0.21230E-02 13515   0.229E-01    0.720E-01
RMM:   8    -0.656622963219E+03    0.78232E-03   -0.55253E-03 12628   0.138E-01    0.440E-01
RMM:   9    -0.656621929200E+03    0.10340E-02   -0.15472E-03 12031   0.761E-02    0.324E-01
RMM:  10    -0.656621466440E+03    0.46276E-03   -0.65963E-04 11804   0.422E-02    0.197E-01
RMM:  11    -0.656621388861E+03    0.77580E-04   -0.30762E-04  9118   0.263E-02
  12 F= -.65662139E+03 E0= -.65603219E+03  d E =-.208017E+00  mag=     0.0000
 curvature:  -0.28 expect dE=-0.664E+00 dE for cont linesearch -0.252E-02
 trial: gam= 0.95607 g(F)=  0.239E+01 g(S)=  0.000E+00 ort =-0.209E+00 (trialstep = 0.340E+00)
 search vector abs. value=  0.640E+01
 bond charge predicted
       N       E                     dE             d eps       ncg     rms          rms(c)
DAV:   1    -0.655871843927E+03    0.74962E+00   -0.17413E+02 12544   0.214E+01    0.305E+00
RMM:   2    -0.656223652718E+03   -0.35181E+00   -0.34541E+00 12544   0.393E+00    0.489E+00
RMM:   3    -0.656264467502E+03   -0.40815E-01   -0.75324E-01 14146   0.160E+00    0.291E+00
RMM:   4    -0.656325968306E+03   -0.61501E-01   -0.12222E-01 12919   0.693E-01    0.423E+00
RMM:   5    -0.656268416917E+03    0.57551E-01   -0.49787E-02 12605   0.470E-01    0.263E+00
RMM:   6    -0.656315092282E+03   -0.46675E-01   -0.49697E-02 12716   0.355E-01    0.318E+00
RMM:   7    -0.656275218308E+03    0.39874E-01   -0.22842E-02 12606   0.263E-01    0.191E+00
RMM:   8    -0.656257203886E+03    0.18014E-01   -0.11316E-02 12944   0.174E-01    0.901E-01
RMM:   9    -0.656255929751E+03    0.12741E-02   -0.31031E-03 13397   0.930E-02    0.910E-01
RMM:  10    -0.656253243429E+03    0.26863E-02   -0.23614E-03 12544   0.790E-02    0.552E-01
RMM:  11    -0.656252410768E+03    0.83266E-03   -0.42247E-03 13192   0.882E-02    0.305E-01
RMM:  12    -0.656252363005E+03    0.47763E-04   -0.88473E-04 11873   0.499E-02
  13 F= -.65625236E+03 E0= -.65566313E+03  d E =0.369026E+00  mag=     0.0000
 trial-energy change:    0.369026  1 .order    0.103601   -0.742160    0.949361
 step:   0.0877(harm=  0.1490)  dis= 0.00676  next Energy=  -656.712682 (dE=-0.913E-01)
 bond charge predicted
       N       E                     dE             d eps       ncg     rms          rms(c)
DAV:   1    -0.656503688775E+03   -0.25128E+00   -0.95790E+01 12544   0.159E+01    0.228E+00
RMM:   2    -0.656693667924E+03   -0.18998E+00   -0.18586E+00 12544   0.289E+00    0.337E+00
RMM:   3    -0.656717062039E+03   -0.23394E-01   -0.40257E-01 14140   0.116E+00    0.197E+00
RMM:   4    -0.656777617725E+03   -0.60556E-01   -0.68277E-02 13095   0.502E-01    0.362E+00
RMM:   5    -0.656761628743E+03    0.15989E-01   -0.24287E-02 12663   0.311E-01    0.306E+00
RMM:   6    -0.656722590856E+03    0.39038E-01   -0.14828E-02 12581   0.218E-01    0.181E+00
RMM:   7    -0.656717439570E+03    0.51513E-02   -0.25860E-02 13860   0.237E-01    0.969E-01
RMM:   8    -0.656714095733E+03    0.33438E-02   -0.52509E-03 12556   0.143E-01    0.625E-01
RMM:   9    -0.656713224747E+03    0.87099E-03   -0.13682E-03 12620   0.665E-02    0.577E-01
RMM:  10    -0.656712133892E+03    0.10909E-02   -0.11085E-03 12236   0.518E-02    0.372E-01
RMM:  11    -0.656711932525E+03    0.20137E-03   -0.74934E-04 11688   0.406E-02    0.301E-01
RMM:  12    -0.656711759701E+03    0.17282E-03   -0.43681E-04 10546   0.347E-02    0.180E-01
RMM:  13    -0.656711746230E+03    0.13472E-04   -0.11402E-04  7640   0.207E-02
  14 F= -.65671175E+03 E0= -.65612294E+03  d E =-.903574E-01  mag=     0.0000
 curvature:  -0.20 expect dE=-0.207E+00 dE for cont linesearch -0.578E-03
 trial: gam= 0.05284 g(F)=  0.106E+01 g(S)=  0.000E+00 ort = 0.137E+00 (trialstep = 0.289E+00)
 search vector abs. value=  0.109E+01
 bond charge predicted
       N       E                     dE             d eps       ncg     rms          rms(c)
DAV:   1    -0.656725571851E+03   -0.13812E-01   -0.23430E+01 12848   0.815E+00    0.980E-01
RMM:   2    -0.656774004695E+03   -0.48433E-01   -0.49887E-01 12544   0.143E+00    0.143E+00
RMM:   3    -0.656781988968E+03   -0.79843E-02   -0.89706E-02 13919   0.576E-01    0.882E-01
RMM:   4    -0.656824000156E+03   -0.42011E-01   -0.18207E-02 13237   0.257E-01    0.261E+00
RMM:   5    -0.656784685927E+03    0.39314E-01   -0.60813E-03 12568   0.162E-01    0.112E+00
RMM:   6    -0.656781696933E+03    0.29890E-02   -0.30807E-03 12601   0.102E-01    0.717E-01
RMM:   7    -0.656781450369E+03    0.24656E-03   -0.39208E-03 12933   0.102E-01    0.401E-01
RMM:   8    -0.656781544165E+03   -0.93796E-04   -0.11829E-03 12370   0.670E-02    0.449E-01
RMM:   9    -0.656781299503E+03    0.24466E-03   -0.41857E-04  9975   0.360E-02    0.347E-01
RMM:  10    -0.656781060235E+03    0.23927E-03   -0.15466E-04  7736   0.232E-02    0.253E-01
RMM:  11    -0.656780976235E+03    0.83999E-04   -0.80692E-05  7642   0.171E-02
  15 F= -.65678098E+03 E0= -.65619379E+03  d E =-.692300E-01  mag=     0.0000
 trial-energy change:   -0.069230  1 .order   -0.079342   -0.308193    0.149509
 step:   0.1860(harm=  0.1948)  dis= 0.00903  next Energy=  -656.808130 (dE=-0.964E-01)
 bond charge predicted
       N       E                     dE             d eps       ncg     rms          rms(c)
DAV:   1    -0.656799848597E+03   -0.18788E-01   -0.29738E+00 12992   0.290E+00    0.308E-01
RMM:   2    -0.656806162496E+03   -0.63139E-02   -0.61430E-02 12544   0.504E-01    0.524E-01
RMM:   3    -0.656807137362E+03   -0.97487E-03   -0.10890E-02 13749   0.203E-01    0.361E-01
RMM:   4    -0.656807915805E+03   -0.77844E-03   -0.21206E-03 13622   0.882E-02    0.488E-01
RMM:   5    -0.656806910874E+03    0.10049E-02   -0.58357E-04 11836   0.480E-02    0.339E-01
RMM:   6    -0.656806634771E+03    0.27610E-03   -0.32414E-04  9655   0.345E-02    0.218E-01
RMM:   7    -0.656806628668E+03    0.61037E-05   -0.57082E-04 11250   0.395E-02    0.116E-01
RMM:   8    -0.656806573004E+03    0.55663E-04   -0.16449E-04  7646   0.243E-02
  16 F= -.65680657E+03 E0= -.65621870E+03  d E =-.948268E-01  mag=     0.0000
 curvature:  -0.10 expect dE=-0.911E-01 dE for cont linesearch -0.311E-04
 trial: gam= 0.86531 g(F)=  0.922E+00 g(S)=  0.000E+00 ort = 0.185E-01 (trialstep = 0.165E+00)
 search vector abs. value=  0.177E+01
 bond charge predicted
       N       E                     dE             d eps       ncg     rms          rms(c)
DAV:   1    -0.656811387972E+03   -0.47593E-02   -0.12127E+01 12768   0.575E+00    0.681E-01
RMM:   2    -0.656834741818E+03   -0.23354E-01   -0.24345E-01 12544   0.100E+00    0.928E-01
RMM:   3    -0.656837913153E+03   -0.31713E-02   -0.46037E-02 13949   0.408E-01    0.488E-01
RMM:   4    -0.656845570704E+03   -0.76576E-02   -0.83978E-03 13194   0.177E-01    0.122E+00
RMM:   5    -0.656840694862E+03    0.48758E-02   -0.26871E-03 13166   0.969E-02    0.830E-01
RMM:   6    -0.656837819736E+03    0.28751E-02   -0.16784E-03 12488   0.733E-02    0.330E-01
RMM:   7    -0.656837775507E+03    0.44229E-04   -0.15929E-03 12743   0.668E-02    0.417E-01
RMM:   8    -0.656837383111E+03    0.39240E-03   -0.77909E-04 11715   0.491E-02    0.144E-01
RMM:   9    -0.656837380740E+03    0.23709E-05   -0.18994E-04  8264   0.249E-02
  17 F= -.65683738E+03 E0= -.65625072E+03  d E =-.308077E-01  mag=     0.0000
 trial-energy change:   -0.030808  1 .order   -0.025284   -0.155212    0.104643
 step:   0.1037(harm=  0.0988)  dis= 0.00461  next Energy=  -656.856604 (dE=-0.500E-01)
 bond charge predicted
       N       E                     dE             d eps       ncg     rms          rms(c)
DAV:   1    -0.656853531457E+03   -0.16148E-01   -0.16821E+00 12992   0.214E+00    0.241E-01
RMM:   2    -0.656856913026E+03   -0.33816E-02   -0.32885E-02 12544   0.371E-01    0.426E-01
RMM:   3    -0.656856985775E+03   -0.72749E-04   -0.60908E-03 13642   0.152E-01    0.184E-01
RMM:   4    -0.656858047438E+03   -0.10617E-02   -0.12734E-03 13528   0.661E-02    0.437E-01
RMM:   5    -0.656857105403E+03    0.94203E-03   -0.32546E-04  9417   0.338E-02    0.247E-01
RMM:   6    -0.656857009095E+03    0.96308E-04   -0.24068E-04  8433   0.281E-02    0.149E-01
RMM:   7    -0.656856916508E+03    0.92587E-04   -0.26019E-04  8727   0.292E-02    0.106E-01
RMM:   8    -0.656856892591E+03    0.23917E-04   -0.10367E-04  7464   0.197E-02
  18 F= -.65685689E+03 E0= -.65626987E+03  d E =-.503196E-01  mag=     0.0000
 curvature:  -0.09 expect dE=-0.432E-01 dE for cont linesearch -0.609E-04
 trial: gam= 0.39488 g(F)=  0.466E+00 g(S)=  0.000E+00 ort =-0.341E-01 (trialstep = 0.153E+00)
 search vector abs. value=  0.716E+00
 bond charge predicted
       N       E                     dE             d eps       ncg     rms          rms(c)
DAV:   1    -0.656896875699E+03   -0.39959E-01   -0.39862E+00 12896   0.319E+00    0.498E-01
RMM:   2    -0.656908138513E+03   -0.11263E-01   -0.85667E-02 12544   0.607E-01    0.139E+00
RMM:   3    -0.656906875778E+03    0.12627E-02   -0.18386E-02 14316   0.247E-01    0.891E-01
RMM:   4    -0.656905429468E+03    0.14463E-02   -0.29845E-03 12791   0.107E-01    0.640E-01
RMM:   5    -0.656905570444E+03   -0.14098E-03   -0.12394E-03 12358   0.679E-02    0.620E-01
RMM:   6    -0.656905389026E+03    0.18142E-03   -0.75699E-04 11650   0.516E-02    0.463E-01
RMM:   7    -0.656905829741E+03   -0.44072E-03   -0.65356E-04 11727   0.403E-02    0.450E-01
RMM:   8    -0.656905199175E+03    0.63057E-03   -0.20584E-04  8574   0.260E-02    0.329E-01
RMM:   9    -0.656904970019E+03    0.22916E-03   -0.89057E-05  7618   0.185E-02    0.239E-01
RMM:  10    -0.656904903360E+03    0.66659E-04   -0.68722E-05  7568   0.138E-02
  19 F= -.65690490E+03 E0= -.65631844E+03  d E =-.480108E-01  mag=     0.0000
 trial-energy change:   -0.048011  1 .order   -0.046127   -0.069319   -0.022935
 step:   0.2098(harm=  0.2288)  dis= 0.00559  next Energy=  -656.909250 (dE=-0.524E-01)
 bond charge predicted
       N       E                     dE             d eps       ncg     rms          rms(c)
DAV:   1    -0.656908933130E+03   -0.39631E-02   -0.54949E-01 12960   0.119E+00    0.262E-01
RMM:   2    -0.656910172272E+03   -0.12391E-02   -0.12049E-02 12546   0.227E-01    0.424E-01
RMM:   3    -0.656910520122E+03   -0.34785E-03   -0.27735E-03 14262   0.920E-02    0.396E-01
RMM:   4    -0.656911195833E+03   -0.67571E-03   -0.62936E-04 12123   0.494E-02    0.504E-01
RMM:   5    -0.656910257834E+03    0.93800E-03   -0.30391E-04  9303   0.323E-02    0.336E-01
RMM:   6    -0.656910256636E+03    0.11977E-05   -0.24412E-04  8438   0.293E-02    0.451E-01
RMM:   7    -0.656910276187E+03   -0.19551E-04   -0.17703E-04  8010   0.239E-02    0.439E-01
RMM:   8    -0.656910596124E+03   -0.31994E-03   -0.73536E-04 11644   0.381E-02    0.581E-01
RMM:   9    -0.656912754201E+03   -0.21581E-02   -0.28555E-03 15503   0.747E-02    0.900E-01
RMM:  10    -0.656913213319E+03   -0.45912E-03   -0.21431E-04  7690   0.280E-02    0.105E+00
RMM:  11    -0.656914329165E+03   -0.11158E-02   -0.46379E-04 10925   0.301E-02    0.122E+00
RMM:  12    -0.656915047034E+03   -0.71787E-03   -0.15646E-04  7650   0.217E-02    0.131E+00
RMM:  13    -0.656914511332E+03    0.53570E-03   -0.42679E-05  7194   0.167E-02    0.125E+00
RMM:  14    -0.656914407395E+03    0.10394E-03   -0.10627E-05  6944   0.575E-03    0.124E+00
RMM:  15    -0.656913160620E+03    0.12468E-02   -0.27757E-04  7438   0.258E-02    0.108E+00
RMM:  16    -0.656910796586E+03    0.23640E-02   -0.28291E-03 14153   0.710E-02    0.594E-01
RMM:  17    -0.656910145587E+03    0.65100E-03   -0.27102E-03 15548   0.770E-02    0.127E-01
RMM:  18    -0.656910348338E+03   -0.20275E-03   -0.92205E-04 12488   0.449E-02    0.209E-01
RMM:  19    -0.656910360951E+03   -0.12612E-04   -0.72182E-05  7648   0.195E-02
  20 F= -.65691036E+03 E0= -.65632406E+03  d E =-.534684E-01  mag=     0.0000
 curvature:  -0.17 expect dE=-0.778E-01 dE for cont linesearch -0.546E-03
 trial: gam= 0.75689 g(F)=  0.459E+00 g(S)=  0.000E+00 ort = 0.480E-01 (trialstep = 0.125E+00)
 search vector abs. value=  0.942E+00
 bond charge predicted
       N       E                     dE             d eps       ncg     rms          rms(c)
DAV:   1    -0.656950867757E+03   -0.40519E-01   -0.35932E+00 12576   0.312E+00    0.438E-01
RMM:   2    -0.656958358937E+03   -0.74912E-02   -0.71101E-02 12544   0.557E-01    0.704E-01
RMM:   3    -0.656958269500E+03    0.89437E-04   -0.13030E-02 13153   0.229E-01    0.285E-01
RMM:   4    -0.656959262194E+03   -0.99269E-03   -0.30527E-03 13419   0.108E-01    0.455E-01
RMM:   5    -0.656960208480E+03   -0.94629E-03   -0.11008E-03 12449   0.596E-02    0.580E-01
RMM:   6    -0.656958827726E+03    0.13808E-02   -0.63109E-04 11690   0.436E-02    0.360E-01
RMM:   7    -0.656958325044E+03    0.50268E-03   -0.60758E-04 11478   0.425E-02    0.126E-01
RMM:   8    -0.656958228526E+03    0.96518E-04   -0.19920E-04  8292   0.268E-02
  21 F= -.65695823E+03 E0= -.65637167E+03  d E =-.478676E-01  mag=     0.0000
 trial-energy change:   -0.047868  1 .order   -0.041468   -0.061907   -0.021029
 step:   0.1546(harm=  0.1892)  dis= 0.00756  next Energy=  -656.960816 (dE=-0.505E-01)
 bond charge predicted
       N       E                     dE             d eps       ncg     rms          rms(c)
DAV:   1    -0.656960465056E+03   -0.21400E-02   -0.20262E-01 13152   0.742E-01    0.123E-01
RMM:   2    -0.656960867989E+03   -0.40293E-03   -0.42874E-03 12544   0.136E-01    0.155E-01
RMM:   3    -0.656960928837E+03   -0.60848E-04   -0.87347E-04 12544   0.552E-02    0.971E-02
RMM:   4    -0.656961174786E+03   -0.24595E-03   -0.20214E-04  7702   0.283E-02    0.201E-01
RMM:   5    -0.656961051521E+03    0.12326E-03   -0.89769E-05  7463   0.230E-02    0.147E-01
RMM:   6    -0.656960968246E+03    0.83275E-04   -0.28797E-05  7360   0.991E-03    0.959E-02
RMM:   7    -0.656960958386E+03    0.98608E-05   -0.29146E-05  7276   0.100E-02    0.371E-02
RMM:   8    -0.656960958119E+03    0.26633E-06   -0.14295E-05  6613   0.771E-03
  22 F= -.65696096E+03 E0= -.65637435E+03  d E =-.505972E-01  mag=     0.0000
 curvature:  -0.13 expect dE=-0.438E-01 dE for cont linesearch -0.464E-04
 trial: gam= 0.44431 g(F)=  0.343E+00 g(S)=  0.000E+00 ort = 0.185E-01 (trialstep = 0.131E+00)
 search vector abs. value=  0.545E+00
 bond charge predicted
       N       E                     dE             d eps       ncg     rms          rms(c)
DAV:   1    -0.656975959492E+03   -0.15001E-01   -0.23385E+00 12704   0.254E+00    0.325E-01
RMM:   2    -0.656981234969E+03   -0.52755E-02   -0.47411E-02 12544   0.441E-01    0.653E-01
RMM:   3    -0.656980920563E+03    0.31441E-03   -0.83727E-03 13448   0.182E-01    0.295E-01
RMM:   4    -0.656983688385E+03   -0.27678E-02   -0.20109E-03 13552   0.823E-02    0.676E-01
RMM:   5    -0.656981360829E+03    0.23276E-02   -0.61292E-04 11710   0.479E-02    0.375E-01
RMM:   6    -0.656981078985E+03    0.28184E-03   -0.36321E-04 10050   0.336E-02    0.274E-01
RMM:   7    -0.656980928169E+03    0.15082E-03   -0.29496E-04  9187   0.316E-02    0.130E-01
RMM:   8    -0.656980908191E+03    0.19978E-04   -0.16998E-04  7652   0.241E-02
  23 F= -.65698091E+03 E0= -.65639457E+03  d E =-.199501E-01  mag=     0.0000
 trial-energy change:   -0.019950  1 .order   -0.022637   -0.045933    0.000660
 step:   0.1280(harm=  0.1290)  dis= 0.00450  next Energy=  -656.980915 (dE=-0.200E-01)
 bond charge predicted
       N       E                     dE             d eps       ncg     rms          rms(c)
DAV:   1    -0.656980914630E+03    0.13539E-04   -0.11732E-03 13664   0.607E-02    0.904E-02
RMM:   2    -0.656981113821E+03   -0.19919E-03   -0.18623E-04  8178   0.248E-02    0.174E-01
RMM:   3    -0.656981182478E+03   -0.68657E-04   -0.12392E-04  6863   0.252E-02    0.206E-01
RMM:   4    -0.656980895782E+03    0.28670E-03   -0.29067E-05  6768   0.105E-02    0.712E-02
RMM:   5    -0.656980886025E+03    0.97569E-05   -0.15528E-05  6202   0.792E-03    0.304E-02
RMM:   6    -0.656980882216E+03    0.38097E-05   -0.61580E-06  6199   0.508E-03    0.157E-02
RMM:   7    -0.656980880867E+03    0.13486E-05   -0.88396E-07  3169   0.313E-03    0.592E-03
RMM:   8    -0.656980881422E+03   -0.55484E-06   -0.94805E-08  1605   0.261E-03
  24 F= -.65698088E+03 E0= -.65639453E+03  d E =-.199233E-01  mag=     0.0000
 curvature:  -0.07 expect dE=-0.113E-01 dE for cont linesearch -0.817E-08
 trial: gam= 0.38723 g(F)=  0.152E+00 g(S)=  0.000E+00 ort = 0.245E-03 (trialstep = 0.130E+00)
 search vector abs. value=  0.234E+00
 bond charge predicted
       N       E                     dE             d eps       ncg     rms          rms(c)
DAV:   1    -0.656989275484E+03   -0.83946E-02   -0.92768E-01 12672   0.152E+00    0.230E-01
RMM:   2    -0.656991720013E+03   -0.24445E-02   -0.19943E-02 12544   0.295E-01    0.500E-01
RMM:   3    -0.656991362352E+03    0.35766E-03   -0.43535E-03 14191   0.121E-01    0.249E-01
RMM:   4    -0.656992712394E+03   -0.13500E-02   -0.86104E-04 12647   0.524E-02    0.502E-01
RMM:   5    -0.656991369195E+03    0.13432E-02   -0.31737E-04  9459   0.353E-02    0.251E-01
RMM:   6    -0.656991287444E+03    0.81751E-04   -0.20915E-04  8264   0.278E-02    0.183E-01
RMM:   7    -0.656991215522E+03    0.71923E-04   -0.17865E-04  8274   0.240E-02    0.871E-02
RMM:   8    -0.656991210329E+03    0.51923E-05   -0.93832E-05  7546   0.182E-02
  25 F= -.65699121E+03 E0= -.65640521E+03  d E =-.103289E-01  mag=     0.0000
 trial-energy change:   -0.010329  1 .order   -0.010349   -0.019854   -0.000844
 step:   0.1361(harm=  0.1361)  dis= 0.00193  next Energy=  -656.991249 (dE=-0.104E-01)
 bond charge predicted
       N       E                     dE             d eps       ncg     rms          rms(c)
DAV:   1    -0.656991218505E+03   -0.29835E-05   -0.18067E-03 13024   0.698E-02    0.578E-02
RMM:   2    -0.656991279315E+03   -0.60810E-04   -0.11577E-04  6884   0.212E-02    0.966E-02
RMM:   3    -0.656991325903E+03   -0.46587E-04   -0.61801E-05  6780   0.181E-02    0.128E-01
RMM:   4    -0.656991220115E+03    0.10579E-03   -0.16953E-05  6738   0.783E-03    0.503E-02
RMM:   5    -0.656991216834E+03    0.32809E-05   -0.76663E-06  5765   0.568E-03    0.174E-02
RMM:   6    -0.656991216623E+03    0.21178E-06   -0.26781E-06  4466   0.384E-03    0.166E-02
RMM:   7    -0.656991216159E+03    0.46417E-06   -0.78369E-07  3102   0.322E-03    0.105E-02
RMM:   8    -0.656991216149E+03    0.92186E-08   -0.39816E-08  1802   0.271E-03
  26 F= -.65699122E+03 E0= -.65640523E+03  d E =-.103347E-01  mag=     0.0000
 curvature:  -0.10 expect dE=-0.198E-01 dE for cont linesearch -0.443E-07
 trial: gam= 1.28665 g(F)=  0.189E+00 g(S)=  0.000E+00 ort = 0.315E-03 (trialstep = 0.533E-01)
 search vector abs. value=  0.578E+00
 bond charge predicted
       N       E                     dE             d eps       ncg     rms          rms(c)
DAV:   1    -0.656999595998E+03   -0.83798E-02   -0.36435E-01 12944   0.902E-01    0.156E-01
RMM:   2    -0.657000484981E+03   -0.88898E-03   -0.74149E-03 12544   0.182E-01    0.307E-01
RMM:   3    -0.657000334501E+03    0.15048E-03   -0.17697E-03 13958   0.747E-02    0.143E-01
RMM:   4    -0.657000896955E+03   -0.56245E-03   -0.35394E-04  9292   0.331E-02    0.318E-01
RMM:   5    -0.657000340835E+03    0.55612E-03   -0.13880E-04  7644   0.246E-02    0.153E-01
RMM:   6    -0.657000316754E+03    0.24081E-04   -0.10734E-04  7537   0.195E-02    0.115E-01
RMM:   7    -0.657000283418E+03    0.33336E-04   -0.70006E-05  7323   0.155E-02    0.521E-02
RMM:   8    -0.657000277758E+03    0.56608E-05   -0.39791E-05  7101   0.121E-02
  27 F= -.65700028E+03 E0= -.65641454E+03  d E =-.906161E-02  mag=     0.0000
 ZBRENT: can't locate minimum, use default step
 trial-energy change:   -0.009062  1 .order   -0.009212   -0.010103   -0.008321
 step:   0.2132(harm=  0.3022)  dis= 0.00620  next Energy=  -657.019859 (dE=-0.286E-01)
 bond charge predicted
       N       E                     dE             d eps       ncg     rms          rms(c)
DAV:   1    -0.657006803977E+03   -0.65206E-02   -0.32748E+00 12544   0.271E+00    0.470E-01
RMM:   2    -0.657014375700E+03   -0.75717E-02   -0.66755E-02 12544   0.544E-01    0.830E-01
RMM:   3    -0.657013489776E+03    0.88592E-03   -0.16262E-02 14517   0.223E-01    0.356E-01
RMM:   4    -0.657014504119E+03   -0.10143E-02   -0.27694E-03 13250   0.946E-02    0.538E-01
RMM:   5    -0.657016021610E+03   -0.15175E-02   -0.10113E-03 12060   0.586E-02    0.681E-01
RMM:   6    -0.657013740972E+03    0.22806E-02   -0.73617E-04 11662   0.480E-02    0.367E-01
RMM:   7    -0.657013264018E+03    0.47695E-03   -0.64803E-04 11592   0.409E-02    0.140E-01
RMM:   8    -0.657013183827E+03    0.80190E-04   -0.29540E-04  9429   0.299E-02
  28 F= -.65701318E+03 E0= -.65642805E+03  d E =-.219677E-01  mag=     0.0000
 curvature:  -0.40 expect dE=-0.145E+00 dE for cont linesearch -0.103E-03
 trial: gam= 1.95298 g(F)=  0.360E+00 g(S)=  0.000E+00 ort =-0.122E-01 (trialstep = 0.196E-01)
 search vector abs. value=  0.252E+01
 bond charge predicted
       N       E                     dE             d eps       ncg     rms          rms(c)
DAV:   1    -0.657019517325E+03   -0.62533E-02   -0.21532E-01 13088   0.713E-01    0.142E-01
RMM:   2    -0.657020110090E+03   -0.59277E-03   -0.45531E-03 12544   0.143E-01    0.201E-01
RMM:   3    -0.657020286458E+03   -0.17637E-03   -0.11416E-03 12839   0.587E-02    0.208E-01
RMM:   4    -0.657020187690E+03    0.98769E-04   -0.24529E-04  8051   0.296E-02    0.181E-01
RMM:   5    -0.657020039899E+03    0.14779E-03   -0.91507E-05  7574   0.222E-02    0.726E-02
RMM:   6    -0.657020055201E+03   -0.15302E-04   -0.58126E-05  7346   0.143E-02    0.806E-02
RMM:   7    -0.657020037511E+03    0.17690E-04   -0.32195E-05  7297   0.123E-02    0.414E-02
RMM:   8    -0.657020033444E+03    0.40671E-05   -0.14712E-05  6796   0.760E-03
  29 F= -.65702003E+03 E0= -.65643502E+03  d E =-.684962E-02  mag=     0.0000
 ZBRENT: can't locate minimum, use default step
 trial-energy change:   -0.006850  1 .order   -0.006792   -0.006587   -0.006998
 step:   0.0783(harm=  0.0783)  dis= 0.00470  next Energy=  -657.042819 (dE=-0.296E-01)
 bond charge predicted
       N       E                     dE             d eps       ncg     rms          rms(c)
DAV:   1    -0.657029815281E+03   -0.97778E-02   -0.19451E+00 12768   0.214E+00    0.348E-01
RMM:   2    -0.657034209944E+03   -0.43947E-02   -0.39459E-02 12544   0.422E-01    0.580E-01
RMM:   3    -0.657034086919E+03    0.12303E-03   -0.91914E-03 14258   0.169E-01    0.292E-01
RMM:   4    -0.657036361810E+03   -0.22749E-02   -0.18632E-03 13624   0.747E-02    0.632E-01
RMM:   5    -0.657034241602E+03    0.21202E-02   -0.57190E-04 11606   0.455E-02    0.316E-01
RMM:   6    -0.657034087661E+03    0.15394E-03   -0.47768E-04 11342   0.393E-02    0.262E-01
RMM:   7    -0.657033866016E+03    0.22165E-03   -0.39203E-04  9633   0.331E-02    0.964E-02
RMM:   8    -0.657033830025E+03    0.35991E-04   -0.19348E-04  7905   0.253E-02
  30 F= -.65703383E+03 E0= -.65644910E+03  d E =-.206462E-01  mag=     0.0000
 curvature:  -0.45 expect dE=-0.252E+00 dE for cont linesearch -0.299E-03
 trial: gam= 0.48377 g(F)=  0.561E+00 g(S)=  0.000E+00 ort = 0.409E-01 (trialstep = 0.313E-01)
 search vector abs. value=  0.119E+01
 bond charge predicted
       N       E                     dE             d eps       ncg     rms          rms(c)
DAV:   1    -0.657048291160E+03   -0.14425E-01   -0.28538E-01 12992   0.896E-01    0.132E-01
RMM:   2    -0.657048890148E+03   -0.59899E-03   -0.62081E-03 12544   0.168E-01    0.119E-01
RMM:   3    -0.657049123608E+03   -0.23346E-03   -0.12294E-03 12786   0.663E-02    0.152E-01
RMM:   4    -0.657049184087E+03   -0.60478E-04   -0.26665E-04  8270   0.321E-02    0.174E-01
RMM:   5    -0.657049056743E+03    0.12734E-03   -0.99797E-05  7541   0.225E-02    0.956E-02
RMM:   6    -0.657049034068E+03    0.22675E-04   -0.51213E-05  7349   0.144E-02    0.775E-02
RMM:   7    -0.657049017683E+03    0.16385E-04   -0.23899E-05  7286   0.105E-02    0.362E-02
RMM:   8    -0.657049020651E+03   -0.29680E-05   -0.11458E-05  6661   0.644E-03
  31 F= -.65704902E+03 E0= -.65646433E+03  d E =-.151906E-01  mag=     0.0000
 trial-energy change:   -0.015191  1 .order   -0.015334   -0.018193   -0.012475
 step:   0.0997(harm=  0.0997)  dis= 0.00455  next Energy=  -657.062773 (dE=-0.289E-01)
 bond charge predicted
       N       E                     dE             d eps       ncg     rms          rms(c)
DAV:   1    -0.657057728289E+03   -0.87106E-02   -0.13607E+00 12928   0.195E+00    0.246E-01
RMM:   2    -0.657060575330E+03   -0.28470E-02   -0.29074E-02 12544   0.362E-01    0.321E-01
RMM:   3    -0.657060958687E+03   -0.38336E-03   -0.55899E-03 13800   0.141E-01    0.164E-01
RMM:   4    -0.657061639400E+03   -0.68071E-03   -0.10771E-03 12958   0.642E-02    0.345E-01
RMM:   5    -0.657061648828E+03   -0.94283E-05   -0.37486E-04 10130   0.351E-02    0.340E-01
RMM:   6    -0.657061035801E+03    0.61303E-03   -0.21297E-04  8068   0.283E-02    0.146E-01
RMM:   7    -0.657061029816E+03    0.59856E-05   -0.14619E-04  7718   0.223E-02    0.838E-02
RMM:   8    -0.657060999603E+03    0.30213E-04   -0.58615E-05  7504   0.166E-02
  32 F= -.65706100E+03 E0= -.65647638E+03  d E =-.271696E-01  mag=     0.0000
 curvature:  -0.10 expect dE=-0.370E-01 dE for cont linesearch -0.667E-03
 ZBRENT: interpolating
 opt :   0.0873  next Energy=  -657.061546 (dE=-0.277E-01)
 bond charge predicted
       N       E                     dE             d eps       ncg     rms          rms(c)
DAV:   1    -0.657061381578E+03   -0.35176E-03   -0.45124E-02 13184   0.356E-01    0.448E-02
RMM:   2    -0.657061483297E+03   -0.10172E-03   -0.92850E-04 12334   0.654E-02    0.829E-02
RMM:   3    -0.657061483993E+03   -0.69566E-06   -0.16964E-04  7059   0.262E-02    0.624E-02
RMM:   4    -0.657061472518E+03    0.11474E-04   -0.35312E-05  6856   0.152E-02    0.497E-02
RMM:   5    -0.657061462133E+03    0.10385E-04   -0.97610E-06  6706   0.619E-03    0.248E-02
RMM:   6    -0.657061469918E+03   -0.77846E-05   -0.84971E-06  6072   0.523E-03    0.375E-02
RMM:   7    -0.657061467204E+03    0.27136E-05   -0.84589E-06  6454   0.581E-03    0.207E-02
RMM:   8    -0.657061465139E+03    0.20654E-05   -0.27584E-06  5158   0.389E-03
  33 F= -.65706147E+03 E0= -.65647684E+03  d E =-.276351E-01  mag=     0.0000
 curvature:  -0.08 expect dE=-0.270E-01 dE for cont linesearch -0.158E-04
 trial: gam= 0.22399 g(F)=  0.323E+00 g(S)=  0.000E+00 ort = 0.150E-01 (trialstep = 0.425E-01)
 search vector abs. value=  0.389E+00
 bond charge predicted
       N       E                     dE             d eps       ncg     rms          rms(c)
DAV:   1    -0.657072894987E+03   -0.11428E-01   -0.17520E-01 13152   0.694E-01    0.868E-02
RMM:   2    -0.657073264677E+03   -0.36969E-03   -0.35763E-03 12544   0.121E-01    0.146E-01
RMM:   3    -0.657073289704E+03   -0.25027E-04   -0.64183E-04 12252   0.494E-02    0.966E-02
RMM:   4    -0.657073358429E+03   -0.68725E-04   -0.13049E-04  7588   0.229E-02    0.133E-01
RMM:   5    -0.657073286633E+03    0.71796E-04   -0.61716E-05  7238   0.183E-02    0.105E-01
RMM:   6    -0.657073254891E+03    0.31741E-04   -0.27976E-05  6964   0.105E-02    0.480E-02
RMM:   7    -0.657073258223E+03   -0.33310E-05   -0.26150E-05  6856   0.936E-03    0.405E-02
RMM:   8    -0.657073255777E+03    0.24453E-05   -0.14913E-05  6416   0.810E-03
  34 F= -.65707326E+03 E0= -.65648869E+03  d E =-.117906E-01  mag=     0.0000
 trial-energy change:   -0.011791  1 .order   -0.011780   -0.013861   -0.009699
 step:   0.1416(harm=  0.1416)  dis= 0.00367  next Energy=  -657.084547 (dE=-0.231E-01)
 bond charge predicted
       N       E                     dE             d eps       ncg     rms          rms(c)
DAV:   1    -0.657083422709E+03   -0.10164E-01   -0.95053E-01 12880   0.162E+00    0.206E-01
RMM:   2    -0.657085359593E+03   -0.19369E-02   -0.19567E-02 12544   0.283E-01    0.318E-01
RMM:   3    -0.657085457772E+03   -0.98179E-04   -0.35738E-03 13910   0.115E-01    0.149E-01
RMM:   4    -0.657086565994E+03   -0.11082E-02   -0.74478E-04 12418   0.519E-02    0.430E-01
RMM:   5    -0.657085668215E+03    0.89778E-03   -0.25906E-04  8243   0.318E-02    0.248E-01
RMM:   6    -0.657085439827E+03    0.22839E-03   -0.13381E-04  7654   0.243E-02    0.118E-01
RMM:   7    -0.657085427542E+03    0.12285E-04   -0.12288E-04  7650   0.203E-02    0.853E-02
RMM:   8    -0.657085413722E+03    0.13819E-04   -0.74135E-05  7470   0.176E-02
  35 F= -.65708541E+03 E0= -.65650097E+03  d E =-.239486E-01  mag=     0.0000
 curvature:  -0.08 expect dE=-0.177E-01 dE for cont linesearch -0.117E-03
 trial: gam= 0.49136 g(F)=  0.209E+00 g(S)=  0.000E+00 ort = 0.232E-01 (trialstep = 0.623E-01)
 search vector abs. value=  0.326E+00
 bond charge predicted
       N       E                     dE             d eps       ncg     rms          rms(c)
DAV:   1    -0.657094924388E+03   -0.94968E-02   -0.30737E-01 12992   0.901E-01    0.137E-01
RMM:   2    -0.657095699629E+03   -0.77524E-03   -0.67833E-03 12544   0.169E-01    0.294E-01
RMM:   3    -0.657095652483E+03    0.47146E-04   -0.13738E-03 13349   0.685E-02    0.169E-01
RMM:   4    -0.657096450100E+03   -0.79762E-03   -0.29511E-04  8458   0.323E-02    0.375E-01
RMM:   5    -0.657095634837E+03    0.81526E-03   -0.13574E-04  7616   0.263E-02    0.157E-01
RMM:   6    -0.657095608286E+03    0.26552E-04   -0.65945E-05  7396   0.153E-02    0.872E-02
RMM:   7    -0.657095622750E+03   -0.14464E-04   -0.47752E-05  7208   0.130E-02    0.783E-02
RMM:   8    -0.657095615014E+03    0.77365E-05   -0.20566E-05  6968   0.990E-03
  36 F= -.65709562E+03 E0= -.65651093E+03  d E =-.102013E-01  mag=     0.0000
 trial-energy change:   -0.010201  1 .order   -0.010166   -0.013735   -0.006598
 step:   0.1199(harm=  0.1199)  dis= 0.00321  next Energy=  -657.098630 (dE=-0.132E-01)
 bond charge predicted
       N       E                     dE             d eps       ncg     rms          rms(c)
DAV:   1    -0.657098207551E+03   -0.25848E-02   -0.26286E-01 13024   0.833E-01    0.136E-01
RMM:   2    -0.657098833973E+03   -0.62642E-03   -0.58277E-03 12544   0.157E-01    0.260E-01
RMM:   3    -0.657098840473E+03   -0.64992E-05   -0.11893E-03 13016   0.633E-02    0.172E-01
RMM:   4    -0.657098965236E+03   -0.12476E-03   -0.23230E-04  7910   0.297E-02    0.214E-01
RMM:   5    -0.657098937382E+03    0.27854E-04   -0.85955E-05  7532   0.215E-02    0.196E-01
RMM:   6    -0.657098819825E+03    0.11756E-03   -0.44909E-05  7298   0.126E-02    0.129E-01
RMM:   7    -0.657098805666E+03    0.14159E-04   -0.35730E-05  7092   0.110E-02    0.739E-02
RMM:   8    -0.657098809288E+03   -0.36218E-05   -0.25828E-05  6924   0.993E-03
  37 F= -.65709881E+03 E0= -.65651401E+03  d E =-.133956E-01  mag=     0.0000
 curvature:  -0.09 expect dE=-0.798E-02 dE for cont linesearch -0.113E-04
 trial: gam= 0.44941 g(F)=  0.901E-01 g(S)=  0.000E+00 ort = 0.643E-02 (trialstep = 0.739E-01)
 search vector abs. value=  0.162E+00
 bond charge predicted
       N       E                     dE             d eps       ncg     rms          rms(c)
DAV:   1    -0.657101673529E+03   -0.28679E-02   -0.20945E-01 12864   0.742E-01    0.127E-01
RMM:   2    -0.657102161747E+03   -0.48822E-03   -0.45691E-03 12544   0.141E-01    0.221E-01
RMM:   3    -0.657102170582E+03   -0.88349E-05   -0.95776E-04 12596   0.563E-02    0.143E-01
RMM:   4    -0.657102786927E+03   -0.61635E-03   -0.21656E-04  7776   0.285E-02    0.319E-01
RMM:   5    -0.657102193088E+03    0.59384E-03   -0.12135E-04  7448   0.253E-02    0.147E-01
RMM:   6    -0.657102156612E+03    0.36476E-04   -0.59833E-05  7134   0.153E-02    0.795E-02
RMM:   7    -0.657102167335E+03   -0.10722E-04   -0.42230E-05  7044   0.119E-02    0.580E-02
RMM:   8    -0.657102161984E+03    0.53504E-05   -0.17001E-05  6673   0.912E-03
  38 F= -.65710216E+03 E0= -.65651719E+03  d E =-.335270E-02  mag=     0.0000
 trial-energy change:   -0.003353  1 .order   -0.003341   -0.006865    0.000182
 step:   0.0719(harm=  0.0719)  dis= 0.00209  next Energy=  -657.102153 (dE=-0.334E-02)
 bond charge predicted
       N       E                     dE             d eps       ncg     rms          rms(c)
DAV:   1    -0.657102159943E+03    0.73913E-05   -0.13577E-04  8480   0.225E-02    0.351E-02
RMM:   2    -0.657102173978E+03   -0.14034E-04   -0.43322E-05  6736   0.154E-02    0.507E-02
RMM:   3    -0.657102164459E+03    0.95182E-05   -0.15198E-05  6291   0.931E-03    0.363E-02
RMM:   4    -0.657102165826E+03   -0.13666E-05   -0.25125E-06  4058   0.365E-03    0.419E-02
RMM:   5    -0.657102158246E+03    0.75796E-05   -0.18119E-06  4223   0.344E-03    0.210E-02
RMM:   6    -0.657102157256E+03    0.99063E-06   -0.25003E-07  2154   0.297E-03    0.122E-02
RMM:   7    -0.657102157151E+03    0.10486E-06   -0.13112E-06  3017   0.324E-03    0.103E-02
RMM:   8    -0.657102156878E+03    0.27340E-06   -0.17832E-08  1289   0.273E-03
  39 F= -.65710216E+03 E0= -.65651717E+03  d E =-.334759E-02  mag=     0.0000
 curvature:  -0.06 expect dE=-0.113E-02 dE for cont linesearch -0.379E-07
 trial: gam= 0.18200 g(F)=  0.181E-01 g(S)=  0.000E+00 ort =-0.313E-03 (trialstep = 0.735E-01)
 search vector abs. value=  0.234E-01
 bond charge predicted
       N       E                     dE             d eps       ncg     rms          rms(c)
DAV:   1    -0.657103192610E+03   -0.10355E-02   -0.26720E-02 13248   0.237E-01    0.421E-02
RMM:   2    -0.657103240424E+03   -0.47814E-04   -0.50071E-04 11622   0.482E-02    0.727E-02
RMM:   3    -0.657103241264E+03   -0.83942E-06   -0.11736E-04  7028   0.200E-02    0.318E-02
RMM:   4    -0.657103271946E+03   -0.30682E-04   -0.29472E-05  6780   0.128E-02    0.774E-02
RMM:   5    -0.657103245445E+03    0.26500E-04   -0.10486E-05  6628   0.668E-03    0.456E-02
RMM:   6    -0.657103242591E+03    0.28547E-05   -0.61304E-06  5896   0.489E-03    0.332E-02
RMM:   7    -0.657103244510E+03   -0.19197E-05   -0.24737E-06  4088   0.390E-03    0.329E-02
RMM:   8    -0.657103242667E+03    0.18429E-05   -0.24866E-06  4558   0.352E-03
  40 F= -.65710324E+03 E0= -.65651811E+03  d E =-.108579E-02  mag=     0.0000
 trial-energy change:   -0.001086  1 .order   -0.001068   -0.001327   -0.000808
 step:   0.1881(harm=  0.1881)  dis= 0.00101  next Energy=  -657.103855 (dE=-0.170E-02)
 bond charge predicted
       N       E                     dE             d eps       ncg     rms          rms(c)
DAV:   1    -0.657103726723E+03   -0.48221E-03   -0.65151E-02 12992   0.370E-01    0.693E-02
RMM:   2    -0.657103842929E+03   -0.11621E-03   -0.12316E-03 12544   0.756E-02    0.111E-01
RMM:   3    -0.657103857862E+03   -0.14933E-04   -0.31871E-04  9034   0.305E-02    0.707E-02
RMM:   4    -0.657104063204E+03   -0.20534E-03   -0.72081E-05  7230   0.187E-02    0.183E-01
RMM:   5    -0.657103860988E+03    0.20222E-03   -0.37547E-05  6946   0.130E-02    0.830E-02
RMM:   6    -0.657103856785E+03    0.42038E-05   -0.19420E-05  6820   0.882E-03    0.479E-02
RMM:   7    -0.657103858909E+03   -0.21247E-05   -0.12762E-05  5949   0.689E-03    0.430E-02
RMM:   8    -0.657103860000E+03   -0.10909E-05   -0.61968E-06  6393   0.517E-03
  41 F= -.65710386E+03 E0= -.65651848E+03  d E =-.170312E-02  mag=    -0.0000
 curvature:  -0.12 expect dE=-0.193E-02 dE for cont linesearch -0.247E-06
 trial: gam= 0.83113 g(F)=  0.159E-01 g(S)=  0.000E+00 ort = 0.218E-03 (trialstep = 0.696E-01)
 search vector abs. value=  0.324E-01
 bond charge predicted
       N       E                     dE             d eps       ncg     rms          rms(c)
DAV:   1    -0.657104657635E+03   -0.79873E-03   -0.31861E-02 13056   0.243E-01    0.553E-02
RMM:   2    -0.657104709773E+03   -0.52139E-04   -0.58258E-04 12062   0.512E-02    0.532E-02
RMM:   3    -0.657104752518E+03   -0.42745E-04   -0.14737E-04  7258   0.216E-02    0.857E-02
RMM:   4    -0.657104724102E+03    0.28416E-04   -0.40423E-05  6966   0.154E-02    0.467E-02
RMM:   5    -0.657104723359E+03    0.74328E-06   -0.15733E-05  6802   0.722E-03    0.399E-02
RMM:   6    -0.657104718995E+03    0.43637E-05   -0.82268E-06  5906   0.624E-03    0.232E-02
RMM:   7    -0.657104717215E+03    0.17801E-05   -0.32457E-06  4597   0.411E-03    0.139E-02
RMM:   8    -0.657104717327E+03   -0.11166E-06   -0.96899E-07  3317   0.323E-03
  42 F= -.65710472E+03 E0= -.65651917E+03  d E =-.857326E-03  mag=    -0.0000
 trial-energy change:   -0.000857  1 .order   -0.000862   -0.001116   -0.000608
 step:   0.1528(harm=  0.1528)  dis= 0.00099  next Energy=  -657.105086 (dE=-0.123E-02)
 bond charge predicted
       N       E                     dE             d eps       ncg     rms          rms(c)
DAV:   1    -0.657104988530E+03   -0.27131E-03   -0.45668E-02 13024   0.291E-01    0.570E-02
RMM:   2    -0.657105067175E+03   -0.78646E-04   -0.79578E-04 12418   0.606E-02    0.676E-02
RMM:   3    -0.657105138821E+03   -0.71646E-04   -0.21020E-04  7484   0.250E-02    0.108E-01
RMM:   4    -0.657105076545E+03    0.62277E-04   -0.54974E-05  7088   0.179E-02    0.519E-02
RMM:   5    -0.657105075898E+03    0.64687E-06   -0.20415E-05  6892   0.882E-03    0.450E-02
RMM:   6    -0.657105067683E+03    0.82150E-05   -0.10704E-05  5944   0.701E-03    0.194E-02
RMM:   7    -0.657105069226E+03   -0.15428E-05   -0.63452E-06  6142   0.474E-03    0.171E-02
RMM:   8    -0.657105068140E+03    0.10862E-05   -0.18677E-06  3980   0.367E-03
  43 F= -.65710507E+03 E0= -.65651932E+03  d E =-.120814E-02  mag=    -0.0000
 curvature:  -0.15 expect dE=-0.149E-02 dE for cont linesearch -0.404E-06
 trial: gam= 0.63461 g(F)=  0.968E-02 g(S)=  0.000E+00 ort = 0.291E-03 (trialstep = 0.862E-01)
 search vector abs. value=  0.231E-01
 bond charge predicted
       N       E                     dE             d eps       ncg     rms          rms(c)
DAV:   1    -0.657105546285E+03   -0.47706E-03   -0.35582E-02 13024   0.270E-01    0.457E-02
RMM:   2    -0.657105607106E+03   -0.60821E-04   -0.61570E-04 12306   0.539E-02    0.681E-02
RMM:   3    -0.657105615261E+03   -0.81552E-05   -0.15753E-04  7258   0.222E-02    0.388E-02
RMM:   4    -0.657105660860E+03   -0.45599E-04   -0.37828E-05  6958   0.147E-02    0.916E-02
RMM:   5    -0.657105620488E+03    0.40372E-04   -0.15361E-05  6840   0.790E-03    0.501E-02
RMM:   6    -0.657105614282E+03    0.62062E-05   -0.84742E-06  5912   0.593E-03    0.304E-02
RMM:   7    -0.657105614962E+03   -0.68077E-06   -0.49461E-06  5764   0.447E-03    0.199E-02
RMM:   8    -0.657105615361E+03   -0.39861E-06   -0.13157E-06  3326   0.324E-03
  44 F= -.65710562E+03 E0= -.65651975E+03  d E =-.547221E-03  mag=    -0.0000
 trial-energy change:   -0.000547  1 .order   -0.000558   -0.000851   -0.000265
 step:   0.1252(harm=  0.1252)  dis= 0.00072  next Energy=  -657.105686 (dE=-0.618E-03)
 bond charge predicted
       N       E                     dE             d eps       ncg     rms          rms(c)
DAV:   1    -0.657105668225E+03   -0.53262E-04   -0.72618E-03 12896   0.122E-01    0.275E-02
RMM:   2    -0.657105691234E+03   -0.23010E-04   -0.13719E-04  6972   0.250E-02    0.520E-02
RMM:   3    -0.657105687211E+03    0.40236E-05   -0.28591E-05  6740   0.127E-02    0.371E-02
RMM:   4    -0.657105682602E+03    0.46087E-05   -0.82860E-06  6516   0.636E-03    0.226E-02
RMM:   5    -0.657105687929E+03   -0.53268E-05   -0.44066E-06  5848   0.448E-03    0.283E-02
RMM:   6    -0.657105683186E+03    0.47429E-05   -0.15278E-06  3673   0.369E-03    0.136E-02
RMM:   7    -0.657105683094E+03    0.91648E-07   -0.47817E-08  1566   0.275E-03    0.793E-03
RMM:   8    -0.657105683509E+03   -0.41490E-06   -0.14447E-08  1477   0.266E-03
  45 F= -.65710568E+03 E0= -.65651974E+03  d E =-.615370E-03  mag=    -0.0000
 curvature:  -0.15 expect dE=-0.859E-03 dE for cont linesearch -0.694E-09
 trial: gam= 0.59530 g(F)=  0.586E-02 g(S)=  0.000E+00 ort =-0.105E-04 (trialstep = 0.940E-01)
 search vector abs. value=  0.140E-01
 bond charge predicted
       N       E                     dE             d eps       ncg     rms          rms(c)
DAV:   1    -0.657106060711E+03   -0.37762E-03   -0.26151E-02 13056   0.235E-01    0.386E-02
RMM:   2    -0.657106104964E+03   -0.44253E-04   -0.45606E-04 10862   0.459E-02    0.526E-02
RMM:   3    -0.657106109692E+03   -0.47281E-05   -0.10405E-04  7026   0.196E-02    0.255E-02
RMM:   4    -0.657106135377E+03   -0.25686E-04   -0.26408E-05  6838   0.121E-02    0.656E-02
RMM:   5    -0.657106113663E+03    0.21714E-04   -0.96112E-06  6428   0.643E-03    0.364E-02
RMM:   6    -0.657106110963E+03    0.26998E-05   -0.48971E-06  5744   0.446E-03    0.211E-02
RMM:   7    -0.657106110582E+03    0.38082E-06   -0.19993E-06  3772   0.360E-03    0.142E-02
RMM:   8    -0.657106110787E+03   -0.20487E-06   -0.91310E-07  2952   0.316E-03
  46 F= -.65710611E+03 E0= -.65652007E+03  d E =-.427278E-03  mag=    -0.0000
 trial-energy change:   -0.000427  1 .order   -0.000429   -0.000551   -0.000307
 step:   0.2122(harm=  0.2122)  dis= 0.00096  next Energy=  -657.106305 (dE=-0.622E-03)
 reached required accuracy - stopping structural energy minimisation
 writing wavefunctions
