       N       E                     dE             d eps       ncg     rms          rms(c)
DAV:   1     0.899985592514E+04    0.89999E+04   -0.33778E+05 22256   0.122E+03
DAV:   2     0.938053121452E+03   -0.80618E+04   -0.73501E+04 28304   0.332E+02
DAV:   3    -0.828923744077E+03   -0.17670E+04   -0.17355E+04 25568   0.165E+02
DAV:   4    -0.923267969545E+03   -0.94344E+02   -0.93630E+02 28128   0.458E+01
DAV:   5    -0.927945046956E+03   -0.46771E+01   -0.46664E+01 35280   0.869E+00    0.167E+02
RMM:   6    -0.977321617486E+03   -0.49377E+02   -0.27112E+03 24662   0.103E+02    0.351E+02
RMM:   7    -0.729854629427E+03    0.24747E+03   -0.35960E+02 22143   0.369E+01    0.165E+02
RMM:   8    -0.114320788926E+04   -0.41335E+03   -0.21573E+02 22903   0.185E+01    0.253E+02
RMM:   9    -0.760189753793E+03    0.38302E+03   -0.20077E+02 22062   0.273E+01    0.128E+02
RMM:  10    -0.679822040949E+03    0.80368E+02   -0.73058E+01 22177   0.153E+01    0.957E+01
RMM:  11    -0.679543521609E+03    0.27852E+00   -0.45416E+01 22390   0.119E+01    0.983E+01
RMM:  12    -0.673502891054E+03    0.60406E+01   -0.30814E+01 22451   0.998E+00    0.839E+01
RMM:  13    -0.649291045407E+03    0.24212E+02   -0.16857E+01 22419   0.745E+00    0.477E+01
RMM:  14    -0.650445329614E+03   -0.11543E+01   -0.10568E+01 23496   0.444E+00    0.456E+01
RMM:  15    -0.656118975916E+03   -0.56736E+01   -0.69786E+00 23334   0.443E+00    0.533E+01
RMM:  16    -0.651682748068E+03    0.44362E+01   -0.58486E+00 24026   0.399E+00    0.383E+01
RMM:  17    -0.653684655483E+03   -0.20019E+01   -0.26316E+00 22963   0.255E+00    0.331E+01
RMM:  18    -0.658633416096E+03   -0.49488E+01   -0.36838E+00 24946   0.279E+00    0.379E+01
RMM:  19    -0.658260428587E+03    0.37299E+00   -0.37461E+00 24988   0.317E+00    0.327E+01
RMM:  20    -0.657051919883E+03    0.12085E+01   -0.36502E+00 26940   0.284E+00    0.302E+01
RMM:  21    -0.654922913343E+03    0.21290E+01   -0.17851E+00 25864   0.201E+00    0.190E+01
RMM:  22    -0.654901451407E+03    0.21462E-01   -0.63385E-01 24604   0.124E+00    0.157E+01
RMM:  23    -0.655284013489E+03   -0.38256E+00   -0.23141E-01 25953   0.738E-01    0.141E+01
RMM:  24    -0.655794030599E+03   -0.51002E+00   -0.25926E-01 25531   0.753E-01    0.130E+01
RMM:  25    -0.656127688641E+03   -0.33366E+00   -0.16474E-01 25102   0.570E-01    0.116E+01
RMM:  26    -0.656535721710E+03   -0.40803E+00   -0.27453E-01 27239   0.674E-01    0.105E+01
RMM:  27    -0.656843425903E+03   -0.30770E+00   -0.28517E-01 28039   0.731E-01    0.889E+00
RMM:  28    -0.656883061341E+03   -0.39635E-01   -0.30252E-01 28913   0.761E-01    0.770E+00
RMM:  29    -0.656808740578E+03    0.74321E-01   -0.16414E-01 27370   0.593E-01    0.625E+00
RMM:  30    -0.656716753658E+03    0.91987E-01   -0.12720E-01 27572   0.522E-01    0.529E+00
RMM:  31    -0.656568745512E+03    0.14801E+00   -0.10561E-01 27533   0.469E-01    0.433E+00
RMM:  32    -0.656461358133E+03    0.10739E+00   -0.49645E-02 25274   0.329E-01    0.348E+00
RMM:  33    -0.656455850456E+03    0.55077E-02   -0.33727E-02 24412   0.271E-01    0.302E+00
RMM:  34    -0.656438725742E+03    0.17125E-01   -0.35874E-02 25803   0.263E-01    0.237E+00
RMM:  35    -0.656411940834E+03    0.26785E-01   -0.21275E-02 24676   0.197E-01    0.191E+00
RMM:  36    -0.656388376276E+03    0.23565E-01   -0.84943E-03 22595   0.140E-01    0.178E+00
RMM:  37    -0.656379946718E+03    0.84296E-02   -0.47264E-03 22557   0.101E-01    0.165E+00
RMM:  38    -0.656394377905E+03   -0.14431E-01   -0.45789E-03 23315   0.895E-02    0.150E+00
RMM:  39    -0.656431687007E+03   -0.37309E-01   -0.65865E-03 25138   0.105E-01    0.134E+00
RMM:  40    -0.656465530290E+03   -0.33843E-01   -0.57388E-03 24897   0.935E-02    0.124E+00
RMM:  41    -0.656489126584E+03   -0.23596E-01   -0.10523E-02 27971   0.111E-01    0.119E+00
RMM:  42    -0.656488301551E+03    0.82503E-03   -0.11398E-02 27419   0.110E-01    0.113E+00
RMM:  43    -0.656488167647E+03    0.13390E-03   -0.34846E-03 23234   0.681E-02    0.110E+00
RMM:  44    -0.656486335786E+03    0.18319E-02   -0.92657E-04 20138   0.427E-02    0.107E+00
RMM:  45    -0.656483355886E+03    0.29799E-02   -0.16703E-03 21877   0.496E-02    0.102E+00
RMM:  46    -0.656471173557E+03    0.12182E-01   -0.45593E-03 26819   0.752E-02    0.989E-01
RMM:  47    -0.656444170656E+03    0.27003E-01   -0.80905E-03 28183   0.963E-02    0.101E+00
RMM:  48    -0.656389100491E+03    0.55070E-01   -0.12055E-02 28565   0.112E-01    0.102E+00
RMM:  49    -0.656263112477E+03    0.12599E+00   -0.13531E-02 29688   0.114E-01    0.105E+00
RMM:  50    -0.656132127724E+03    0.13098E+00   -0.74858E-03 28097   0.880E-02    0.103E+00
RMM:  51    -0.656110349582E+03    0.21778E-01   -0.23706E-03 25462   0.673E-02    0.910E-01
RMM:  52    -0.655889381414E+03    0.22097E+00   -0.82296E-03 27766   0.902E-02    0.827E-01
RMM:  53    -0.655702423522E+03    0.18696E+00   -0.10372E-02 29410   0.958E-02    0.760E-01
RMM:  54    -0.655727888505E+03   -0.25465E-01   -0.60702E-03 28824   0.813E-02    0.690E-01
RMM:  55    -0.655750748701E+03   -0.22860E-01   -0.39910E-03 29005   0.809E-02    0.646E-01
RMM:  56    -0.655750686516E+03    0.62186E-04   -0.22895E-03 25130   0.761E-02    0.631E-01
RMM:  57    -0.655778071485E+03   -0.27385E-01   -0.15767E-03 23543   0.505E-02    0.561E-01
RMM:  58    -0.655781715017E+03   -0.36435E-02   -0.14285E-03 23511   0.510E-02    0.520E-01
RMM:  59    -0.655800487066E+03   -0.18772E-01   -0.12625E-03 22254   0.517E-02    0.513E-01
RMM:  60    -0.655814720633E+03   -0.14234E-01   -0.11606E-03 20816   0.496E-02    0.466E-01
RMM:  61    -0.655823051098E+03   -0.83305E-02   -0.18108E-03 22918   0.590E-02    0.438E-01
RMM:  62    -0.655805366324E+03    0.17685E-01   -0.20589E-03 23673   0.558E-02    0.375E-01
RMM:  63    -0.655866323196E+03   -0.60957E-01   -0.21490E-03 23435   0.520E-02    0.347E-01
RMM:  64    -0.656002477428E+03   -0.13615E+00   -0.13512E-03 21445   0.434E-02    0.311E-01
RMM:  65    -0.656169344095E+03   -0.16687E+00   -0.85936E-04 19133   0.378E-02    0.289E-01
RMM:  66    -0.656279492950E+03   -0.11015E+00   -0.63301E-04 17969   0.387E-02    0.293E-01
RMM:  67    -0.656411555436E+03   -0.13206E+00   -0.68070E-04 17744   0.338E-02    0.244E-01
RMM:  68    -0.656592799682E+03   -0.18124E+00   -0.10375E-03 18843   0.335E-02    0.233E-01
RMM:  69    -0.656776584513E+03   -0.18378E+00   -0.13069E-03 19116   0.351E-02    0.195E-01
RMM:  70    -0.656961431463E+03   -0.18485E+00   -0.15351E-03 19709   0.376E-02    0.174E-01
RMM:  71    -0.657071534878E+03   -0.11010E+00   -0.74914E-04 17466   0.283E-02    0.144E-01
RMM:  72    -0.657129100852E+03   -0.57566E-01   -0.51115E-04 16000   0.253E-02    0.129E-01
RMM:  73    -0.657181014241E+03   -0.51913E-01   -0.60394E-04 16354   0.248E-02    0.122E-01
RMM:  74    -0.657230265887E+03   -0.49252E-01   -0.52488E-04 15735   0.242E-02    0.102E-01
RMM:  75    -0.657277355643E+03   -0.47090E-01   -0.46536E-04 15366   0.217E-02    0.912E-02
RMM:  76    -0.657303928884E+03   -0.26573E-01   -0.16824E-04 12990   0.152E-02    0.857E-02
RMM:  77    -0.657337519230E+03   -0.33590E-01   -0.27890E-04 14171   0.177E-02    0.776E-02
RMM:  78    -0.657363228140E+03   -0.25709E-01   -0.20371E-04 12922   0.148E-02    0.697E-02
RMM:  79    -0.657381502157E+03   -0.18274E-01   -0.11745E-04 12245   0.123E-02    0.613E-02
RMM:  80    -0.657394690839E+03   -0.13189E-01   -0.62500E-05 11213   0.979E-03
   1 F= -.65739469E+03 E0= -.65697240E+03  d E =-.657395E+03  mag=    78.8557
       N       E                     dE             d eps       ncg     rms          rms(c)
DAV:   1    -0.657063061351E+03    0.31844E+00   -0.27714E+01 24592   0.673E+00    0.220E+00
RMM:   2    -0.657169903464E+03   -0.10684E+00   -0.78787E-01 21796   0.153E+00    0.190E+00
RMM:   3    -0.657201910197E+03   -0.32007E-01   -0.15386E-01 22143   0.621E-01    0.216E+00
RMM:   4    -0.657187076659E+03    0.14834E-01   -0.38122E-02 22605   0.348E-01    0.926E-01
RMM:   5    -0.657193593749E+03   -0.65171E-02   -0.19024E-02 22096   0.193E-01    0.119E+00
RMM:   6    -0.657188647565E+03    0.49462E-02   -0.82198E-03 21395   0.161E-01    0.526E-01
RMM:   7    -0.657190428646E+03   -0.17811E-02   -0.57349E-03 21251   0.104E-01    0.329E-01
RMM:   8    -0.657192333997E+03   -0.19054E-02   -0.14341E-03 19532   0.648E-02    0.180E-01
RMM:   9    -0.657193874646E+03   -0.15406E-02   -0.67142E-04 18926   0.368E-02    0.116E-01
RMM:  10    -0.657195629070E+03   -0.17544E-02   -0.25938E-04 15011   0.232E-02    0.707E-02
RMM:  11    -0.657197894319E+03   -0.22652E-02   -0.11529E-04 13157   0.159E-02    0.672E-02
RMM:  12    -0.657199364294E+03   -0.14700E-02   -0.56730E-05 12422   0.130E-02    0.540E-02
RMM:  13    -0.657200944447E+03   -0.15802E-02   -0.31402E-05 11619   0.939E-03    0.485E-02
RMM:  14    -0.657202845515E+03   -0.19011E-02   -0.19138E-05 11096   0.735E-03    0.454E-02
RMM:  15    -0.657205184456E+03   -0.23389E-02   -0.12059E-05 10539   0.564E-03    0.438E-02
RMM:  16    -0.657208583557E+03   -0.33991E-02   -0.98543E-06 10304   0.508E-03    0.426E-02
RMM:  17    -0.657213882765E+03   -0.52992E-02   -0.12204E-05 10419   0.510E-03    0.412E-02
RMM:  18    -0.657219525745E+03   -0.56430E-02   -0.11819E-05 10013   0.482E-03    0.402E-02
RMM:  19    -0.657226300963E+03   -0.67752E-02   -0.11877E-05  9939   0.490E-03    0.389E-02
RMM:  20    -0.657238527507E+03   -0.12227E-01   -0.32235E-05 11014   0.629E-03    0.374E-02
RMM:  21    -0.657251689414E+03   -0.13162E-01   -0.51955E-05 11356   0.697E-03    0.348E-02
RMM:  22    -0.657261659950E+03   -0.99705E-02   -0.36347E-05 10598   0.657E-03    0.321E-02
RMM:  23    -0.657270009555E+03   -0.83496E-02   -0.17148E-05 10071   0.548E-03    0.294E-02
RMM:  24    -0.657279263487E+03   -0.92539E-02   -0.94820E-06  9244   0.492E-03    0.278E-02
RMM:  25    -0.657290583988E+03   -0.11321E-01   -0.10898E-05  9783   0.485E-03    0.254E-02
RMM:  26    -0.657302252095E+03   -0.11668E-01   -0.15695E-05 10327   0.523E-03    0.237E-02
RMM:  27    -0.657309140739E+03   -0.68886E-02   -0.12677E-05  9821   0.473E-03    0.210E-02
RMM:  28    -0.657313738018E+03   -0.45973E-02   -0.11474E-05  9187   0.439E-03    0.185E-02
RMM:  29    -0.657319602096E+03   -0.58641E-02   -0.20138E-05 10204   0.496E-03    0.170E-02
RMM:  30    -0.657323423771E+03   -0.38217E-02   -0.10403E-05  8703   0.416E-03    0.153E-02
RMM:  31    -0.657325688502E+03   -0.22647E-02   -0.79322E-06  8834   0.404E-03    0.144E-02
RMM:  32    -0.657327322276E+03   -0.16338E-02   -0.59530E-06  8036   0.368E-03    0.129E-02
RMM:  33    -0.657328879430E+03   -0.15572E-02   -0.70546E-06  8577   0.377E-03    0.121E-02
RMM:  34    -0.657329646023E+03   -0.76659E-03   -0.46240E-06  7609   0.342E-03    0.966E-03
RMM:  35    -0.657330092957E+03   -0.44693E-03   -0.31599E-06  6596   0.314E-03    0.832E-03
RMM:  36    -0.657330455564E+03   -0.36261E-03   -0.19766E-06  5688   0.289E-03    0.759E-03
RMM:  37    -0.657330931789E+03   -0.47622E-03   -0.25878E-06  6136   0.294E-03    0.695E-03
RMM:  38    -0.657331580447E+03   -0.64866E-03   -0.44054E-06  7281   0.323E-03    0.645E-03
RMM:  39    -0.657331958204E+03   -0.37776E-03   -0.28379E-06  6370   0.299E-03    0.531E-03
RMM:  40    -0.657332217672E+03   -0.25947E-03   -0.14898E-06  5097   0.269E-03    0.477E-03
RMM:  41    -0.657332499628E+03   -0.28196E-03   -0.17342E-06  5300   0.273E-03    0.415E-03
RMM:  42    -0.657332805736E+03   -0.30611E-03   -0.20566E-06  5411   0.275E-03    0.377E-03
RMM:  43    -0.657333023168E+03   -0.21743E-03   -0.11536E-06  4432   0.253E-03    0.324E-03
RMM:  44    -0.657333244789E+03   -0.22162E-03   -0.10602E-06  4053   0.246E-03    0.303E-03
RMM:  45    -0.657333537966E+03   -0.29318E-03   -0.17944E-06  4474   0.254E-03    0.284E-03
RMM:  46    -0.657333764816E+03   -0.22685E-03   -0.18095E-06  4536   0.256E-03    0.250E-03
RMM:  47    -0.657333868927E+03   -0.10411E-03   -0.12702E-06  4101   0.249E-03    0.228E-03
RMM:  48    -0.657333918743E+03   -0.49816E-04   -0.12472E-06  4128   0.249E-03
   2 F= -.65733392E+03 E0= -.65691275E+03  d E =0.607721E-01  mag=    79.1209
       N       E                     dE             d eps       ncg     rms          rms(c)
DAV:   1    -0.657469665477E+03   -0.13580E+00   -0.12758E+01 24000   0.458E+00    0.146E+00
RMM:   2    -0.657514894424E+03   -0.45229E-01   -0.36259E-01 21764   0.103E+00    0.128E+00
RMM:   3    -0.657528022409E+03   -0.13128E-01   -0.67197E-02 21936   0.404E-01    0.133E+00
RMM:   4    -0.657522362954E+03    0.56595E-02   -0.16509E-02 22164   0.228E-01    0.689E-01
RMM:   5    -0.657523661409E+03   -0.12985E-02   -0.78050E-03 21456   0.125E-01    0.743E-01
RMM:   6    -0.657521103188E+03    0.25582E-02   -0.40513E-03 20578   0.108E-01    0.424E-01
RMM:   7    -0.657521629578E+03   -0.52639E-03   -0.27409E-03 20116   0.756E-02    0.224E-01
RMM:   8    -0.657521945565E+03   -0.31599E-03   -0.65861E-04 17544   0.431E-02    0.106E-01
RMM:   9    -0.657522145359E+03   -0.19979E-03   -0.28868E-04 15156   0.243E-02    0.692E-02
RMM:  10    -0.657522325501E+03   -0.18014E-03   -0.10321E-04 12674   0.163E-02    0.386E-02
RMM:  11    -0.657522562635E+03   -0.23713E-03   -0.60898E-05 12108   0.116E-02    0.333E-02
RMM:  12    -0.657522706597E+03   -0.14396E-03   -0.30124E-05 11321   0.945E-03    0.226E-02
RMM:  13    -0.657522841096E+03   -0.13450E-03   -0.17651E-05 10689   0.708E-03    0.169E-02
RMM:  14    -0.657522978616E+03   -0.13752E-03   -0.10973E-05  9989   0.544E-03    0.122E-02
RMM:  15    -0.657523099153E+03   -0.12054E-03   -0.67094E-06  9096   0.428E-03    0.101E-02
RMM:  16    -0.657523242095E+03   -0.14294E-03   -0.58146E-06  8438   0.383E-03    0.874E-03
RMM:  17    -0.657523370187E+03   -0.12809E-03   -0.47487E-06  7829   0.361E-03    0.716E-03
RMM:  18    -0.657523489657E+03   -0.11947E-03   -0.41466E-06  6909   0.337E-03    0.624E-03
RMM:  19    -0.657523592961E+03   -0.10330E-03   -0.33373E-06  6441   0.322E-03    0.588E-03
RMM:  20    -0.657523714897E+03   -0.12194E-03   -0.41375E-06  6666   0.321E-03    0.560E-03
RMM:  21    -0.657523885051E+03   -0.17015E-03   -0.73029E-06  7287   0.342E-03    0.482E-03
RMM:  22    -0.657523992254E+03   -0.10720E-03   -0.53120E-06  6489   0.331E-03    0.432E-03
RMM:  23    -0.657524048705E+03   -0.56450E-04   -0.28359E-06  5384   0.305E-03
   3 F= -.65752405E+03 E0= -.65710205E+03  d E =-.129358E+00  mag=    79.1225
       N       E                     dE             d eps       ncg     rms          rms(c)
DAV:   1    -0.657550358043E+03   -0.26366E-01   -0.12288E+00 23600   0.142E+00    0.449E-01
RMM:   2    -0.657554490759E+03   -0.41327E-02   -0.34429E-02 21533   0.319E-01    0.414E-01
RMM:   3    -0.657555885157E+03   -0.13944E-02   -0.63279E-03 20947   0.125E-01    0.431E-01
RMM:   4    -0.657555135454E+03    0.74970E-03   -0.15979E-03 19669   0.715E-02    0.230E-01
RMM:   5    -0.657555029791E+03    0.10566E-03   -0.73241E-04 17963   0.407E-02    0.219E-01
RMM:   6    -0.657554737644E+03    0.29215E-03   -0.38821E-04 16347   0.356E-02    0.117E-01
RMM:   7    -0.657554751982E+03   -0.14338E-04   -0.24307E-04 14540   0.240E-02    0.723E-02
RMM:   8    -0.657554756146E+03   -0.41639E-05   -0.70155E-05 11761   0.159E-02
   4 F= -.65755476E+03 E0= -.65713257E+03  d E =-.160065E+00  mag=    79.1226
       N       E                     dE             d eps       ncg     rms          rms(c)
DAV:   1    -0.657555640001E+03   -0.88802E-03   -0.37516E-02 23344   0.248E-01    0.824E-02
RMM:   2    -0.657555728253E+03   -0.88252E-04   -0.10904E-03 17839   0.568E-02    0.833E-02
RMM:   3    -0.657555748265E+03   -0.20011E-04   -0.21316E-04 13677   0.245E-02    0.725E-02
RMM:   4    -0.657555726564E+03    0.21700E-04   -0.61700E-05 11230   0.154E-02    0.431E-02
RMM:   5    -0.657555728940E+03   -0.23753E-05   -0.24798E-05 10634   0.859E-03    0.476E-02
RMM:   6    -0.657555722551E+03    0.63884E-05   -0.13774E-05 10174   0.697E-03    0.201E-02
RMM:   7    -0.657555742603E+03   -0.20051E-04   -0.67543E-06  9407   0.489E-03    0.163E-02
RMM:   8    -0.657555759245E+03   -0.16642E-04   -0.32370E-06  8330   0.396E-03
   5 F= -.65755576E+03 E0= -.65713350E+03  d E =-.161068E+00  mag=    79.1227
       N       E                     dE             d eps       ncg     rms          rms(c)
DAV:   1    -0.657494376953E+03    0.61366E-01   -0.57252E+00 23376   0.283E+00    0.147E+00
RMM:   2    -0.657520813758E+03   -0.26437E-01   -0.11332E-01 21760   0.564E-01    0.839E-01
RMM:   3    -0.657528399513E+03   -0.75858E-02   -0.20149E-02 23265   0.223E-01    0.470E-01
RMM:   4    -0.657530564191E+03   -0.21647E-02   -0.62532E-03 22201   0.131E-01    0.812E-01
RMM:   5    -0.657526521954E+03    0.40422E-02   -0.23057E-03 20679   0.823E-02    0.323E-01
RMM:   6    -0.657526168111E+03    0.35384E-03   -0.12319E-03 19583   0.609E-02    0.209E-01
RMM:   7    -0.657526539975E+03   -0.37186E-03   -0.60308E-04 17976   0.401E-02    0.112E-01
RMM:   8    -0.657526889244E+03   -0.34927E-03   -0.19867E-04 14304   0.215E-02    0.466E-02
RMM:   9    -0.657527210618E+03   -0.32137E-03   -0.70202E-05 12499   0.141E-02    0.362E-02
RMM:  10    -0.657527477968E+03   -0.26735E-03   -0.38676E-05 11752   0.953E-03    0.272E-02
RMM:  11    -0.657527826039E+03   -0.34807E-03   -0.25306E-05 11263   0.755E-03    0.196E-02
RMM:  12    -0.657528071544E+03   -0.24550E-03   -0.15053E-05 10365   0.567E-03    0.156E-02
RMM:  13    -0.657528231003E+03   -0.15946E-03   -0.88563E-06  9591   0.478E-03    0.125E-02
RMM:  14    -0.657528382024E+03   -0.15102E-03   -0.50993E-06  7907   0.372E-03    0.106E-02
RMM:  15    -0.657528577416E+03   -0.19539E-03   -0.36730E-06  7231   0.338E-03    0.974E-03
RMM:  16    -0.657528823850E+03   -0.24643E-03   -0.44158E-06  7929   0.343E-03    0.935E-03
RMM:  17    -0.657529025041E+03   -0.20119E-03   -0.42109E-06  7422   0.325E-03    0.842E-03
RMM:  18    -0.657529178855E+03   -0.15381E-03   -0.30957E-06  6453   0.304E-03    0.753E-03
RMM:  19    -0.657529323795E+03   -0.14494E-03   -0.23891E-06  5771   0.290E-03    0.700E-03
RMM:  20    -0.657529540728E+03   -0.21693E-03   -0.36745E-06  7105   0.313E-03    0.676E-03
RMM:  21    -0.657529700825E+03   -0.16010E-03   -0.25510E-06  6227   0.291E-03    0.621E-03
RMM:  22    -0.657529812105E+03   -0.11128E-03   -0.14530E-06  5182   0.274E-03    0.615E-03
RMM:  23    -0.657529939797E+03   -0.12769E-03   -0.98285E-07  4661   0.263E-03    0.575E-03
RMM:  24    -0.657530123988E+03   -0.18419E-03   -0.10792E-06  4686   0.264E-03    0.559E-03
RMM:  25    -0.657530326277E+03   -0.20229E-03   -0.15001E-06  4906   0.265E-03    0.535E-03
RMM:  26    -0.657530512380E+03   -0.18610E-03   -0.11933E-06  4509   0.261E-03    0.507E-03
RMM:  27    -0.657530663557E+03   -0.15118E-03   -0.88948E-07  4169   0.255E-03    0.472E-03
RMM:  28    -0.657530837858E+03   -0.17430E-03   -0.10082E-06  4083   0.257E-03    0.443E-03
RMM:  29    -0.657531036350E+03   -0.19849E-03   -0.13447E-06  4341   0.262E-03    0.425E-03
RMM:  30    -0.657531184153E+03   -0.14780E-03   -0.10441E-06  4047   0.261E-03    0.373E-03
RMM:  31    -0.657531303431E+03   -0.11928E-03   -0.11397E-06  4178   0.263E-03    0.359E-03
RMM:  32    -0.657531400383E+03   -0.96952E-04   -0.15492E-06  4498   0.264E-03
   6 F= -.65753140E+03 E0= -.65710844E+03  d E =0.243589E-01  mag=    79.1465
       N       E                     dE             d eps       ncg     rms          rms(c)
DAV:   1    -0.657541396273E+03   -0.10093E-01   -0.31046E+00 23648   0.209E+00    0.106E+00
RMM:   2    -0.657555184180E+03   -0.13788E-01   -0.65351E-02 21714   0.434E-01    0.867E-01
RMM:   3    -0.657559741679E+03   -0.45575E-02   -0.15126E-02 21848   0.218E-01    0.665E-01
RMM:   4    -0.657558821170E+03    0.92051E-03   -0.62553E-03 20925   0.139E-01    0.510E-01
RMM:   5    -0.657558421147E+03    0.40002E-03   -0.23361E-03 21180   0.703E-02    0.432E-01
RMM:   6    -0.657556891195E+03    0.15300E-02   -0.90955E-04 18658   0.510E-02    0.167E-01
RMM:   7    -0.657557148473E+03   -0.25728E-03   -0.52484E-04 17129   0.336E-02    0.118E-01
RMM:   8    -0.657557386415E+03   -0.23794E-03   -0.14866E-04 13390   0.220E-02    0.439E-02
RMM:   9    -0.657557540991E+03   -0.15458E-03   -0.59419E-05 11773   0.122E-02    0.322E-02
RMM:  10    -0.657557737030E+03   -0.19604E-03   -0.25493E-05 11037   0.824E-03    0.206E-02
RMM:  11    -0.657557931809E+03   -0.19478E-03   -0.16303E-05 10247   0.598E-03    0.170E-02
RMM:  12    -0.657558129351E+03   -0.19754E-03   -0.11008E-05  9836   0.524E-03    0.134E-02
RMM:  13    -0.657558293572E+03   -0.16422E-03   -0.77663E-06  8761   0.435E-03    0.106E-02
RMM:  14    -0.657558429416E+03   -0.13584E-03   -0.45268E-06  7195   0.356E-03    0.848E-03
RMM:  15    -0.657558623840E+03   -0.19442E-03   -0.44101E-06  6856   0.335E-03    0.820E-03
RMM:  16    -0.657558812450E+03   -0.18861E-03   -0.40932E-06  6833   0.334E-03    0.743E-03
RMM:  17    -0.657559052884E+03   -0.24043E-03   -0.59712E-06  7240   0.348E-03    0.678E-03
RMM:  18    -0.657559257614E+03   -0.20473E-03   -0.53534E-06  6886   0.336E-03    0.639E-03
RMM:  19    -0.657559417066E+03   -0.15945E-03   -0.40736E-06  6124   0.319E-03    0.549E-03
RMM:  20    -0.657559612549E+03   -0.19548E-03   -0.51635E-06  6569   0.324E-03    0.561E-03
RMM:  21    -0.657559781221E+03   -0.16867E-03   -0.47190E-06  6231   0.321E-03    0.450E-03
RMM:  22    -0.657559881030E+03   -0.99809E-04   -0.28393E-06  5386   0.300E-03
   7 F= -.65755988E+03 E0= -.65713741E+03  d E =-.412179E-02  mag=    79.1436
       N       E                     dE             d eps       ncg     rms          rms(c)
DAV:   1    -0.657561045968E+03   -0.12647E-02   -0.56101E-01 23952   0.823E-01    0.492E-01
RMM:   2    -0.657563802043E+03   -0.27561E-02   -0.95093E-03 21548   0.158E-01    0.308E-01
RMM:   3    -0.657564952609E+03   -0.11506E-02   -0.17785E-03 19469   0.749E-02    0.237E-01
RMM:   4    -0.657564957106E+03   -0.44969E-05   -0.81942E-04 17464   0.514E-02    0.200E-01
RMM:   5    -0.657565125450E+03   -0.16834E-03   -0.34679E-04 15709   0.291E-02    0.174E-01
RMM:   6    -0.657565053905E+03    0.71545E-04   -0.15110E-04 13202   0.221E-02    0.600E-02
RMM:   7    -0.657565201788E+03   -0.14788E-03   -0.71503E-05 11984   0.138E-02    0.407E-02
RMM:   8    -0.657565303329E+03   -0.10154E-03   -0.23198E-05 10784   0.959E-03    0.185E-02
RMM:   9    -0.657565378608E+03   -0.75279E-04   -0.75341E-06  9179   0.484E-03
   8 F= -.65756538E+03 E0= -.65714279E+03  d E =-.549758E-02  mag=    79.1436
       N       E                     dE             d eps       ncg     rms          rms(c)
DAV:   1    -0.657565549631E+03   -0.24630E-03   -0.76794E-03 22704   0.972E-02    0.584E-02
RMM:   2    -0.657565645332E+03   -0.95701E-04   -0.13773E-04 13249   0.192E-02    0.377E-02
RMM:   3    -0.657565705372E+03   -0.60041E-04   -0.28424E-05 11044   0.102E-02    0.312E-02
RMM:   4    -0.657565727698E+03   -0.22326E-04   -0.12617E-05  9820   0.703E-03    0.228E-02
RMM:   5    -0.657565799558E+03   -0.71859E-04   -0.48304E-06  8707   0.409E-03    0.208E-02
RMM:   6    -0.657565848926E+03   -0.49368E-04   -0.20312E-06  7167   0.328E-03    0.849E-03
RMM:   7    -0.657565892099E+03   -0.43173E-04   -0.85147E-07  5339   0.282E-03    0.471E-03
RMM:   8    -0.657565932216E+03   -0.40117E-04   -0.10218E-07  3553   0.246E-03
   9 F= -.65756593E+03 E0= -.65714333E+03  d E =-.605119E-02  mag=    79.1438
       N       E                     dE             d eps       ncg     rms          rms(c)
DAV:   1    -0.657567102772E+03   -0.12107E-02   -0.12322E-01 24368   0.487E-01    0.140E-01
RMM:   2    -0.657567500730E+03   -0.39796E-03   -0.28340E-03 21519   0.952E-02    0.106E-01
RMM:   3    -0.657567650201E+03   -0.14947E-03   -0.54181E-04 17706   0.404E-02    0.115E-01
RMM:   4    -0.657567601855E+03    0.48346E-04   -0.14806E-04 13044   0.226E-02    0.600E-02
RMM:   5    -0.657567622065E+03   -0.20210E-04   -0.50327E-05 11966   0.132E-02    0.431E-02
RMM:   6    -0.657567647950E+03   -0.25885E-04   -0.26412E-05 11466   0.982E-03    0.241E-02
RMM:   7    -0.657567690980E+03   -0.43030E-04   -0.16678E-05 11156   0.703E-03    0.218E-02
RMM:   8    -0.657567718015E+03   -0.27035E-04   -0.70840E-06 10291   0.557E-03
  10 F= -.65756772E+03 E0= -.65714521E+03  d E =-.178580E-02  mag=    79.1440
       N       E                     dE             d eps       ncg     rms          rms(c)
DAV:   1    -0.657567860428E+03   -0.16945E-03   -0.64073E-03 23472   0.112E-01    0.324E-02
RMM:   2    -0.657567909374E+03   -0.48946E-04   -0.14910E-04 13067   0.219E-02    0.282E-02
RMM:   3    -0.657567929378E+03   -0.20004E-04   -0.26252E-05 11928   0.103E-02    0.290E-02
RMM:   4    -0.657567936192E+03   -0.68145E-05   -0.60352E-06 10068   0.516E-03    0.150E-02
RMM:   5    -0.657567949567E+03   -0.13375E-04   -0.20870E-06  7422   0.326E-03    0.932E-03
RMM:   6    -0.657567969455E+03   -0.19888E-04   -0.98001E-07  5829   0.294E-03    0.613E-03
RMM:   7    -0.657567986397E+03   -0.16942E-04   -0.34659E-07  4225   0.261E-03    0.353E-03
RMM:   8    -0.657568000862E+03   -0.14465E-04   -0.72174E-08  3170   0.241E-03
  11 F= -.65756800E+03 E0= -.65714548E+03  d E =-.206865E-02  mag=    79.1442
       N       E                     dE             d eps       ncg     rms          rms(c)
DAV:   1    -0.657568508601E+03   -0.52220E-03   -0.38554E-02 23280   0.282E-01    0.885E-02
RMM:   2    -0.657568644952E+03   -0.13635E-03   -0.95132E-04 21208   0.580E-02    0.757E-02
RMM:   3    -0.657568723476E+03   -0.78524E-04   -0.19228E-04 13034   0.239E-02    0.984E-02
RMM:   4    -0.657568658969E+03    0.64507E-04   -0.57176E-05 12159   0.163E-02    0.333E-02
RMM:   5    -0.657568661910E+03   -0.29407E-05   -0.23253E-05 11492   0.823E-03    0.267E-02
RMM:   6    -0.657568661468E+03    0.44145E-06   -0.10968E-05 10738   0.689E-03    0.167E-02
RMM:   7    -0.657568668839E+03   -0.73710E-05   -0.66440E-06 10042   0.454E-03    0.143E-02
RMM:   8    -0.657568676582E+03   -0.77426E-05   -0.25280E-06  8474   0.378E-03
  12 F= -.65756868E+03 E0= -.65714618E+03  d E =-.675719E-03  mag=    79.1444
       N       E                     dE             d eps       ncg     rms          rms(c)
DAV:   1    -0.657568683123E+03   -0.14284E-04   -0.17722E-05 14128   0.839E-03    0.737E-03
RMM:   2    -0.657568695400E+03   -0.12277E-04   -0.51873E-06 10038   0.552E-03    0.150E-02
RMM:   3    -0.657568698375E+03   -0.29746E-05   -0.85140E-07  5521   0.271E-03    0.382E-03
RMM:   4    -0.657568702254E+03   -0.38794E-05   -0.42078E-09  2507   0.202E-03    0.274E-03
RMM:   5    -0.657568707270E+03   -0.50152E-05   -0.40229E-09  2561   0.202E-03    0.242E-03
RMM:   6    -0.657568713477E+03   -0.62077E-05    0.00000E+00  2478   0.199E-03    0.174E-03
RMM:   7    -0.657568724049E+03   -0.10571E-04   -0.69462E-10  2536   0.202E-03    0.152E-03
RMM:   8    -0.657568740102E+03   -0.16053E-04   -0.16955E-09  2617   0.205E-03
  13 F= -.65756874E+03 E0= -.65714626E+03  d E =-.739240E-03  mag=    79.1447
       N       E                     dE             d eps       ncg     rms          rms(c)
DAV:   1    -0.657569151507E+03   -0.42746E-03   -0.30854E-02 23392   0.242E-01    0.897E-02
RMM:   2    -0.657569268847E+03   -0.11734E-03   -0.76696E-04 20253   0.511E-02    0.760E-02
RMM:   3    -0.657569344227E+03   -0.75380E-04   -0.16542E-04 12939   0.222E-02    0.102E-01
RMM:   4    -0.657569272883E+03    0.71344E-04   -0.51908E-05 12101   0.155E-02    0.310E-02
RMM:   5    -0.657569269053E+03    0.38305E-05   -0.23302E-05 11343   0.823E-03    0.293E-02
RMM:   6    -0.657569259030E+03    0.10023E-04   -0.11757E-05 10819   0.719E-03    0.161E-02
RMM:   7    -0.657569258111E+03    0.91922E-06   -0.57446E-06  9732   0.434E-03    0.129E-02
RMM:   8    -0.657569262510E+03   -0.43991E-05   -0.20830E-06  8205   0.358E-03
  14 F= -.65756926E+03 E0= -.65714680E+03  d E =-.522408E-03  mag=    79.1450
       N       E                     dE             d eps       ncg     rms          rms(c)
DAV:   1    -0.657569272949E+03   -0.14839E-04   -0.67862E-04 21728   0.364E-02    0.138E-02
RMM:   2    -0.657569282860E+03   -0.99107E-05   -0.20614E-05 12089   0.830E-03    0.133E-02
RMM:   3    -0.657569287000E+03   -0.41397E-05   -0.39839E-06  9979   0.443E-03    0.138E-02
RMM:   4    -0.657569288605E+03   -0.16051E-05   -0.49205E-07  4682   0.268E-03    0.571E-03
RMM:   5    -0.657569292669E+03   -0.40643E-05   -0.11809E-07  3163   0.241E-03    0.423E-03
RMM:   6    -0.657569301923E+03   -0.92541E-05   -0.57342E-09  2698   0.227E-03    0.308E-03
RMM:   7    -0.657569310001E+03   -0.80778E-05   -0.13466E-08  2716   0.229E-03    0.195E-03
RMM:   8    -0.657569318143E+03   -0.81416E-05   -0.38464E-09  2656   0.233E-03
  15 F= -.65756932E+03 E0= -.65714687E+03  d E =-.578041E-03  mag=    79.1454
       N       E                     dE             d eps       ncg     rms          rms(c)
DAV:   1    -0.657569778092E+03   -0.46809E-03   -0.23776E-02 23584   0.196E-01    0.849E-02
RMM:   2    -0.657569859853E+03   -0.81761E-04   -0.53318E-04 16693   0.389E-02    0.587E-02
RMM:   3    -0.657569891374E+03   -0.31522E-04   -0.10183E-04 12581   0.182E-02    0.571E-02
RMM:   4    -0.657569877067E+03    0.14307E-04   -0.36347E-05 11812   0.125E-02    0.366E-02
RMM:   5    -0.657569867470E+03    0.95963E-05   -0.15097E-05 10874   0.666E-03    0.282E-02
RMM:   6    -0.657569859713E+03    0.77570E-05   -0.72641E-06  9889   0.540E-03    0.155E-02
RMM:   7    -0.657569859834E+03   -0.12061E-06   -0.46264E-06  8764   0.401E-03    0.980E-03
RMM:   8    -0.657569863606E+03   -0.37719E-05   -0.11157E-06  6036   0.307E-03
  16 F= -.65756986E+03 E0= -.65714744E+03  d E =-.545463E-03  mag=    79.1457
       N       E                     dE             d eps       ncg     rms          rms(c)
DAV:   1    -0.657569911866E+03   -0.52032E-04   -0.22114E-02 23648   0.189E-01    0.821E-02
RMM:   2    -0.657569984560E+03   -0.72694E-04   -0.50060E-04 16387   0.375E-02    0.560E-02
RMM:   3    -0.657570008264E+03   -0.23704E-04   -0.93995E-05 12558   0.176E-02    0.518E-02
RMM:   4    -0.657569995958E+03    0.12306E-04   -0.34052E-05 11756   0.121E-02    0.349E-02
RMM:   5    -0.657569984600E+03    0.11358E-04   -0.14225E-05 10859   0.653E-03    0.268E-02
RMM:   6    -0.657569976103E+03    0.84969E-05   -0.64686E-06  9828   0.507E-03    0.160E-02
RMM:   7    -0.657569974238E+03    0.18654E-05   -0.42647E-06  8663   0.389E-03    0.961E-03
RMM:   8    -0.657569977351E+03   -0.31139E-05   -0.98214E-07  5677   0.299E-03
  17 F= -.65756998E+03 E0= -.65714759E+03  d E =-.659209E-03  mag=    79.1461
       N       E                     dE             d eps       ncg     rms          rms(c)
DAV:   1    -0.657570309429E+03   -0.33519E-03   -0.94352E-03 23520   0.120E-01    0.544E-02
RMM:   2    -0.657570340787E+03   -0.31358E-04   -0.22005E-04 13493   0.244E-02    0.375E-02
RMM:   3    -0.657570348464E+03   -0.76778E-05   -0.40192E-05 12017   0.120E-02    0.353E-02
RMM:   4    -0.657570342845E+03    0.56196E-05   -0.13421E-05 10882   0.759E-03    0.234E-02
RMM:   5    -0.657570337303E+03    0.55418E-05   -0.58958E-06  9479   0.440E-03    0.194E-02
RMM:   6    -0.657570333433E+03    0.38701E-05   -0.27221E-06  8227   0.369E-03    0.103E-02
RMM:   7    -0.657570334251E+03   -0.81770E-06   -0.13695E-06  5691   0.300E-03    0.531E-03
RMM:   8    -0.657570338145E+03   -0.38943E-05   -0.20589E-07  3410   0.254E-03
  18 F= -.65757034E+03 E0= -.65714795E+03  d E =-.360793E-03  mag=    79.1466
       N       E                     dE             d eps       ncg     rms          rms(c)
DAV:   1    -0.657570418623E+03   -0.84373E-04   -0.72011E-02 23200   0.332E-01    0.150E-01
RMM:   2    -0.657570664241E+03   -0.24562E-03   -0.16247E-03 21046   0.671E-02    0.102E-01
RMM:   3    -0.657570744243E+03   -0.80001E-04   -0.31930E-04 14894   0.297E-02    0.993E-02
RMM:   4    -0.657570703207E+03    0.41036E-04   -0.10552E-04 12564   0.211E-02    0.659E-02
RMM:   5    -0.657570672423E+03    0.30783E-04   -0.46360E-05 11869   0.112E-02    0.511E-02
RMM:   6    -0.657570641319E+03    0.31104E-04   -0.24499E-05 11402   0.935E-03    0.277E-02
RMM:   7    -0.657570627922E+03    0.13397E-04   -0.15742E-05 10791   0.671E-03    0.181E-02
RMM:   8    -0.657570624813E+03    0.31097E-05   -0.53683E-06  9708   0.486E-03
  19 F= -.65757062E+03 E0= -.65714825E+03  d E =-.647461E-03  mag=    79.1471
       N       E                     dE             d eps       ncg     rms          rms(c)
DAV:   1    -0.657570944260E+03   -0.31634E-03   -0.59997E-03 23968   0.101E-01    0.381E-02
RMM:   2    -0.657570960562E+03   -0.16302E-04   -0.14992E-04 12855   0.201E-02    0.295E-02
RMM:   3    -0.657570963509E+03   -0.29467E-05   -0.28047E-05 11896   0.102E-02    0.276E-02
RMM:   4    -0.657570960971E+03    0.25379E-05   -0.88223E-06 10371   0.613E-03    0.176E-02
RMM:   5    -0.657570960079E+03    0.89174E-06   -0.35871E-06  8194   0.368E-03    0.156E-02
RMM:   6    -0.657570960019E+03    0.60070E-07   -0.14746E-06  6543   0.316E-03    0.710E-03
RMM:   7    -0.657570963789E+03   -0.37700E-05   -0.72924E-07  4350   0.276E-03    0.519E-03
RMM:   8    -0.657570968871E+03   -0.50822E-05   -0.11540E-07  2994   0.252E-03
  20 F= -.65757097E+03 E0= -.65714859E+03  d E =-.344059E-03  mag=    79.1476
       N       E                     dE             d eps       ncg     rms          rms(c)
DAV:   1    -0.657571160868E+03   -0.19708E-03   -0.24751E-02 23600   0.204E-01    0.775E-02
RMM:   2    -0.657571243010E+03   -0.82142E-04   -0.59651E-04 17053   0.404E-02    0.624E-02
RMM:   3    -0.657571276022E+03   -0.33013E-04   -0.12811E-04 12656   0.194E-02    0.744E-02
RMM:   4    -0.657571247980E+03    0.28042E-04   -0.38292E-05 11884   0.128E-02    0.337E-02
RMM:   5    -0.657571245356E+03    0.26245E-05   -0.17360E-05 11038   0.698E-03    0.286E-02
RMM:   6    -0.657571241792E+03    0.35637E-05   -0.92177E-06 10159   0.612E-03    0.144E-02
RMM:   7    -0.657571245930E+03   -0.41374E-05   -0.54094E-06  9309   0.438E-03    0.117E-02
RMM:   8    -0.657571251428E+03   -0.54985E-05   -0.17286E-06  7080   0.333E-03
  21 F= -.65757125E+03 E0= -.65714888E+03  d E =-.626616E-03  mag=    79.1482
       N       E                     dE             d eps       ncg     rms          rms(c)
DAV:   1    -0.657571498695E+03   -0.25277E-03   -0.32685E-03 23488   0.704E-02    0.310E-02
RMM:   2    -0.657571517198E+03   -0.18503E-04   -0.82620E-05 12434   0.145E-02    0.252E-02
RMM:   3    -0.657571524298E+03   -0.70995E-05   -0.17162E-05 11172   0.801E-03    0.232E-02
RMM:   4    -0.657571526043E+03   -0.17453E-05   -0.54279E-06  9253   0.503E-03    0.113E-02
RMM:   5    -0.657571533331E+03   -0.72881E-05   -0.15180E-06  5485   0.299E-03    0.953E-03
RMM:   6    -0.657571540350E+03   -0.70189E-05   -0.48170E-07  4050   0.272E-03    0.737E-03
RMM:   7    -0.657571546477E+03   -0.61272E-05   -0.22302E-07  3021   0.256E-03    0.496E-03
RMM:   8    -0.657571553540E+03   -0.70627E-05   -0.88848E-08  2799   0.253E-03
  22 F= -.65757155E+03 E0= -.65714919E+03  d E =-.302112E-03  mag=    79.1487
       N       E                     dE             d eps       ncg     rms          rms(c)
DAV:   1    -0.657571943183E+03   -0.39671E-03   -0.29574E-02 23456   0.211E-01    0.923E-02
RMM:   2    -0.657572050889E+03   -0.10771E-03   -0.69890E-04 17719   0.427E-02    0.712E-02
RMM:   3    -0.657572091470E+03   -0.40581E-04   -0.15332E-04 12975   0.211E-02    0.732E-02
RMM:   4    -0.657572074396E+03    0.17074E-04   -0.51861E-05 11915   0.148E-02    0.372E-02
RMM:   5    -0.657572077991E+03   -0.35958E-05   -0.20250E-05 11107   0.739E-03    0.361E-02
RMM:   6    -0.657572075772E+03    0.22198E-05   -0.10374E-05 10397   0.627E-03    0.172E-02
RMM:   7    -0.657572080378E+03   -0.46063E-05   -0.70839E-06  9515   0.457E-03    0.122E-02
RMM:   8    -0.657572085212E+03   -0.48345E-05   -0.22304E-06  7552   0.357E-03
  23 F= -.65757209E+03 E0= -.65714974E+03  d E =-.833784E-03  mag=    79.1493
       N       E                     dE             d eps       ncg     rms          rms(c)
DAV:   1    -0.657571457734E+03    0.62264E-03   -0.11839E-01 23120   0.422E-01    0.185E-01
RMM:   2    -0.657571875899E+03   -0.41816E-03   -0.27720E-03 21460   0.855E-02    0.143E-01
RMM:   3    -0.657572022575E+03   -0.14668E-03   -0.61389E-04 17962   0.411E-02    0.139E-01
RMM:   4    -0.657571956684E+03    0.65891E-04   -0.18406E-04 13634   0.259E-02    0.746E-02
RMM:   5    -0.657571963103E+03   -0.64187E-05   -0.80861E-05 12203   0.148E-02    0.749E-02
RMM:   6    -0.657571936127E+03    0.26976E-04   -0.41704E-05 11854   0.118E-02    0.328E-02
RMM:   7    -0.657571937302E+03   -0.11753E-05   -0.29866E-05 11269   0.844E-03    0.242E-02
RMM:   8    -0.657571937305E+03   -0.32596E-08   -0.10966E-05 10603   0.650E-03
  24 F= -.65757194E+03 E0= -.65714962E+03  d E =-.685877E-03  mag=    79.1500
       N       E                     dE             d eps       ncg     rms          rms(c)
DAV:   1    -0.657572038594E+03   -0.10129E-03   -0.38803E-02 23584   0.241E-01    0.106E-01
RMM:   2    -0.657572185852E+03   -0.14726E-03   -0.89000E-04 18980   0.487E-02    0.831E-02
RMM:   3    -0.657572254505E+03   -0.68652E-04   -0.19664E-04 13410   0.238E-02    0.893E-02
RMM:   4    -0.657572227366E+03    0.27138E-04   -0.65511E-05 11963   0.167E-02    0.443E-02
RMM:   5    -0.657572239475E+03   -0.12109E-04   -0.24914E-05 11126   0.831E-03    0.410E-02
RMM:   6    -0.657572243221E+03   -0.37458E-05   -0.13091E-05 10461   0.716E-03    0.185E-02
RMM:   7    -0.657572253085E+03   -0.98641E-05   -0.87586E-06  9750   0.506E-03    0.137E-02
RMM:   8    -0.657572259531E+03   -0.64466E-05   -0.27239E-06  8122   0.384E-03
  25 F= -.65757226E+03 E0= -.65714992E+03  d E =-.100810E-02  mag=    79.1505
       N       E                     dE             d eps       ncg     rms          rms(c)
DAV:   1    -0.657572611119E+03   -0.35803E-03   -0.11800E-02 23696   0.135E-01    0.561E-02
RMM:   2    -0.657572652862E+03   -0.41743E-04   -0.28942E-04 14011   0.280E-02    0.492E-02
RMM:   3    -0.657572664527E+03   -0.11665E-04   -0.64156E-05 12009   0.147E-02    0.460E-02
RMM:   4    -0.657572657970E+03    0.65574E-05   -0.19701E-05 10890   0.921E-03    0.220E-02
RMM:   5    -0.657572659628E+03   -0.16587E-05   -0.76222E-06  9538   0.480E-03    0.217E-02
RMM:   6    -0.657572659470E+03    0.15832E-06   -0.34311E-06  8421   0.393E-03    0.135E-02
RMM:   7    -0.657572660651E+03   -0.11809E-05   -0.19601E-06  6262   0.314E-03    0.682E-03
RMM:   8    -0.657572663820E+03   -0.31693E-05   -0.33176E-07  3896   0.267E-03
  26 F= -.65757266E+03 E0= -.65715033E+03  d E =-.404289E-03  mag=    79.1511
       N       E                     dE             d eps       ncg     rms          rms(c)
DAV:   1    -0.657572745508E+03   -0.84857E-04   -0.31785E-02 23280   0.221E-01    0.925E-02
RMM:   2    -0.657572853313E+03   -0.10781E-03   -0.79160E-04 18417   0.463E-02    0.801E-02
RMM:   3    -0.657572881221E+03   -0.27908E-04   -0.17723E-04 13334   0.227E-02    0.725E-02
RMM:   4    -0.657572863410E+03    0.17811E-04   -0.60136E-05 11970   0.159E-02    0.341E-02
RMM:   5    -0.657572863371E+03    0.38650E-07   -0.23620E-05 10860   0.792E-03    0.250E-02
RMM:   6    -0.657572859790E+03    0.35809E-05   -0.11631E-05 10268   0.611E-03    0.157E-02
RMM:   7    -0.657572861354E+03   -0.15642E-05   -0.57719E-06  9508   0.447E-03    0.180E-02
RMM:   8    -0.657572861289E+03    0.65193E-07   -0.20398E-06  7313   0.338E-03
  27 F= -.65757286E+03 E0= -.65715052E+03  d E =-.601758E-03  mag=    79.1517
       N       E                     dE             d eps       ncg     rms          rms(c)
DAV:   1    -0.657573090898E+03   -0.22954E-03   -0.14459E-02 24080   0.153E-01    0.571E-02
RMM:   2    -0.657573136882E+03   -0.45984E-04   -0.37086E-04 14534   0.315E-02    0.542E-02
RMM:   3    -0.657573145970E+03   -0.90883E-05   -0.81809E-05 12233   0.167E-02    0.460E-02
RMM:   4    -0.657573139430E+03    0.65402E-05   -0.24599E-05 11362   0.103E-02    0.222E-02
RMM:   5    -0.657573138474E+03    0.95554E-06   -0.10069E-05 10373   0.542E-03    0.178E-02
RMM:   6    -0.657573136189E+03    0.22850E-05   -0.48952E-06  9037   0.425E-03    0.148E-02
RMM:   7    -0.657573135091E+03    0.10985E-05   -0.24196E-06  7141   0.336E-03    0.105E-02
RMM:   8    -0.657573135119E+03   -0.27940E-07   -0.50414E-07  4075   0.275E-03
  28 F= -.65757314E+03 E0= -.65715079E+03  d E =-.273830E-03  mag=    79.1523
       N       E                     dE             d eps       ncg     rms          rms(c)
DAV:   1    -0.657573153012E+03   -0.17921E-04   -0.26431E-03 23472   0.657E-02    0.246E-02
RMM:   2    -0.657573163332E+03   -0.10320E-04   -0.72120E-05 12244   0.137E-02    0.241E-02
RMM:   3    -0.657573164907E+03   -0.15753E-05   -0.14530E-05 11106   0.747E-03    0.205E-02
RMM:   4    -0.657573164363E+03    0.54389E-06   -0.42383E-06  8912   0.447E-03    0.110E-02
RMM:   5    -0.657573164801E+03   -0.43772E-06   -0.92739E-07  4475   0.274E-03    0.103E-02
RMM:   6    -0.657573165234E+03   -0.43306E-06   -0.29134E-07  3476   0.259E-03    0.655E-03
RMM:   7    -0.657573166252E+03   -0.10175E-05   -0.16699E-07  2839   0.249E-03    0.359E-03
RMM:   8    -0.657573168334E+03   -0.20820E-05   -0.74508E-08  2716   0.250E-03
  29 F= -.65757317E+03 E0= -.65715082E+03  d E =-.307044E-03  mag=    79.1529
       N       E                     dE             d eps       ncg     rms          rms(c)
DAV:   1    -0.657573344886E+03   -0.17863E-03   -0.41114E-03 23104   0.885E-02    0.268E-02
RMM:   2    -0.657573361695E+03   -0.16809E-04   -0.10326E-04 12254   0.177E-02    0.245E-02
RMM:   3    -0.657573368113E+03   -0.64177E-05   -0.19033E-05 11604   0.907E-03    0.211E-02
RMM:   4    -0.657573370022E+03   -0.19097E-05   -0.57601E-06  9931   0.504E-03    0.119E-02
RMM:   5    -0.657573373784E+03   -0.37616E-05   -0.14523E-06  5802   0.296E-03    0.100E-02
RMM:   6    -0.657573377219E+03   -0.34347E-05   -0.32375E-07  3795   0.263E-03    0.640E-03
RMM:   7    -0.657573381041E+03   -0.38226E-05   -0.19293E-07  3028   0.257E-03    0.398E-03
RMM:   8    -0.657573384540E+03   -0.34985E-05   -0.11936E-07  2917   0.252E-03
  30 F= -.65757338E+03 E0= -.65715105E+03  d E =-.216206E-03  mag=    79.1535
       N       E                     dE             d eps       ncg     rms          rms(c)
DAV:   1    -0.657573426649E+03   -0.45608E-04   -0.34653E-03 23568   0.813E-02    0.247E-02
RMM:   2    -0.657573442081E+03   -0.15432E-04   -0.88872E-05 12194   0.164E-02    0.238E-02
RMM:   3    -0.657573447634E+03   -0.55535E-05   -0.16431E-05 11519   0.845E-03    0.197E-02
RMM:   4    -0.657573449723E+03   -0.20890E-05   -0.49531E-06  9510   0.472E-03    0.115E-02
RMM:   5    -0.657573453214E+03   -0.34901E-05   -0.11583E-06  5313   0.283E-03    0.966E-03
RMM:   6    -0.657573456820E+03   -0.36065E-05   -0.24831E-07  3516   0.258E-03    0.587E-03
RMM:   7    -0.657573461001E+03   -0.41807E-05   -0.11648E-07  2782   0.252E-03    0.353E-03
RMM:   8    -0.657573464671E+03   -0.36699E-05   -0.10381E-07  2818   0.250E-03
  31 F= -.65757346E+03 E0= -.65715114E+03  d E =-.296337E-03  mag=    79.1540
       N       E                     dE             d eps       ncg     rms          rms(c)
DAV:   1    -0.657573594529E+03   -0.13353E-03   -0.48171E-03 23728   0.909E-02    0.352E-02
RMM:   2    -0.657573616684E+03   -0.22155E-04   -0.11741E-04 12477   0.190E-02    0.314E-02
RMM:   3    -0.657573626064E+03   -0.93798E-05   -0.24910E-05 11700   0.100E-02    0.276E-02
RMM:   4    -0.657573626692E+03   -0.62771E-06   -0.79138E-06  9947   0.594E-03    0.141E-02
RMM:   5    -0.657573629844E+03   -0.31521E-05   -0.22483E-06  6745   0.326E-03    0.119E-02
RMM:   6    -0.657573632503E+03   -0.26594E-05   -0.78854E-07  5078   0.287E-03    0.746E-03
RMM:   7    -0.657573634917E+03   -0.24135E-05   -0.28322E-07  3313   0.261E-03    0.423E-03
RMM:   8    -0.657573636965E+03   -0.20480E-05   -0.13108E-07  2876   0.255E-03
  32 F= -.65757364E+03 E0= -.65715133E+03  d E =-.172294E-03  mag=    79.1545
       N       E                     dE             d eps       ncg     rms          rms(c)
DAV:   1    -0.657573655758E+03   -0.20841E-04   -0.22826E-03 23024   0.627E-02    0.244E-02
RMM:   2    -0.657573667464E+03   -0.11706E-04   -0.57754E-05 12086   0.132E-02    0.211E-02
RMM:   3    -0.657573672483E+03   -0.50194E-05   -0.11615E-05 11114   0.687E-03    0.182E-02
RMM:   4    -0.657573673393E+03   -0.90990E-06   -0.34899E-06  8499   0.417E-03    0.888E-03
RMM:   5    -0.657573675937E+03   -0.25439E-05   -0.52149E-07  3743   0.258E-03    0.717E-03
RMM:   6    -0.657573678318E+03   -0.23809E-05   -0.12987E-07  2921   0.243E-03    0.670E-03
RMM:   7    -0.657573680091E+03   -0.17732E-05   -0.72561E-08  2639   0.236E-03    0.350E-03
RMM:   8    -0.657573682309E+03   -0.22179E-05   -0.81356E-08  2701   0.244E-03
  33 F= -.65757368E+03 E0= -.65715138E+03  d E =-.217638E-03  mag=    79.1550
       N       E                     dE             d eps       ncg     rms          rms(c)
DAV:   1    -0.657573786576E+03   -0.10648E-03   -0.32917E-03 23232   0.735E-02    0.299E-02
RMM:   2    -0.657573803251E+03   -0.16675E-04   -0.78683E-05 12233   0.151E-02    0.240E-02
RMM:   3    -0.657573811376E+03   -0.81249E-05   -0.15658E-05 11297   0.793E-03    0.213E-02
RMM:   4    -0.657573812641E+03   -0.12652E-05   -0.50759E-06  9221   0.483E-03    0.105E-02
RMM:   5    -0.657573816636E+03   -0.39954E-05   -0.11582E-06  5064   0.289E-03    0.733E-03
RMM:   6    -0.657573819051E+03   -0.24145E-05   -0.36798E-07  3668   0.261E-03    0.621E-03
RMM:   7    -0.657573820463E+03   -0.14124E-05   -0.95149E-08  2765   0.250E-03    0.446E-03
RMM:   8    -0.657573821383E+03   -0.92015E-06   -0.94309E-08  2750   0.251E-03
  34 F= -.65757382E+03 E0= -.65715153E+03  d E =-.139074E-03  mag=    79.1555
       N       E                     dE             d eps       ncg     rms          rms(c)
DAV:   1    -0.657573847610E+03   -0.27147E-04   -0.73396E-03 23616   0.110E-01    0.446E-02
RMM:   2    -0.657573878237E+03   -0.30627E-04   -0.17267E-04 13090   0.225E-02    0.374E-02
RMM:   3    -0.657573892442E+03   -0.14205E-04   -0.37094E-05 11886   0.119E-02    0.326E-02
RMM:   4    -0.657573892370E+03    0.71246E-07   -0.12383E-05 10409   0.727E-03    0.163E-02
RMM:   5    -0.657573896134E+03   -0.37635E-05   -0.40944E-06  8443   0.394E-03    0.119E-02
RMM:   6    -0.657573897393E+03   -0.12591E-05   -0.16339E-06  6199   0.317E-03    0.101E-02
RMM:   7    -0.657573897533E+03   -0.13970E-06   -0.50483E-07  4149   0.277E-03    0.601E-03
RMM:   8    -0.657573897213E+03    0.31944E-06   -0.10701E-07  2804   0.258E-03
  35 F= -.65757390E+03 E0= -.65715162E+03  d E =-.214904E-03  mag=    79.1559
       N       E                     dE             d eps       ncg     rms          rms(c)
DAV:   1    -0.657573965050E+03   -0.67517E-04   -0.27769E-03 23760   0.691E-02    0.267E-02
RMM:   2    -0.657573977827E+03   -0.12777E-04   -0.68019E-05 12158   0.143E-02    0.217E-02
RMM:   3    -0.657573983684E+03   -0.58571E-05   -0.12948E-05 11515   0.738E-03    0.188E-02
RMM:   4    -0.657573985057E+03   -0.13732E-05   -0.41923E-06  9069   0.445E-03    0.111E-02
RMM:   5    -0.657573988141E+03   -0.30841E-05   -0.81132E-07  4471   0.275E-03    0.933E-03
RMM:   6    -0.657573989989E+03   -0.18477E-05   -0.19489E-07  3179   0.253E-03    0.654E-03
RMM:   7    -0.657573991443E+03   -0.14538E-05   -0.10080E-07  2559   0.247E-03    0.339E-03
RMM:   8    -0.657573992541E+03   -0.10980E-05   -0.10624E-07  2643   0.251E-03
  36 F= -.65757399E+03 E0= -.65715171E+03  d E =-.953274E-04  mag=    79.1564
