       N       E                     dE             d eps       ncg     rms          rms(c)
DAV:   1     0.910788132113E+04    0.91079E+04   -0.34986E+05 25552   0.111E+03
DAV:   2     0.755212765950E+03   -0.83527E+04   -0.75144E+04 31744   0.303E+02
DAV:   3    -0.940511134136E+03   -0.16957E+04   -0.16731E+04 30240   0.148E+02
DAV:   4    -0.102386201923E+04   -0.83351E+02   -0.82785E+02 33952   0.402E+01
DAV:   5    -0.102715797741E+04   -0.32960E+01   -0.32872E+01 40752   0.626E+00    0.177E+02
RMM:   6    -0.100770432310E+04    0.19454E+02   -0.29116E+03 27925   0.928E+01    0.371E+02
RMM:   7    -0.797806011047E+03    0.20990E+03   -0.32182E+02 25001   0.292E+01    0.236E+02
RMM:   8    -0.876859102707E+03   -0.79053E+02   -0.33114E+02 25100   0.286E+01    0.200E+02
RMM:   9    -0.678256732964E+03    0.19860E+03   -0.16447E+02 25141   0.193E+01    0.153E+02
RMM:  10    -0.560059769116E+03    0.11820E+03   -0.86960E+01 25004   0.155E+01    0.877E+01
RMM:  11    -0.540480881521E+03    0.19579E+02   -0.23682E+01 25013   0.728E+00    0.754E+01
RMM:  12    -0.533138881106E+03    0.73420E+01   -0.18788E+01 25089   0.767E+00    0.708E+01
RMM:  13    -0.521270060122E+03    0.11869E+02   -0.15689E+01 25002   0.612E+00    0.630E+01
RMM:  14    -0.521190893251E+03    0.79167E-01   -0.10471E+01 25195   0.445E+00    0.518E+01
RMM:  15    -0.515834033284E+03    0.53569E+01   -0.10692E+01 25693   0.470E+00    0.463E+01
RMM:  16    -0.507099479752E+03    0.87346E+01   -0.44852E+00 25203   0.344E+00    0.414E+01
RMM:  17    -0.498780186783E+03    0.83193E+01   -0.28831E+00 25657   0.258E+00    0.383E+01
RMM:  18    -0.491177581241E+03    0.76026E+01   -0.19799E+00 25717   0.219E+00    0.347E+01
RMM:  19    -0.485728357648E+03    0.54492E+01   -0.13356E+00 26539   0.164E+00    0.322E+01
RMM:  20    -0.484284015990E+03    0.14443E+01   -0.58649E-01 27887   0.113E+00    0.306E+01
RMM:  21    -0.482224350033E+03    0.20597E+01   -0.56560E-01 27132   0.114E+00    0.294E+01
RMM:  22    -0.480611968256E+03    0.16124E+01   -0.54853E-01 27169   0.110E+00    0.276E+01
RMM:  23    -0.482456622852E+03   -0.18447E+01   -0.57553E-01 27712   0.113E+00    0.269E+01
RMM:  24    -0.485275136122E+03   -0.28185E+01   -0.80055E-01 29075   0.136E+00    0.268E+01
RMM:  25    -0.491479612906E+03   -0.62045E+01   -0.11822E+00 30494   0.165E+00    0.265E+01
RMM:  26    -0.500391920993E+03   -0.89123E+01   -0.19529E+00 32252   0.205E+00    0.250E+01
RMM:  27    -0.516762427346E+03   -0.16371E+02   -0.42233E+00 34996   0.267E+00    0.248E+01
RMM:  28    -0.536490098050E+03   -0.19728E+02   -0.42679E+00 34657   0.261E+00    0.236E+01
RMM:  29    -0.563208452047E+03   -0.26718E+02   -0.96054E+00 37425   0.370E+00    0.240E+01
RMM:  30    -0.591642344934E+03   -0.28434E+02   -0.14530E+01 38161   0.430E+00    0.230E+01
RMM:  31    -0.611796849263E+03   -0.20155E+02   -0.11773E+01 38136   0.392E+00    0.220E+01
RMM:  32    -0.624875034921E+03   -0.13078E+02   -0.71202E+00 36196   0.311E+00    0.203E+01
RMM:  33    -0.636031496209E+03   -0.11156E+02   -0.69977E+00 35965   0.294E+00    0.187E+01
RMM:  34    -0.642184057722E+03   -0.61526E+01   -0.19211E+00 34644   0.183E+00    0.171E+01
RMM:  35    -0.648137984543E+03   -0.59539E+01   -0.12687E+00 33328   0.154E+00    0.153E+01
RMM:  36    -0.653954609746E+03   -0.58166E+01   -0.11530E+00 32543   0.144E+00    0.135E+01
RMM:  37    -0.658355975196E+03   -0.44014E+01   -0.74273E-01 31301   0.108E+00    0.130E+01
RMM:  38    -0.662803301117E+03   -0.44473E+01   -0.68475E-01 30947   0.108E+00    0.127E+01
RMM:  39    -0.668480125154E+03   -0.56768E+01   -0.16259E+00 33993   0.149E+00    0.140E+01
RMM:  40    -0.672347979634E+03   -0.38679E+01   -0.20259E+00 34593   0.159E+00    0.159E+01
RMM:  41    -0.675266398774E+03   -0.29184E+01   -0.99753E-01 32328   0.115E+00    0.170E+01
RMM:  42    -0.677643339472E+03   -0.23769E+01   -0.97327E-01 32669   0.118E+00    0.180E+01
RMM:  43    -0.678852893976E+03   -0.12096E+01   -0.70118E-01 31592   0.100E+00    0.179E+01
RMM:  44    -0.681419374491E+03   -0.25665E+01   -0.71483E-01 31147   0.920E-01    0.173E+01
RMM:  45    -0.683276900389E+03   -0.18575E+01   -0.72911E-01 31147   0.914E-01    0.156E+01
RMM:  46    -0.685284741841E+03   -0.20078E+01   -0.45873E-01 30838   0.739E-01    0.129E+01
RMM:  47    -0.686444799853E+03   -0.11601E+01   -0.20683E-01 29556   0.569E-01    0.104E+01
RMM:  48    -0.687229853158E+03   -0.78505E+00   -0.17756E-01 29748   0.575E-01    0.789E+00
RMM:  49    -0.688518966402E+03   -0.12891E+01   -0.15036E-01 29429   0.541E-01    0.566E+00
RMM:  50    -0.689534119831E+03   -0.10152E+01   -0.17989E-01 30903   0.566E-01    0.457E+00
RMM:  51    -0.690632712238E+03   -0.10986E+01   -0.22441E-01 30604   0.573E-01    0.382E+00
RMM:  52    -0.691428261157E+03   -0.79555E+00   -0.18185E-01 28821   0.416E-01    0.340E+00
RMM:  53    -0.691670952428E+03   -0.24269E+00   -0.35603E-02 25898   0.269E-01    0.306E+00
RMM:  54    -0.691579163572E+03    0.91789E-01   -0.27603E-02 25816   0.259E-01    0.276E+00
RMM:  55    -0.691259449373E+03    0.31971E+00   -0.42350E-02 28194   0.286E-01    0.249E+00
RMM:  56    -0.690972117258E+03    0.28733E+00   -0.47821E-02 28513   0.300E-01    0.230E+00
RMM:  57    -0.691252259723E+03   -0.28014E+00   -0.23137E-02 26122   0.234E-01    0.187E+00
RMM:  58    -0.691628803751E+03   -0.37654E+00   -0.16249E-02 25911   0.194E-01    0.164E+00
RMM:  59    -0.691722666943E+03   -0.93863E-01   -0.11347E-02 25529   0.154E-01    0.144E+00
RMM:  60    -0.691737718635E+03   -0.15052E-01   -0.55708E-03 25030   0.111E-01    0.131E+00
RMM:  61    -0.691810745349E+03   -0.73027E-01   -0.51644E-03 25238   0.102E-01    0.124E+00
RMM:  62    -0.691891870227E+03   -0.81125E-01   -0.36802E-03 25054   0.884E-02    0.119E+00
RMM:  63    -0.692074496966E+03   -0.18263E+00   -0.53180E-03 26939   0.984E-02    0.111E+00
RMM:  64    -0.692179105714E+03   -0.10461E+00   -0.39037E-03 26666   0.859E-02    0.109E+00
RMM:  65    -0.692215712406E+03   -0.36607E-01   -0.34782E-03 26458   0.807E-02    0.103E+00
RMM:  66    -0.692182692410E+03    0.33020E-01   -0.44766E-03 28383   0.814E-02    0.104E+00
RMM:  67    -0.692103492446E+03    0.79200E-01   -0.32871E-03 25993   0.685E-02    0.968E-01
RMM:  68    -0.692015491496E+03    0.88001E-01   -0.25742E-03 25634   0.578E-02    0.947E-01
RMM:  69    -0.691945469488E+03    0.70022E-01   -0.25264E-03 26761   0.547E-02    0.908E-01
RMM:  70    -0.691845725773E+03    0.99744E-01   -0.36423E-03 28219   0.639E-02    0.862E-01
RMM:  71    -0.691818828468E+03    0.26897E-01   -0.33979E-03 28840   0.738E-02    0.861E-01
RMM:  72    -0.691874624698E+03   -0.55796E-01   -0.34037E-03 27861   0.787E-02    0.787E-01
RMM:  73    -0.691887548198E+03   -0.12923E-01   -0.20341E-03 26509   0.575E-02    0.659E-01
RMM:  74    -0.691912031375E+03   -0.24483E-01   -0.33835E-03 28526   0.714E-02    0.571E-01
RMM:  75    -0.691945841407E+03   -0.33810E-01   -0.46184E-03 30222   0.768E-02    0.518E-01
RMM:  76    -0.692036690935E+03   -0.90850E-01   -0.29634E-03 27654   0.648E-02    0.396E-01
RMM:  77    -0.692118125092E+03   -0.81434E-01   -0.28691E-03 26610   0.555E-02    0.310E-01
RMM:  78    -0.692254757566E+03   -0.13663E+00   -0.28166E-03 25636   0.504E-02    0.258E-01
RMM:  79    -0.692421620034E+03   -0.16686E+00   -0.18987E-03 24361   0.415E-02    0.186E-01
RMM:  80    -0.692717806543E+03   -0.29619E+00   -0.13428E-03 23257   0.337E-02
   1 F= -.69271781E+03 E0= -.69231414E+03  d E =-.692718E+03  mag=    82.6575
       N       E                     dE             d eps       ncg     rms          rms(c)
DAV:   1    -0.689972894546E+03    0.24487E+01   -0.78752E+02 28288   0.297E+01    0.120E+01
RMM:   2    -0.691965620423E+03   -0.19927E+01   -0.28023E+01 24960   0.571E+00    0.174E+01
RMM:   3    -0.692765750168E+03   -0.80013E+00   -0.63995E+00 25139   0.302E+00    0.109E+01
RMM:   4    -0.691930933516E+03    0.83482E+00   -0.73222E-01 25503   0.118E+00    0.823E+00
RMM:   5    -0.691638060754E+03    0.29287E+00   -0.22625E-01 25295   0.638E-01    0.422E+00
RMM:   6    -0.691796586142E+03   -0.15853E+00   -0.15907E-01 25411   0.422E-01    0.333E+00
RMM:   7    -0.692042871713E+03   -0.24629E+00   -0.11576E-01 25695   0.393E-01    0.265E+00
RMM:   8    -0.692245586039E+03   -0.20271E+00   -0.13496E-01 27027   0.400E-01    0.232E+00
RMM:   9    -0.692195612868E+03    0.49973E-01   -0.10133E-01 26923   0.370E-01    0.156E+00
RMM:  10    -0.692156179621E+03    0.39433E-01   -0.31862E-02 25091   0.247E-01    0.995E-01
RMM:  11    -0.692215949995E+03   -0.59770E-01   -0.22658E-02 24837   0.192E-01    0.867E-01
RMM:  12    -0.692281457929E+03   -0.65508E-01   -0.14259E-02 24281   0.141E-01    0.411E-01
RMM:  13    -0.692316211853E+03   -0.34754E-01   -0.45943E-03 23358   0.848E-02    0.364E-01
RMM:  14    -0.692328729754E+03   -0.12518E-01   -0.16437E-03 22761   0.539E-02    0.234E-01
RMM:  15    -0.692337242912E+03   -0.85132E-02   -0.92097E-04 22138   0.350E-02    0.227E-01
RMM:  16    -0.692342610179E+03   -0.53673E-02   -0.62249E-04 20692   0.320E-02    0.197E-01
RMM:  17    -0.692342485867E+03    0.12431E-03   -0.39854E-04 19822   0.271E-02    0.158E-01
RMM:  18    -0.692340185689E+03    0.23002E-02   -0.29464E-04 18733   0.227E-02    0.134E-01
RMM:  19    -0.692336883638E+03    0.33021E-02   -0.20138E-04 17393   0.181E-02    0.124E-01
RMM:  20    -0.692332989685E+03    0.38940E-02   -0.22909E-04 17319   0.187E-02    0.117E-01
RMM:  21    -0.692329196131E+03    0.37936E-02   -0.20903E-04 17013   0.188E-02    0.103E-01
RMM:  22    -0.692328740774E+03    0.45536E-03   -0.10300E-04 15152   0.135E-02    0.961E-02
RMM:  23    -0.692330974873E+03   -0.22341E-02   -0.64337E-05 14747   0.106E-02    0.858E-02
RMM:  24    -0.692335168787E+03   -0.41939E-02   -0.38220E-05 14185   0.820E-03    0.818E-02
RMM:  25    -0.692342068882E+03   -0.69001E-02   -0.39872E-05 14509   0.729E-03    0.760E-02
RMM:  26    -0.692352147574E+03   -0.10079E-01   -0.75850E-05 15248   0.881E-03    0.725E-02
RMM:  27    -0.692360903529E+03   -0.87560E-02   -0.12071E-04 16077   0.103E-02    0.654E-02
RMM:  28    -0.692366835453E+03   -0.59319E-02   -0.15404E-04 16583   0.115E-02    0.606E-02
RMM:  29    -0.692368819336E+03   -0.19839E-02   -0.85595E-05 14878   0.956E-03    0.528E-02
RMM:  30    -0.692371565573E+03   -0.27462E-02   -0.71143E-05 14811   0.849E-03    0.493E-02
RMM:  31    -0.692373860478E+03   -0.22949E-02   -0.34818E-05 13849   0.685E-03    0.439E-02
RMM:  32    -0.692376837457E+03   -0.29770E-02   -0.24797E-05 13513   0.591E-03    0.423E-02
RMM:  33    -0.692380145483E+03   -0.33080E-02   -0.16883E-05 13105   0.509E-03    0.401E-02
RMM:  34    -0.692385383637E+03   -0.52382E-02   -0.15968E-05 13381   0.484E-03    0.400E-02
RMM:  35    -0.692392094443E+03   -0.67108E-02   -0.19328E-05 13385   0.518E-03    0.380E-02
RMM:  36    -0.692397080973E+03   -0.49865E-02   -0.25461E-05 13046   0.526E-03    0.357E-02
RMM:  37    -0.692401505772E+03   -0.44248E-02   -0.21992E-05 13091   0.527E-03    0.322E-02
RMM:  38    -0.692404038724E+03   -0.25330E-02   -0.14380E-05 12544   0.431E-03    0.295E-02
RMM:  39    -0.692406169198E+03   -0.21305E-02   -0.10894E-05 12854   0.395E-03    0.284E-02
RMM:  40    -0.692408568040E+03   -0.23988E-02   -0.94857E-06 12877   0.376E-03    0.267E-02
RMM:  41    -0.692410545809E+03   -0.19778E-02   -0.59596E-06 11694   0.324E-03    0.255E-02
RMM:  42    -0.692412842522E+03   -0.22967E-02   -0.50215E-06 11492   0.314E-03    0.244E-02
RMM:  43    -0.692414868469E+03   -0.20259E-02   -0.34795E-06 10262   0.278E-03    0.232E-02
RMM:  44    -0.692418741024E+03   -0.38726E-02   -0.65892E-06 11746   0.313E-03    0.221E-02
RMM:  45    -0.692422532567E+03   -0.37915E-02   -0.71580E-06 11852   0.311E-03    0.205E-02
RMM:  46    -0.692425974869E+03   -0.34423E-02   -0.72599E-06 11646   0.324E-03    0.199E-02
RMM:  47    -0.692429401704E+03   -0.34268E-02   -0.75536E-06 11387   0.325E-03    0.165E-02
RMM:  48    -0.692432946363E+03   -0.35447E-02   -0.69425E-06 10938   0.303E-03    0.151E-02
RMM:  49    -0.692436413922E+03   -0.34676E-02   -0.72955E-06 11704   0.311E-03    0.128E-02
RMM:  50    -0.692439126698E+03   -0.27128E-02   -0.56450E-06 10979   0.289E-03    0.107E-02
RMM:  51    -0.692440626183E+03   -0.14995E-02   -0.29540E-06  9009   0.250E-03    0.862E-03
RMM:  52    -0.692441743386E+03   -0.11172E-02   -0.17230E-06  8341   0.236E-03    0.748E-03
RMM:  53    -0.692442988081E+03   -0.12447E-02   -0.14401E-06  8570   0.238E-03    0.665E-03
RMM:  54    -0.692443935324E+03   -0.94724E-03   -0.90107E-07  7833   0.225E-03    0.511E-03
RMM:  55    -0.692444658470E+03   -0.72315E-03   -0.96940E-07  7763   0.221E-03    0.426E-03
RMM:  56    -0.692444888501E+03   -0.23003E-03   -0.90593E-07  7441   0.215E-03    0.383E-03
RMM:  57    -0.692444958231E+03   -0.69730E-04   -0.77119E-07  7098   0.211E-03
   2 F= -.69244496E+03 E0= -.69203539E+03  d E =0.272848E+00  mag=    82.7784
       N       E                     dE             d eps       ncg     rms          rms(c)
DAV:   1    -0.693359918466E+03   -0.91503E+00   -0.17011E+02 27328   0.135E+01    0.721E+00
RMM:   2    -0.693985824652E+03   -0.62591E+00   -0.76875E+00 24960   0.270E+00    0.106E+01
RMM:   3    -0.693754526514E+03    0.23130E+00   -0.14987E+00 24846   0.175E+00    0.517E+00
RMM:   4    -0.693676491023E+03    0.78035E-01   -0.26864E-01 24876   0.769E-01    0.225E+00
RMM:   5    -0.693666649732E+03    0.98413E-02   -0.10861E-01 24592   0.420E-01    0.167E+00
RMM:   6    -0.693664588374E+03    0.20614E-02   -0.35543E-02 24628   0.244E-01    0.146E+00
RMM:   7    -0.693654876369E+03    0.97120E-02   -0.23085E-02 24701   0.197E-01    0.107E+00
RMM:   8    -0.693653769682E+03    0.11067E-02   -0.16900E-02 24291   0.173E-01    0.735E-01
RMM:   9    -0.693652915038E+03    0.85464E-03   -0.59648E-03 23196   0.118E-01    0.337E-01
RMM:  10    -0.693652895337E+03    0.19701E-04   -0.23496E-03 23647   0.626E-02    0.221E-01
RMM:  11    -0.693652803431E+03    0.91906E-04   -0.82106E-04 22080   0.380E-02
   3 F= -.69365280E+03 E0= -.69324604E+03  d E =-.934997E+00  mag=    82.7729
       N       E                     dE             d eps       ncg     rms          rms(c)
DAV:   1    -0.690573474675E+03    0.30794E+01   -0.59204E+02 25392   0.281E+01    0.835E+00
RMM:   2    -0.692281067785E+03   -0.17076E+01   -0.15676E+01 24960   0.566E+00    0.876E+00
RMM:   3    -0.692690771911E+03   -0.40970E+00   -0.30895E+00 25091   0.269E+00    0.718E+00
RMM:   4    -0.692578828607E+03    0.11194E+00   -0.72547E-01 25911   0.141E+00    0.321E+00
RMM:   5    -0.692568768803E+03    0.10060E-01   -0.23034E-01 27128   0.640E-01    0.230E+00
RMM:   6    -0.692562047878E+03    0.67209E-02   -0.78251E-02 27311   0.345E-01    0.209E+00
RMM:   7    -0.692555370985E+03    0.66769E-02   -0.57533E-02 25392   0.319E-01    0.192E+00
RMM:   8    -0.692539013634E+03    0.16357E-01   -0.29144E-02 25217   0.250E-01    0.716E-01
RMM:   9    -0.692537640909E+03    0.13727E-02   -0.11234E-02 27144   0.150E-01    0.567E-01
RMM:  10    -0.692535139940E+03    0.25010E-02   -0.48520E-03 28615   0.917E-02    0.366E-01
RMM:  11    -0.692533529906E+03    0.16100E-02   -0.23002E-03 29743   0.540E-02    0.227E-01
RMM:  12    -0.692532131886E+03    0.13980E-02   -0.11975E-03 27660   0.403E-02    0.199E-01
RMM:  13    -0.692531104635E+03    0.10273E-02   -0.64327E-04 25709   0.309E-02    0.139E-01
RMM:  14    -0.692530923955E+03    0.18068E-03   -0.39947E-04 23830   0.238E-02    0.124E-01
RMM:  15    -0.692531108602E+03   -0.18465E-03   -0.28048E-04 21256   0.201E-02    0.109E-01
RMM:  16    -0.692531082703E+03    0.25899E-04   -0.19503E-04 18542   0.169E-02
   4 F= -.69253108E+03 E0= -.69211834E+03  d E =0.112172E+01  mag=    82.7567
       N       E                     dE             d eps       ncg     rms          rms(c)
DAV:   1    -0.692936271493E+03   -0.40516E+00   -0.97495E+01 26464   0.114E+01    0.334E+00
RMM:   2    -0.693192570371E+03   -0.25630E+00   -0.22601E+00 24960   0.212E+00    0.276E+00
RMM:   3    -0.693258503480E+03   -0.65933E-01   -0.38872E-01 24898   0.922E-01    0.245E+00
RMM:   4    -0.693244815123E+03    0.13688E-01   -0.98515E-02 25743   0.505E-01    0.123E+00
RMM:   5    -0.693243106579E+03    0.17085E-02   -0.32888E-02 26435   0.239E-01    0.848E-01
RMM:   6    -0.693244289983E+03   -0.11834E-02   -0.12908E-02 25001   0.152E-01    0.741E-01
RMM:   7    -0.693248696897E+03   -0.44069E-02   -0.10082E-02 24580   0.140E-01    0.664E-01
RMM:   8    -0.693250689325E+03   -0.19924E-02   -0.42058E-03 24151   0.953E-02    0.306E-01
RMM:   9    -0.693251986587E+03   -0.12973E-02   -0.16840E-03 26004   0.519E-02    0.188E-01
RMM:  10    -0.693252973457E+03   -0.98687E-03   -0.68439E-04 23835   0.308E-02    0.135E-01
RMM:  11    -0.693254194444E+03   -0.12210E-02   -0.29444E-04 20258   0.204E-02    0.828E-02
RMM:  12    -0.693255802615E+03   -0.16082E-02   -0.17815E-04 17893   0.158E-02    0.749E-02
RMM:  13    -0.693257491122E+03   -0.16885E-02   -0.10752E-04 15634   0.146E-02    0.599E-02
RMM:  14    -0.693258400683E+03   -0.90956E-03   -0.55145E-05 14356   0.108E-02    0.420E-02
RMM:  15    -0.693259012800E+03   -0.61212E-03   -0.29567E-05 13666   0.773E-03    0.327E-02
RMM:  16    -0.693259970274E+03   -0.95747E-03   -0.20008E-05 13644   0.645E-03    0.295E-02
RMM:  17    -0.693261054018E+03   -0.10837E-02   -0.14108E-05 13364   0.549E-03    0.249E-02
RMM:  18    -0.693262352291E+03   -0.12983E-02   -0.11434E-05 13250   0.524E-03    0.247E-02
RMM:  19    -0.693263383182E+03   -0.10309E-02   -0.80130E-06 12563   0.439E-03    0.206E-02
RMM:  20    -0.693264047695E+03   -0.66451E-03   -0.42625E-06 11338   0.340E-03    0.195E-02
RMM:  21    -0.693264682682E+03   -0.63499E-03   -0.25776E-06 10474   0.293E-03    0.186E-02
RMM:  22    -0.693265452736E+03   -0.77005E-03   -0.20833E-06 10256   0.276E-03    0.180E-02
RMM:  23    -0.693266383942E+03   -0.93121E-03   -0.20252E-06  9761   0.263E-03    0.171E-02
RMM:  24    -0.693267412908E+03   -0.10290E-02   -0.21385E-06  9705   0.255E-03    0.169E-02
RMM:  25    -0.693268364297E+03   -0.95139E-03   -0.16141E-06  8900   0.238E-03    0.161E-02
RMM:  26    -0.693269885448E+03   -0.15212E-02   -0.40079E-06 10112   0.266E-03    0.163E-02
RMM:  27    -0.693272168856E+03   -0.22834E-02   -0.10234E-05 11671   0.327E-03    0.149E-02
RMM:  28    -0.693274262877E+03   -0.20940E-02   -0.18254E-05 12232   0.376E-03    0.131E-02
RMM:  29    -0.693274953574E+03   -0.69070E-03   -0.10529E-05 11520   0.328E-03    0.118E-02
RMM:  30    -0.693275334165E+03   -0.38059E-03   -0.49195E-06 10445   0.296E-03    0.109E-02
RMM:  31    -0.693275767064E+03   -0.43290E-03   -0.36435E-06  9716   0.271E-03    0.955E-03
RMM:  32    -0.693276411569E+03   -0.64451E-03   -0.39199E-06 10187   0.280E-03    0.903E-03
RMM:  33    -0.693276824075E+03   -0.41251E-03   -0.16424E-06  8429   0.244E-03    0.787E-03
RMM:  34    -0.693277390043E+03   -0.56597E-03   -0.13080E-06  7694   0.227E-03    0.755E-03
RMM:  35    -0.693278323903E+03   -0.93386E-03   -0.25657E-06  8703   0.245E-03    0.693E-03
RMM:  36    -0.693279519580E+03   -0.11957E-02   -0.40309E-06  9478   0.260E-03    0.639E-03
RMM:  37    -0.693280426134E+03   -0.90655E-03   -0.31981E-06  9139   0.253E-03    0.565E-03
RMM:  38    -0.693281013637E+03   -0.58750E-03   -0.17770E-06  8127   0.234E-03    0.516E-03
RMM:  39    -0.693281845518E+03   -0.83188E-03   -0.26247E-06  8570   0.241E-03    0.456E-03
RMM:  40    -0.693282430063E+03   -0.58454E-03   -0.14067E-06  7757   0.229E-03    0.407E-03
RMM:  41    -0.693282920502E+03   -0.49044E-03   -0.10093E-06  7265   0.220E-03    0.352E-03
RMM:  42    -0.693283241452E+03   -0.32095E-03   -0.71885E-07  6840   0.215E-03    0.319E-03
RMM:  43    -0.693283458960E+03   -0.21751E-03   -0.27014E-07  6240   0.209E-03    0.285E-03
RMM:  44    -0.693283656261E+03   -0.19730E-03   -0.12440E-07  5991   0.207E-03    0.248E-03
RMM:  45    -0.693283803551E+03   -0.14729E-03   -0.99304E-08  5905   0.207E-03    0.230E-03
RMM:  46    -0.693283904828E+03   -0.10128E-03   -0.83314E-08  5885   0.205E-03    0.201E-03
RMM:  47    -0.693283986446E+03   -0.81617E-04   -0.50826E-08  5757   0.203E-03
   5 F= -.69328399E+03 E0= -.69287522E+03  d E =0.368817E+00  mag=    82.7124
       N       E                     dE             d eps       ncg     rms          rms(c)
DAV:   1    -0.693588896113E+03   -0.30499E+00   -0.57681E+01 26576   0.876E+00    0.262E+00
RMM:   2    -0.693733597545E+03   -0.14470E+00   -0.13677E+00 24960   0.165E+00    0.230E+00
RMM:   3    -0.693772483122E+03   -0.38886E-01   -0.23920E-01 24811   0.735E-01    0.197E+00
RMM:   4    -0.693763318459E+03    0.91647E-02   -0.61298E-02 25484   0.398E-01    0.870E-01
RMM:   5    -0.693762520988E+03    0.79747E-03   -0.20246E-02 26427   0.183E-01    0.638E-01
RMM:   6    -0.693761997330E+03    0.52366E-03   -0.78503E-03 24622   0.116E-01    0.565E-01
RMM:   7    -0.693761822074E+03    0.17526E-03   -0.59780E-03 24245   0.107E-01    0.536E-01
RMM:   8    -0.693760881511E+03    0.94056E-03   -0.24270E-03 24091   0.708E-02    0.246E-01
RMM:   9    -0.693760660271E+03    0.22124E-03   -0.10021E-03 24740   0.391E-02    0.134E-01
RMM:  10    -0.693760593015E+03    0.67256E-04   -0.38095E-04 21124   0.234E-02
   6 F= -.69376059E+03 E0= -.69335338E+03  d E =-.107790E+00  mag=    82.7127
       N       E                     dE             d eps       ncg     rms          rms(c)
DAV:   1    -0.693875660578E+03   -0.11500E+00   -0.91748E+00 27360   0.349E+00    0.105E+00
RMM:   2    -0.693898324706E+03   -0.22664E-01   -0.21836E-01 24811   0.664E-01    0.989E-01
RMM:   3    -0.693904232937E+03   -0.59082E-02   -0.39527E-02 24443   0.302E-01    0.809E-01
RMM:   4    -0.693902823783E+03    0.14092E-02   -0.10421E-02 24276   0.164E-01    0.350E-01
RMM:   5    -0.693902874571E+03   -0.50788E-04   -0.35190E-03 25701   0.745E-02    0.265E-01
RMM:   6    -0.693902926857E+03   -0.52285E-04   -0.13207E-03 23535   0.447E-02    0.252E-01
RMM:   7    -0.693902717791E+03    0.20907E-03   -0.85813E-04 22746   0.384E-02    0.241E-01
RMM:   8    -0.693902413849E+03    0.30394E-03   -0.41639E-04 20867   0.290E-02    0.922E-02
RMM:   9    -0.693902338814E+03    0.75035E-04   -0.15730E-04 16549   0.174E-02
   7 F= -.69390234E+03 E0= -.69349499E+03  d E =-.249535E+00  mag=    82.7126
       N       E                     dE             d eps       ncg     rms          rms(c)
DAV:   1    -0.693023963263E+03    0.87845E+00   -0.18433E+02 25632   0.154E+01    0.476E+00
RMM:   2    -0.693529355933E+03   -0.50539E+00   -0.44358E+00 24960   0.289E+00    0.415E+00
RMM:   3    -0.693652772007E+03   -0.12342E+00   -0.69509E-01 25079   0.114E+00    0.261E+00
RMM:   4    -0.693655257122E+03   -0.24851E-02   -0.14708E-01 25763   0.607E-01    0.258E+00
RMM:   5    -0.693632771207E+03    0.22486E-01   -0.52899E-02 25470   0.349E-01    0.138E+00
RMM:   6    -0.693629356842E+03    0.34144E-02   -0.29203E-02 25069   0.233E-01    0.107E+00
RMM:   7    -0.693629137267E+03    0.21957E-03   -0.23244E-02 25134   0.208E-01    0.937E-01
RMM:   8    -0.693627261567E+03    0.18757E-02   -0.90775E-03 24569   0.144E-01    0.425E-01
RMM:   9    -0.693626509665E+03    0.75190E-03   -0.30574E-03 27275   0.673E-02    0.219E-01
RMM:  10    -0.693625858580E+03    0.65108E-03   -0.10606E-03 25873   0.381E-02    0.168E-01
RMM:  11    -0.693625134518E+03    0.72406E-03   -0.53613E-04 23239   0.277E-02    0.125E-01
RMM:  12    -0.693624267885E+03    0.86663E-03   -0.41457E-04 22056   0.259E-02    0.111E-01
RMM:  13    -0.693624009571E+03    0.25831E-03   -0.20686E-04 18988   0.183E-02    0.614E-02
RMM:  14    -0.693624164964E+03   -0.15539E-03   -0.11196E-04 15528   0.127E-02    0.526E-02
RMM:  15    -0.693624461129E+03   -0.29617E-03   -0.62393E-05 14603   0.100E-02    0.384E-02
RMM:  16    -0.693624771406E+03   -0.31028E-03   -0.45221E-05 14535   0.883E-03    0.350E-02
RMM:  17    -0.693624963691E+03   -0.19228E-03   -0.31340E-05 14070   0.776E-03    0.334E-02
RMM:  18    -0.693625081547E+03   -0.11786E-03   -0.25148E-05 13795   0.752E-03    0.252E-02
RMM:  19    -0.693625188896E+03   -0.10735E-03   -0.15830E-05 13109   0.542E-03    0.208E-02
RMM:  20    -0.693625318749E+03   -0.12985E-03   -0.88021E-06 12714   0.434E-03    0.189E-02
RMM:  21    -0.693625448775E+03   -0.13003E-03   -0.52437E-06 11916   0.362E-03    0.175E-02
RMM:  22    -0.693625642450E+03   -0.19368E-03   -0.45133E-06 11894   0.349E-03    0.164E-02
RMM:  23    -0.693625843161E+03   -0.20071E-03   -0.30425E-06 10741   0.288E-03    0.152E-02
RMM:  24    -0.693626022052E+03   -0.17889E-03   -0.19513E-06  9954   0.263E-03    0.148E-02
RMM:  25    -0.693626315601E+03   -0.29355E-03   -0.23066E-06 10177   0.263E-03    0.145E-02
RMM:  26    -0.693626886636E+03   -0.57103E-03   -0.54946E-06 11855   0.316E-03    0.143E-02
RMM:  27    -0.693627475036E+03   -0.58840E-03   -0.93138E-06 12517   0.353E-03    0.134E-02
RMM:  28    -0.693627765332E+03   -0.29030E-03   -0.66691E-06 11718   0.317E-03    0.124E-02
RMM:  29    -0.693627978274E+03   -0.21294E-03   -0.48154E-06 11151   0.295E-03    0.118E-02
RMM:  30    -0.693628233081E+03   -0.25481E-03   -0.39309E-06 10675   0.282E-03    0.115E-02
RMM:  31    -0.693628452578E+03   -0.21950E-03   -0.21078E-06  9369   0.255E-03    0.102E-02
RMM:  32    -0.693628763133E+03   -0.31056E-03   -0.16555E-06  8625   0.241E-03    0.967E-03
RMM:  33    -0.693629109704E+03   -0.34657E-03   -0.16464E-06  8817   0.244E-03    0.937E-03
RMM:  34    -0.693629597650E+03   -0.48795E-03   -0.24255E-06  9581   0.259E-03    0.846E-03
RMM:  35    -0.693629982919E+03   -0.38527E-03   -0.20902E-06  9322   0.249E-03    0.801E-03
RMM:  36    -0.693630401632E+03   -0.41871E-03   -0.23266E-06  9178   0.254E-03    0.709E-03
RMM:  37    -0.693630782706E+03   -0.38107E-03   -0.20824E-06  9225   0.250E-03    0.626E-03
RMM:  38    -0.693631115515E+03   -0.33281E-03   -0.14386E-06  8709   0.236E-03    0.563E-03
RMM:  39    -0.693631281405E+03   -0.16589E-03   -0.84262E-07  7722   0.217E-03    0.500E-03
RMM:  40    -0.693631412384E+03   -0.13098E-03   -0.70952E-07  7393   0.215E-03    0.461E-03
RMM:  41    -0.693631522100E+03   -0.10972E-03   -0.61430E-07  7290   0.214E-03    0.432E-03
RMM:  42    -0.693631628220E+03   -0.10612E-03   -0.65462E-07  7224   0.212E-03    0.402E-03
RMM:  43    -0.693631758473E+03   -0.13025E-03   -0.83006E-07  7403   0.215E-03    0.359E-03
RMM:  44    -0.693631893684E+03   -0.13521E-03   -0.72806E-07  7276   0.215E-03    0.332E-03
RMM:  45    -0.693632017460E+03   -0.12378E-03   -0.51020E-07  6899   0.211E-03    0.305E-03
RMM:  46    -0.693632185918E+03   -0.16846E-03   -0.65429E-07  7080   0.213E-03    0.271E-03
RMM:  47    -0.693632399947E+03   -0.21403E-03   -0.10201E-06  7557   0.219E-03    0.252E-03
RMM:  48    -0.693632569851E+03   -0.16990E-03   -0.76449E-07  7244   0.215E-03    0.207E-03
RMM:  49    -0.693632683321E+03   -0.11347E-03   -0.45494E-07  6777   0.209E-03    0.186E-03
RMM:  50    -0.693632787898E+03   -0.10458E-03   -0.38775E-07  6643   0.208E-03    0.173E-03
RMM:  51    -0.693632894550E+03   -0.10665E-03   -0.46777E-07  6769   0.210E-03    0.143E-03
RMM:  52    -0.693632940686E+03   -0.46136E-04   -0.32802E-07  6510   0.207E-03
   8 F= -.69363294E+03 E0= -.69323446E+03  d E =0.269398E+00  mag=    82.6275
       N       E                     dE             d eps       ncg     rms          rms(c)
DAV:   1    -0.693644976008E+03   -0.12081E-01   -0.60810E+00 27312   0.280E+00    0.871E-01
RMM:   2    -0.693659423486E+03   -0.14447E-01   -0.13830E-01 24900   0.520E-01    0.722E-01
RMM:   3    -0.693664721424E+03   -0.52979E-02   -0.22966E-02 24073   0.214E-01    0.615E-01
RMM:   4    -0.693664118207E+03    0.60322E-03   -0.57692E-03 23546   0.123E-01    0.343E-01
RMM:   5    -0.693663799528E+03    0.31868E-03   -0.21393E-03 23295   0.661E-02    0.296E-01
RMM:   6    -0.693663472671E+03    0.32686E-03   -0.10470E-03 22541   0.427E-02    0.242E-01
RMM:   7    -0.693663160595E+03    0.31208E-03   -0.71486E-04 21797   0.367E-02    0.166E-01
RMM:   8    -0.693662960251E+03    0.20034E-03   -0.28380E-04 18638   0.244E-02    0.753E-02
RMM:   9    -0.693662903601E+03    0.56650E-04   -0.85076E-05 14398   0.133E-02
   9 F= -.69366290E+03 E0= -.69326335E+03  d E =0.239435E+00  mag=    82.6284
       N       E                     dE             d eps       ncg     rms          rms(c)
DAV:   1    -0.693719361209E+03   -0.56401E-01   -0.40500E+00 27120   0.228E+00    0.709E-01
RMM:   2    -0.693729295108E+03   -0.99339E-02   -0.92574E-02 24798   0.425E-01    0.608E-01
RMM:   3    -0.693732552979E+03   -0.32579E-02   -0.15488E-02 23874   0.175E-01    0.521E-01
RMM:   4    -0.693731906705E+03    0.64627E-03   -0.39326E-03 23335   0.101E-01    0.290E-01
RMM:   5    -0.693731468804E+03    0.43790E-03   -0.14593E-03 23125   0.536E-02    0.234E-01
RMM:   6    -0.693731051629E+03    0.41717E-03   -0.70019E-04 21831   0.343E-02    0.187E-01
RMM:   7    -0.693730729396E+03    0.32223E-03   -0.48846E-04 20780   0.311E-02    0.146E-01
RMM:   8    -0.693730512323E+03    0.21707E-03   -0.21178E-04 17432   0.217E-02    0.674E-02
RMM:   9    -0.693730461758E+03    0.50565E-04   -0.63520E-05 13980   0.117E-02
  10 F= -.69373046E+03 E0= -.69332975E+03  d E =0.171877E+00  mag=    82.6300
       N       E                     dE             d eps       ncg     rms          rms(c)
DAV:   1    -0.693907110123E+03   -0.17660E+00   -0.20769E+01 25632   0.516E+00    0.160E+00
RMM:   2    -0.693960709714E+03   -0.53600E-01   -0.47249E-01 24960   0.960E-01    0.139E+00
RMM:   3    -0.693975830090E+03   -0.15120E-01   -0.80378E-02 24718   0.396E-01    0.118E+00
RMM:   4    -0.693972600201E+03    0.32299E-02   -0.19497E-02 24629   0.227E-01    0.645E-01
RMM:   5    -0.693971027330E+03    0.15729E-02   -0.71473E-03 25005   0.118E-01    0.515E-01
RMM:   6    -0.693969445359E+03    0.15820E-02   -0.32378E-03 24295   0.735E-02    0.412E-01
RMM:   7    -0.693968179266E+03    0.12661E-02   -0.24721E-03 23773   0.683E-02    0.310E-01
RMM:   8    -0.693967375976E+03    0.80329E-03   -0.10357E-03 22426   0.468E-02    0.148E-01
RMM:   9    -0.693967233769E+03    0.14221E-03   -0.34854E-04 20014   0.235E-02    0.697E-02
RMM:  10    -0.693967176233E+03    0.57535E-04   -0.12513E-04 15827   0.150E-02
  11 F= -.69396718E+03 E0= -.69356340E+03  d E =-.648374E-01  mag=    82.6334
       N       E                     dE             d eps       ncg     rms          rms(c)
DAV:   1    -0.694000982727E+03   -0.33749E-01   -0.51903E+00 26640   0.257E+00    0.804E-01
RMM:   2    -0.694015061315E+03   -0.14079E-01   -0.11930E-01 24850   0.481E-01    0.715E-01
RMM:   3    -0.694018400770E+03   -0.33395E-02   -0.19909E-02 24082   0.197E-01    0.579E-01
RMM:   4    -0.694017463759E+03    0.93701E-03   -0.49431E-03 23820   0.113E-01    0.341E-01
RMM:   5    -0.694016685196E+03    0.77856E-03   -0.17909E-03 23827   0.593E-02    0.251E-01
RMM:   6    -0.694016034839E+03    0.65036E-03   -0.82354E-04 22495   0.364E-02    0.203E-01
RMM:   7    -0.694015584900E+03    0.44994E-03   -0.61895E-04 21522   0.345E-02    0.159E-01
RMM:   8    -0.694015321430E+03    0.26347E-03   -0.28575E-04 18788   0.251E-02    0.779E-02
RMM:   9    -0.694015312353E+03    0.90767E-05   -0.87511E-05 14579   0.133E-02
  12 F= -.69401531E+03 E0= -.69360965E+03  d E =-.112974E+00  mag=    82.6369
       N       E                     dE             d eps       ncg     rms          rms(c)
DAV:   1    -0.693479088025E+03    0.53623E+00   -0.61382E+01 25360   0.902E+00    0.328E+00
RMM:   2    -0.693677971175E+03   -0.19888E+00   -0.19816E+00 24960   0.195E+00    0.398E+00
RMM:   3    -0.693693127375E+03   -0.15156E-01   -0.36472E-01 25079   0.860E-01    0.283E+00
RMM:   4    -0.693676101387E+03    0.17026E-01   -0.80203E-02 25474   0.463E-01    0.136E+00
RMM:   5    -0.693679924161E+03   -0.38228E-02   -0.33721E-02 24973   0.247E-01    0.145E+00
RMM:   6    -0.693674864556E+03    0.50596E-02   -0.15675E-02 24770   0.181E-01    0.990E-01
RMM:   7    -0.693673183369E+03    0.16812E-02   -0.11569E-02 24287   0.153E-01    0.613E-01
RMM:   8    -0.693673341432E+03   -0.15806E-03   -0.43467E-03 23562   0.988E-02    0.333E-01
RMM:   9    -0.693673464437E+03   -0.12301E-03   -0.15017E-03 24006   0.535E-02    0.175E-01
RMM:  10    -0.693673702420E+03   -0.23798E-03   -0.68356E-04 22462   0.309E-02    0.115E-01
RMM:  11    -0.693674072795E+03   -0.37037E-03   -0.25390E-04 18111   0.190E-02    0.786E-02
RMM:  12    -0.693674444673E+03   -0.37188E-03   -0.14857E-04 16449   0.172E-02    0.841E-02
RMM:  13    -0.693674663113E+03   -0.21844E-03   -0.10338E-04 15433   0.157E-02    0.491E-02
RMM:  14    -0.693674824001E+03   -0.16089E-03   -0.37088E-05 14332   0.936E-03    0.335E-02
RMM:  15    -0.693674992731E+03   -0.16873E-03   -0.16792E-05 13409   0.630E-03    0.258E-02
RMM:  16    -0.693675152058E+03   -0.15933E-03   -0.10345E-05 12955   0.506E-03    0.240E-02
RMM:  17    -0.693675357647E+03   -0.20559E-03   -0.93314E-06 12957   0.455E-03    0.209E-02
RMM:  18    -0.693675451259E+03   -0.93612E-04   -0.85946E-06 12585   0.389E-03
  13 F= -.69367545E+03 E0= -.69328048E+03  d E =0.339861E+00  mag=    82.6276
       N       E                     dE             d eps       ncg     rms          rms(c)
DAV:   1    -0.694089448498E+03   -0.41409E+00   -0.30833E+01 27328   0.641E+00    0.234E+00
RMM:   2    -0.694177071036E+03   -0.87623E-01   -0.98588E-01 24960   0.141E+00    0.281E+00
RMM:   3    -0.694189536775E+03   -0.12466E-01   -0.17553E-01 24979   0.603E-01    0.191E+00
RMM:   4    -0.694184691023E+03    0.48458E-02   -0.44621E-02 25237   0.337E-01    0.956E-01
RMM:   5    -0.694186805361E+03   -0.21143E-02   -0.15121E-02 24663   0.172E-01    0.948E-01
RMM:   6    -0.694185945163E+03    0.86020E-03   -0.77543E-03 24491   0.121E-01    0.762E-01
RMM:   7    -0.694184683196E+03    0.12620E-02   -0.60382E-03 23877   0.108E-01    0.462E-01
RMM:   8    -0.694184307749E+03    0.37545E-03   -0.19802E-03 22978   0.669E-02    0.245E-01
RMM:   9    -0.694184054752E+03    0.25300E-03   -0.73206E-04 22061   0.371E-02    0.108E-01
RMM:  10    -0.694184031283E+03    0.23468E-04   -0.34411E-04 19102   0.218E-02
  14 F= -.69418403E+03 E0= -.69378161E+03  d E =-.168719E+00  mag=    82.6289
       N       E                     dE             d eps       ncg     rms          rms(c)
DAV:   1    -0.693976085780E+03    0.20797E+00   -0.20904E+01 26832   0.532E+00    0.162E+00
RMM:   2    -0.694030153938E+03   -0.54068E-01   -0.55960E-01 24960   0.105E+00    0.164E+00
RMM:   3    -0.694040529606E+03   -0.10376E-01   -0.91892E-02 24980   0.437E-01    0.114E+00
RMM:   4    -0.694039317830E+03    0.12118E-02   -0.22881E-02 25168   0.245E-01    0.876E-01
RMM:   5    -0.694037546431E+03    0.17714E-02   -0.79709E-03 24636   0.126E-01    0.482E-01
RMM:   6    -0.694037435302E+03    0.11113E-03   -0.31358E-03 24368   0.741E-02    0.418E-01
RMM:   7    -0.694037437833E+03   -0.25313E-05   -0.22608E-03 23379   0.697E-02    0.378E-01
RMM:   8    -0.694037240834E+03    0.19700E-03   -0.99166E-04 22195   0.476E-02    0.145E-01
RMM:   9    -0.694037305339E+03   -0.64505E-04   -0.42692E-04 20240   0.251E-02
  15 F= -.69403731E+03 E0= -.69363768E+03  d E =0.146726E+00  mag=    82.6251
       N       E                     dE             d eps       ncg     rms          rms(c)
DAV:   1    -0.694213636429E+03   -0.17640E+00   -0.10387E+01 26912   0.376E+00    0.116E+00
RMM:   2    -0.694240207962E+03   -0.26572E-01   -0.28421E-01 24960   0.752E-01    0.116E+00
RMM:   3    -0.694245413851E+03   -0.52059E-02   -0.45467E-02 24790   0.307E-01    0.774E-01
RMM:   4    -0.694245201178E+03    0.21267E-03   -0.11408E-02 24541   0.174E-01    0.627E-01
RMM:   5    -0.694244452441E+03    0.74874E-03   -0.38191E-03 23686   0.898E-02    0.337E-01
RMM:   6    -0.694244599513E+03   -0.14707E-03   -0.16256E-03 23382   0.526E-02    0.310E-01
RMM:   7    -0.694244744915E+03   -0.14540E-03   -0.11239E-03 22607   0.491E-02    0.259E-01
RMM:   8    -0.694244752430E+03   -0.75158E-05   -0.47070E-04 20645   0.326E-02
  16 F= -.69424475E+03 E0= -.69384312E+03  d E =-.607211E-01  mag=    82.6248
       N       E                     dE             d eps       ncg     rms          rms(c)
DAV:   1    -0.694203531097E+03    0.41214E-01   -0.51552E+00 26912   0.256E+00    0.886E-01
RMM:   2    -0.694217207482E+03   -0.13676E-01   -0.14580E-01 24960   0.493E-01    0.103E+00
RMM:   3    -0.694217704311E+03   -0.49683E-03   -0.25041E-02 24679   0.240E-01    0.665E-01
RMM:   4    -0.694216802791E+03    0.90152E-03   -0.65939E-03 23548   0.129E-01    0.340E-01
RMM:   5    -0.694216556601E+03    0.24619E-03   -0.18529E-03 22482   0.627E-02    0.221E-01
RMM:   6    -0.694216458191E+03    0.98410E-04   -0.69544E-04 21553   0.360E-02    0.182E-01
RMM:   7    -0.694216417176E+03    0.41015E-04   -0.53411E-04 20933   0.331E-02    0.184E-01
RMM:   8    -0.694216314303E+03    0.10287E-03   -0.26046E-04 18627   0.235E-02    0.102E-01
RMM:   9    -0.694216313500E+03    0.80280E-06   -0.93542E-05 14978   0.151E-02
  17 F= -.69421631E+03 E0= -.69381341E+03  d E =0.284389E-01  mag=    82.6234
       N       E                     dE             d eps       ncg     rms          rms(c)
DAV:   1    -0.694266216970E+03   -0.49903E-01   -0.19064E+00 27104   0.156E+00    0.541E-01
RMM:   2    -0.694271240025E+03   -0.50231E-02   -0.54886E-02 24960   0.298E-01    0.584E-01
RMM:   3    -0.694271467375E+03   -0.22735E-03   -0.89052E-03 24180   0.141E-01    0.386E-01
RMM:   4    -0.694271199818E+03    0.26756E-03   -0.22438E-03 22373   0.762E-02    0.203E-01
RMM:   5    -0.694271229688E+03   -0.29870E-04   -0.67862E-04 20794   0.390E-02    0.138E-01
RMM:   6    -0.694271288894E+03   -0.59206E-04   -0.26108E-04 18035   0.223E-02    0.117E-01
RMM:   7    -0.694271331057E+03   -0.42163E-04   -0.18921E-04 16905   0.205E-02    0.113E-01
RMM:   8    -0.694271337268E+03   -0.62110E-05   -0.97510E-05 14975   0.150E-02
  18 F= -.69427134E+03 E0= -.69386915E+03  d E =-.265848E-01  mag=    82.6228
       N       E                     dE             d eps       ncg     rms          rms(c)
DAV:   1    -0.694285938944E+03   -0.14608E-01   -0.24178E+00 25936   0.176E+00    0.559E-01
RMM:   2    -0.694292684945E+03   -0.67460E-02   -0.63974E-02 24960   0.355E-01    0.528E-01
RMM:   3    -0.694294287404E+03   -0.16025E-02   -0.10966E-02 24687   0.147E-01    0.453E-01
RMM:   4    -0.694293948054E+03    0.33935E-03   -0.25518E-03 22673   0.829E-02    0.232E-01
RMM:   5    -0.694293928628E+03    0.19426E-04   -0.95637E-04 21824   0.451E-02    0.211E-01
RMM:   6    -0.694293896051E+03    0.32577E-04   -0.46183E-04 20297   0.289E-02    0.154E-01
RMM:   7    -0.694293899060E+03   -0.30091E-05   -0.28375E-04 18861   0.239E-02    0.127E-01
RMM:   8    -0.694293878693E+03    0.20367E-04   -0.10948E-04 15580   0.169E-02
  19 F= -.69429388E+03 E0= -.69389193E+03  d E =-.225414E-01  mag=    82.6218
       N       E                     dE             d eps       ncg     rms          rms(c)
DAV:   1    -0.694296203375E+03   -0.23043E-02   -0.13571E-01 27968   0.419E-01    0.139E-01
RMM:   2    -0.694296614922E+03   -0.41155E-03   -0.36632E-03 23684   0.858E-02    0.141E-01
RMM:   3    -0.694296736027E+03   -0.12111E-03   -0.60614E-04 19888   0.357E-02    0.110E-01
RMM:   4    -0.694296732464E+03    0.35632E-05   -0.16612E-04 16433   0.215E-02    0.632E-02
RMM:   5    -0.694296762125E+03   -0.29661E-04   -0.60173E-05 13870   0.120E-02    0.503E-02
RMM:   6    -0.694296797880E+03   -0.35755E-04   -0.25230E-05 13031   0.765E-03    0.295E-02
RMM:   7    -0.694296838758E+03   -0.40878E-04   -0.18198E-05 12970   0.688E-03    0.337E-02
RMM:   8    -0.694296860619E+03   -0.21861E-04   -0.68905E-06 12080   0.495E-03
  20 F= -.69429686E+03 E0= -.69389485E+03  d E =-.255234E-01  mag=    82.6209
       N       E                     dE             d eps       ncg     rms          rms(c)
DAV:   1    -0.694313822289E+03   -0.16984E-01   -0.74218E-01 26976   0.986E-01    0.326E-01
RMM:   2    -0.694315858204E+03   -0.20359E-02   -0.18625E-02 24916   0.194E-01    0.288E-01
RMM:   3    -0.694316519042E+03   -0.66084E-03   -0.32778E-03 23388   0.812E-02    0.288E-01
RMM:   4    -0.694316355062E+03    0.16398E-03   -0.86745E-04 21068   0.481E-02    0.130E-01
RMM:   5    -0.694316392964E+03   -0.37902E-04   -0.34931E-04 19193   0.264E-02    0.144E-01
RMM:   6    -0.694316371550E+03    0.21414E-04   -0.18845E-04 17066   0.207E-02    0.107E-01
RMM:   7    -0.694316361257E+03    0.10293E-04   -0.11476E-04 15611   0.168E-02    0.566E-02
RMM:   8    -0.694316371817E+03   -0.10560E-04   -0.37362E-05 13772   0.101E-02
  21 F= -.69431637E+03 E0= -.69391485E+03  d E =-.195112E-01  mag=    82.6197
       N       E                     dE             d eps       ncg     rms          rms(c)
DAV:   1    -0.694316843560E+03   -0.48230E-03   -0.22997E-02 27168   0.174E-01    0.621E-02
RMM:   2    -0.694316934705E+03   -0.91145E-04   -0.62303E-04 19274   0.358E-02    0.695E-02
RMM:   3    -0.694316955157E+03   -0.20452E-04   -0.13011E-04 15834   0.176E-02    0.609E-02
RMM:   4    -0.694316958687E+03   -0.35306E-05   -0.35119E-05 13134   0.101E-02    0.244E-02
RMM:   5    -0.694316976314E+03   -0.17627E-04   -0.11425E-05 12503   0.516E-03    0.318E-02
RMM:   6    -0.694316988807E+03   -0.12493E-04   -0.75281E-06 12258   0.473E-03    0.233E-02
RMM:   7    -0.694317001084E+03   -0.12277E-04   -0.45540E-06 11896   0.372E-03    0.106E-02
RMM:   8    -0.694317012900E+03   -0.11817E-04   -0.15504E-06  9319   0.268E-03
  22 F= -.69431701E+03 E0= -.69391555E+03  d E =-.201523E-01  mag=    82.6185
       N       E                     dE             d eps       ncg     rms          rms(c)
DAV:   1    -0.694334303983E+03   -0.17303E-01   -0.33956E-01 27680   0.694E-01    0.196E-01
RMM:   2    -0.694335143680E+03   -0.83970E-03   -0.77975E-03 24814   0.128E-01    0.168E-01
RMM:   3    -0.694335383859E+03   -0.24018E-03   -0.12931E-03 22221   0.530E-02    0.131E-01
RMM:   4    -0.694335386242E+03   -0.23833E-05   -0.32696E-04 18847   0.299E-02    0.102E-01
RMM:   5    -0.694335369415E+03    0.16827E-04   -0.11562E-04 15722   0.172E-02    0.624E-02
RMM:   6    -0.694335366226E+03    0.31888E-05   -0.53742E-05 14844   0.113E-02    0.545E-02
RMM:   7    -0.694335355070E+03    0.11155E-04   -0.38481E-05 14167   0.101E-02    0.378E-02
RMM:   8    -0.694335352550E+03    0.25202E-05   -0.14517E-05 13046   0.667E-03
  23 F= -.69433535E+03 E0= -.69393406E+03  d E =-.183396E-01  mag=    82.6171
       N       E                     dE             d eps       ncg     rms          rms(c)
DAV:   1    -0.694337797806E+03   -0.24427E-02   -0.11721E-01 27952   0.408E-01    0.115E-01
RMM:   2    -0.694338126750E+03   -0.32894E-03   -0.27013E-03 24131   0.752E-02    0.997E-02
RMM:   3    -0.694338207186E+03   -0.80436E-04   -0.45190E-04 19294   0.309E-02    0.719E-02
RMM:   4    -0.694338207663E+03   -0.47684E-06   -0.11101E-04 15734   0.181E-02    0.656E-02
RMM:   5    -0.694338190474E+03    0.17189E-04   -0.40031E-05 14005   0.107E-02    0.359E-02
RMM:   6    -0.694338181027E+03    0.94464E-05   -0.19336E-05 13629   0.667E-03    0.352E-02
RMM:   7    -0.694338165309E+03    0.15718E-04   -0.14031E-05 13258   0.627E-03    0.225E-02
RMM:   8    -0.694338159172E+03    0.61374E-05   -0.52968E-06 12327   0.416E-03
  24 F= -.69433816E+03 E0= -.69393695E+03  d E =-.211463E-01  mag=    82.6157
       N       E                     dE             d eps       ncg     rms          rms(c)
DAV:   1    -0.694354533135E+03   -0.16368E-01   -0.18765E-01 27488   0.525E-01    0.205E-01
RMM:   2    -0.694355138712E+03   -0.60558E-03   -0.47421E-03 24805   0.101E-01    0.212E-01
RMM:   3    -0.694355187868E+03   -0.49156E-04   -0.91332E-04 21620   0.458E-02    0.117E-01
RMM:   4    -0.694355194548E+03   -0.66804E-05   -0.28813E-04 18333   0.280E-02    0.109E-01
RMM:   5    -0.694355146551E+03    0.47998E-04   -0.11182E-04 15708   0.174E-02    0.557E-02
RMM:   6    -0.694355123868E+03    0.22682E-04   -0.51364E-05 14482   0.113E-02    0.494E-02
RMM:   7    -0.694355105261E+03    0.18607E-04   -0.34959E-05 13672   0.969E-03    0.331E-02
RMM:   8    -0.694355090296E+03    0.14965E-04   -0.13582E-05 12965   0.626E-03
  25 F= -.69435509E+03 E0= -.69395375E+03  d E =-.169311E-01  mag=    82.6142
       N       E                     dE             d eps       ncg     rms          rms(c)
DAV:   1    -0.694375194019E+03   -0.20089E-01   -0.16885E+00 26224   0.158E+00    0.612E-01
RMM:   2    -0.694379540571E+03   -0.43466E-02   -0.42797E-02 24960   0.303E-01    0.642E-01
RMM:   3    -0.694379837153E+03   -0.29658E-03   -0.82376E-03 25238   0.138E-01    0.345E-01
RMM:   4    -0.694379997635E+03   -0.16048E-03   -0.25536E-03 23503   0.817E-02    0.312E-01
RMM:   5    -0.694379859002E+03    0.13863E-03   -0.93870E-04 22066   0.475E-02    0.159E-01
RMM:   6    -0.694379846320E+03    0.12682E-04   -0.43152E-04 20333   0.303E-02    0.138E-01
RMM:   7    -0.694379790420E+03    0.55901E-04   -0.29715E-04 18910   0.264E-02    0.935E-02
RMM:   8    -0.694379735355E+03    0.55064E-04   -0.11202E-04 15894   0.165E-02
  26 F= -.69437974E+03 E0= -.69397797E+03  d E =-.415762E-01  mag=    82.6125
       N       E                     dE             d eps       ncg     rms          rms(c)
DAV:   1    -0.694394714344E+03   -0.14924E-01   -0.11713E-01 28176   0.414E-01    0.177E-01
RMM:   2    -0.694395243201E+03   -0.52886E-03   -0.33903E-03 24452   0.802E-02    0.210E-01
RMM:   3    -0.694395213607E+03    0.29595E-04   -0.68006E-04 21112   0.399E-02    0.129E-01
RMM:   4    -0.694395169892E+03    0.43714E-04   -0.21559E-04 17188   0.231E-02    0.851E-02
RMM:   5    -0.694395106587E+03    0.63306E-04   -0.73046E-05 15057   0.138E-02    0.586E-02
RMM:   6    -0.694395041580E+03    0.65006E-04   -0.37893E-05 13931   0.100E-02    0.393E-02
RMM:   7    -0.694394966735E+03    0.74846E-04   -0.27188E-05 13450   0.819E-03    0.267E-02
RMM:   8    -0.694394923276E+03    0.43458E-04   -0.12237E-05 12766   0.596E-03
  27 F= -.69439492E+03 E0= -.69399308E+03  d E =-.151879E-01  mag=    82.6108
       N       E                     dE             d eps       ncg     rms          rms(c)
DAV:   1    -0.694417845105E+03   -0.22878E-01   -0.10555E+00 27008   0.124E+00    0.519E-01
RMM:   2    -0.694421062642E+03   -0.32175E-02   -0.30464E-02 24960   0.241E-01    0.635E-01
RMM:   3    -0.694420835650E+03    0.22699E-03   -0.62728E-03 24774   0.124E-01    0.332E-01
RMM:   4    -0.694420821656E+03    0.13994E-04   -0.19572E-03 22738   0.695E-02    0.229E-01
RMM:   5    -0.694420670206E+03    0.15145E-03   -0.68450E-04 21055   0.395E-02    0.138E-01
RMM:   6    -0.694420566455E+03    0.10375E-03   -0.29524E-04 18867   0.248E-02    0.108E-01
RMM:   7    -0.694420448960E+03    0.11749E-03   -0.20995E-04 17478   0.225E-02    0.783E-02
RMM:   8    -0.694420341886E+03    0.10707E-03   -0.87698E-05 15404   0.145E-02    0.511E-02
RMM:   9    -0.694420300721E+03    0.41164E-04   -0.28475E-05 14213   0.875E-03
  28 F= -.69442030E+03 E0= -.69401802E+03  d E =-.405654E-01  mag=    82.6088
       N       E                     dE             d eps       ncg     rms          rms(c)
DAV:   1    -0.694390931342E+03    0.29411E-01   -0.42269E+00 26160   0.248E+00    0.104E+00
RMM:   2    -0.694403104377E+03   -0.12173E-01   -0.12127E-01 24960   0.481E-01    0.126E+00
RMM:   3    -0.694401699672E+03    0.14047E-02   -0.24949E-02 25146   0.246E-01    0.654E-01
RMM:   4    -0.694401797534E+03   -0.97862E-04   -0.77616E-03 25067   0.138E-01    0.462E-01
RMM:   5    -0.694401460167E+03    0.33737E-03   -0.27337E-03 23304   0.780E-02    0.276E-01
RMM:   6    -0.694401289119E+03    0.17105E-03   -0.11338E-03 22615   0.480E-02    0.211E-01
RMM:   7    -0.694401094366E+03    0.19475E-03   -0.79942E-04 21702   0.423E-02    0.153E-01
RMM:   8    -0.694400938261E+03    0.15610E-03   -0.34386E-04 19878   0.269E-02    0.988E-02
RMM:   9    -0.694400851429E+03    0.86833E-04   -0.11681E-04 16044   0.153E-02
  29 F= -.69440085E+03 E0= -.69399767E+03  d E =-.211161E-01  mag=    82.6063
       N       E                     dE             d eps       ncg     rms          rms(c)
DAV:   1    -0.694423191898E+03   -0.22254E-01   -0.20580E+00 27568   0.174E+00    0.711E-01
RMM:   2    -0.694426212337E+03   -0.30204E-02   -0.57790E-02 24960   0.331E-01    0.854E-01
RMM:   3    -0.694426735340E+03   -0.52300E-03   -0.11504E-02 25117   0.165E-01    0.432E-01
RMM:   4    -0.694427070930E+03   -0.33559E-03   -0.35465E-03 23719   0.938E-02    0.328E-01
RMM:   5    -0.694427125870E+03   -0.54941E-04   -0.11853E-03 22199   0.535E-02    0.206E-01
RMM:   6    -0.694427288597E+03   -0.16273E-03   -0.52560E-04 20917   0.342E-02    0.161E-01
RMM:   7    -0.694427398627E+03   -0.11003E-03   -0.35488E-04 19559   0.287E-02    0.114E-01
RMM:   8    -0.694427460779E+03   -0.62152E-04   -0.15156E-04 16356   0.184E-02
  30 F= -.69442746E+03 E0= -.69402487E+03  d E =-.477254E-01  mag=    82.6044
       N       E                     dE             d eps       ncg     rms          rms(c)
DAV:   1    -0.694452390832E+03   -0.24992E-01   -0.62248E-01 27712   0.940E-01    0.283E-01
RMM:   2    -0.694453979131E+03   -0.15883E-02   -0.12858E-02 24960   0.164E-01    0.263E-01
RMM:   3    -0.694454332314E+03   -0.35318E-03   -0.24977E-03 23628   0.779E-02    0.249E-01
RMM:   4    -0.694454179985E+03    0.15233E-03   -0.73005E-04 20972   0.444E-02    0.105E-01
RMM:   5    -0.694454145793E+03    0.34193E-04   -0.22991E-04 17774   0.225E-02    0.869E-02
RMM:   6    -0.694454074948E+03    0.70845E-04   -0.10798E-04 15491   0.151E-02    0.578E-02
RMM:   7    -0.694454024304E+03    0.50644E-04   -0.61124E-05 14527   0.127E-02    0.480E-02
RMM:   8    -0.694454002362E+03    0.21942E-04   -0.24181E-05 13119   0.817E-03
  31 F= -.69445400E+03 E0= -.69405118E+03  d E =-.265416E-01  mag=    82.6023
       N       E                     dE             d eps       ncg     rms          rms(c)
DAV:   1    -0.694460595626E+03   -0.65713E-02   -0.36422E-01 27632   0.719E-01    0.208E-01
RMM:   2    -0.694461560183E+03   -0.96456E-03   -0.75444E-03 24931   0.124E-01    0.181E-01
RMM:   3    -0.694461766780E+03   -0.20660E-03   -0.14064E-03 22616   0.571E-02    0.177E-01
RMM:   4    -0.694461689201E+03    0.77579E-04   -0.41182E-04 19490   0.328E-02    0.819E-02
RMM:   5    -0.694461654259E+03    0.34942E-04   -0.13351E-04 16253   0.176E-02    0.737E-02
RMM:   6    -0.694461588091E+03    0.66168E-04   -0.67828E-05 14786   0.131E-02    0.535E-02
RMM:   7    -0.694461520151E+03    0.67940E-04   -0.42363E-05 14078   0.104E-02    0.385E-02
RMM:   8    -0.694461491004E+03    0.29148E-04   -0.17180E-05 13263   0.655E-03
  32 F= -.69446149E+03 E0= -.69405852E+03  d E =-.340302E-01  mag=    82.6002
       N       E                     dE             d eps       ncg     rms          rms(c)
DAV:   1    -0.694485401472E+03   -0.23881E-01   -0.32273E-01 27488   0.655E-01    0.194E-01
RMM:   2    -0.694485975240E+03   -0.57377E-03   -0.75232E-03 24578   0.115E-01    0.175E-01
RMM:   3    -0.694486122913E+03   -0.14767E-03   -0.11490E-03 21623   0.482E-02    0.100E-01
RMM:   4    -0.694486149056E+03   -0.26143E-04   -0.27338E-04 18363   0.256E-02    0.105E-01
RMM:   5    -0.694486129646E+03    0.19410E-04   -0.96710E-05 14990   0.164E-02    0.531E-02
RMM:   6    -0.694486122182E+03    0.74646E-05   -0.51699E-05 14110   0.104E-02    0.460E-02
RMM:   7    -0.694486108584E+03    0.13597E-04   -0.34691E-05 13634   0.927E-03    0.455E-02
RMM:   8    -0.694486091940E+03    0.16645E-04   -0.15503E-05 12776   0.687E-03
  33 F= -.69448609E+03 E0= -.69408342E+03  d E =-.246009E-01  mag=    82.5982
       N       E                     dE             d eps       ncg     rms          rms(c)
DAV:   1    -0.694498066653E+03   -0.11958E-01   -0.13456E+00 26256   0.134E+00    0.395E-01
RMM:   2    -0.694500816662E+03   -0.27500E-02   -0.31351E-02 24960   0.236E-01    0.352E-01
RMM:   3    -0.694501379599E+03   -0.56294E-03   -0.47716E-03 24006   0.978E-02    0.204E-01
RMM:   4    -0.694501479805E+03   -0.10021E-03   -0.10913E-03 22605   0.513E-02    0.207E-01
RMM:   5    -0.694501422876E+03    0.56930E-04   -0.38956E-04 20018   0.312E-02    0.104E-01
RMM:   6    -0.694501443090E+03   -0.20214E-04   -0.21445E-04 17584   0.198E-02    0.874E-02
RMM:   7    -0.694501461650E+03   -0.18560E-04   -0.14678E-04 16180   0.182E-02    0.943E-02
RMM:   8    -0.694501431267E+03    0.30383E-04   -0.58632E-05 14377   0.129E-02
  34 F= -.69450143E+03 E0= -.69409938E+03  d E =-.399403E-01  mag=    82.5961
       N       E                     dE             d eps       ncg     rms          rms(c)
DAV:   1    -0.694517419438E+03   -0.15958E-01   -0.44328E-01 27664   0.772E-01    0.265E-01
RMM:   2    -0.694518453867E+03   -0.10344E-02   -0.11848E-02 24846   0.151E-01    0.253E-01
RMM:   3    -0.694518639277E+03   -0.18541E-03   -0.19487E-03 22513   0.613E-02    0.156E-01
RMM:   4    -0.694518664863E+03   -0.25586E-04   -0.49936E-04 20182   0.357E-02    0.138E-01
RMM:   5    -0.694518643265E+03    0.21598E-04   -0.20444E-04 17290   0.233E-02    0.825E-02
RMM:   6    -0.694518661768E+03   -0.18504E-04   -0.95051E-05 14768   0.139E-02    0.516E-02
RMM:   7    -0.694518711505E+03   -0.49737E-04   -0.66765E-05 14212   0.127E-02    0.624E-02
RMM:   8    -0.694518722540E+03   -0.11034E-04   -0.30839E-05 13099   0.959E-03
  35 F= -.69451872E+03 E0= -.69411706E+03  d E =-.172913E-01  mag=    82.5944
       N       E                     dE             d eps       ncg     rms          rms(c)
DAV:   1    -0.694520392839E+03   -0.16813E-02   -0.67326E-02 28112   0.301E-01    0.105E-01
RMM:   2    -0.694520576257E+03   -0.18342E-03   -0.18379E-03 22144   0.596E-02    0.105E-01
RMM:   3    -0.694520611235E+03   -0.34978E-04   -0.31684E-04 17998   0.254E-02    0.753E-02
RMM:   4    -0.694520616204E+03   -0.49695E-05   -0.92454E-05 14867   0.162E-02    0.522E-02
RMM:   5    -0.694520637129E+03   -0.20925E-04   -0.35986E-05 13237   0.983E-03    0.362E-02
RMM:   6    -0.694520664894E+03   -0.27765E-04   -0.15497E-05 12627   0.605E-03    0.270E-02
RMM:   7    -0.694520698879E+03   -0.33985E-04   -0.12508E-05 12393   0.596E-03    0.268E-02
RMM:   8    -0.694520725974E+03   -0.27095E-04   -0.54205E-06 11535   0.427E-03
  36 F= -.69452073E+03 E0= -.69411924E+03  d E =-.192947E-01  mag=    82.5929
       N       E                     dE             d eps       ncg     rms          rms(c)
DAV:   1    -0.694531604199E+03   -0.10905E-01   -0.16605E-01 27312   0.459E-01    0.163E-01
RMM:   2    -0.694532143337E+03   -0.53914E-03   -0.48503E-03 23707   0.852E-02    0.198E-01
RMM:   3    -0.694532082940E+03    0.60397E-04   -0.71844E-04 20328   0.382E-02    0.104E-01
RMM:   4    -0.694532063752E+03    0.19187E-04   -0.18943E-04 16375   0.221E-02    0.737E-02
RMM:   5    -0.694532047848E+03    0.15904E-04   -0.70718E-05 13870   0.136E-02    0.461E-02
RMM:   6    -0.694532052543E+03   -0.46948E-05   -0.25705E-05 12938   0.738E-03    0.278E-02
RMM:   7    -0.694532079356E+03   -0.26813E-04   -0.19246E-05 12972   0.696E-03    0.389E-02
RMM:   8    -0.694532091824E+03   -0.12469E-04   -0.10776E-05 12265   0.587E-03
  37 F= -.69453209E+03 E0= -.69413047E+03  d E =-.113659E-01  mag=    82.5915
       N       E                     dE             d eps       ncg     rms          rms(c)
DAV:   1    -0.694534587529E+03   -0.25082E-02   -0.18267E-01 27536   0.482E-01    0.171E-01
RMM:   2    -0.694535177168E+03   -0.58964E-03   -0.53671E-03 23832   0.898E-02    0.213E-01
RMM:   3    -0.694535114066E+03    0.63103E-04   -0.82723E-04 20715   0.414E-02    0.116E-01
RMM:   4    -0.694535088250E+03    0.25815E-04   -0.21303E-04 16895   0.236E-02    0.748E-02
RMM:   5    -0.694535070563E+03    0.17688E-04   -0.76946E-05 14162   0.140E-02    0.496E-02
RMM:   6    -0.694535071806E+03   -0.12433E-05   -0.28377E-05 13192   0.780E-03    0.328E-02
RMM:   7    -0.694535092515E+03   -0.20709E-04   -0.21279E-05 13125   0.735E-03    0.438E-02
RMM:   8    -0.694535104553E+03   -0.12038E-04   -0.11377E-05 12522   0.603E-03
  38 F= -.69453510E+03 E0= -.69413333E+03  d E =-.143786E-01  mag=    82.5903
       N       E                     dE             d eps       ncg     rms          rms(c)
DAV:   1    -0.694535354850E+03   -0.26233E-03   -0.99746E-03 28112   0.113E-01    0.432E-02
RMM:   2    -0.694535397517E+03   -0.42667E-04   -0.31326E-04 16736   0.221E-02    0.623E-02
RMM:   3    -0.694535407236E+03   -0.97193E-05   -0.56097E-05 13661   0.123E-02    0.334E-02
RMM:   4    -0.694535418911E+03   -0.11675E-04   -0.14224E-05 12138   0.632E-03    0.183E-02
RMM:   5    -0.694535436719E+03   -0.17808E-04   -0.41226E-06 10643   0.357E-03    0.124E-02
RMM:   6    -0.694535456582E+03   -0.19863E-04   -0.90719E-07  7156   0.230E-03    0.908E-03
RMM:   7    -0.694535480927E+03   -0.24345E-04   -0.10908E-06  8074   0.246E-03    0.116E-02
RMM:   8    -0.694535500353E+03   -0.19426E-04   -0.30160E-07  6446   0.222E-03
  39 F= -.69453550E+03 E0= -.69413378E+03  d E =-.147744E-01  mag=    82.5891
       N       E                     dE             d eps       ncg     rms          rms(c)
DAV:   1    -0.694541554070E+03   -0.60731E-02   -0.12318E-01 27184   0.402E-01    0.138E-01
RMM:   2    -0.694541939826E+03   -0.38576E-03   -0.32058E-03 23749   0.753E-02    0.140E-01
RMM:   3    -0.694541973556E+03   -0.33731E-04   -0.55049E-04 19587   0.350E-02    0.117E-01
RMM:   4    -0.694541934802E+03    0.38754E-04   -0.14677E-04 15780   0.206E-02    0.512E-02
RMM:   5    -0.694541921643E+03    0.13160E-04   -0.48315E-05 13308   0.113E-02    0.457E-02
RMM:   6    -0.694541918696E+03    0.29467E-05   -0.24586E-05 12941   0.722E-03    0.324E-02
RMM:   7    -0.694541922804E+03   -0.41081E-05   -0.15757E-05 12717   0.671E-03    0.325E-02
RMM:   8    -0.694541922417E+03    0.38743E-06   -0.71335E-06 11879   0.491E-03
  40 F= -.69454192E+03 E0= -.69414014E+03  d E =-.642206E-02  mag=    82.5876
       N       E                     dE             d eps       ncg     rms          rms(c)
DAV:   1    -0.694542576082E+03   -0.65328E-03   -0.37549E-02 27552   0.222E-01    0.762E-02
RMM:   2    -0.694542686706E+03   -0.11062E-03   -0.98554E-04 20756   0.416E-02    0.817E-02
RMM:   3    -0.694542687490E+03   -0.78324E-06   -0.17149E-04 15974   0.199E-02    0.704E-02
RMM:   4    -0.694542668146E+03    0.19344E-04   -0.49627E-05 13607   0.124E-02    0.299E-02
RMM:   5    -0.694542656383E+03    0.11764E-04   -0.13980E-05 12348   0.607E-03    0.260E-02
RMM:   6    -0.694542649769E+03    0.66133E-05   -0.74975E-06 11844   0.443E-03    0.208E-02
RMM:   7    -0.694542646873E+03    0.28964E-05   -0.53867E-06 11749   0.423E-03    0.192E-02
RMM:   8    -0.694542644733E+03    0.21402E-05   -0.21368E-06 10319   0.308E-03
  41 F= -.69454264E+03 E0= -.69414083E+03  d E =-.714438E-02  mag=    82.5861
       N       E                     dE             d eps       ncg     rms          rms(c)
DAV:   1    -0.694547216945E+03   -0.45701E-02   -0.95701E-02 27296   0.362E-01    0.163E-01
RMM:   2    -0.694547330502E+03   -0.11356E-03   -0.25404E-03 24115   0.710E-02    0.158E-01
RMM:   3    -0.694547401397E+03   -0.70894E-04   -0.46808E-04 19567   0.330E-02    0.794E-02
RMM:   4    -0.694547408341E+03   -0.69449E-05   -0.13772E-04 15762   0.199E-02    0.634E-02
RMM:   5    -0.694547409722E+03   -0.13802E-05   -0.48767E-05 13767   0.121E-02    0.347E-02
RMM:   6    -0.694547410687E+03   -0.96485E-06   -0.19788E-05 13210   0.698E-03    0.289E-02
RMM:   7    -0.694547416868E+03   -0.61812E-05   -0.12985E-05 12882   0.602E-03    0.263E-02
RMM:   8    -0.694547418093E+03   -0.12256E-05   -0.48994E-06 11889   0.414E-03
  42 F= -.69454742E+03 E0= -.69414565E+03  d E =-.477336E-02  mag=    82.5845
       N       E                     dE             d eps       ncg     rms          rms(c)
DAV:   1    -0.694548098627E+03   -0.68176E-03   -0.32404E-02 27744   0.211E-01    0.958E-02
RMM:   2    -0.694548088447E+03    0.10180E-04   -0.86931E-04 21838   0.415E-02    0.935E-02
RMM:   3    -0.694548123654E+03   -0.35207E-04   -0.16295E-04 16068   0.198E-02    0.526E-02
RMM:   4    -0.694548125825E+03   -0.21709E-05   -0.51633E-05 14092   0.126E-02    0.389E-02
RMM:   5    -0.694548131221E+03   -0.53961E-05   -0.15829E-05 12432   0.684E-03    0.219E-02
RMM:   6    -0.694548136689E+03   -0.54678E-05   -0.63442E-06 12049   0.419E-03    0.221E-02
RMM:   7    -0.694548141969E+03   -0.52806E-05   -0.40555E-06 11854   0.357E-03    0.162E-02
RMM:   8    -0.694548146923E+03   -0.49537E-05   -0.15524E-06 10060   0.276E-03
  43 F= -.69454815E+03 E0= -.69414641E+03  d E =-.550219E-02  mag=    82.5828
       N       E                     dE             d eps       ncg     rms          rms(c)
DAV:   1    -0.694553124031E+03   -0.49821E-02   -0.95367E-02 27456   0.361E-01    0.161E-01
RMM:   2    -0.694553222744E+03   -0.98713E-04   -0.26515E-03 24116   0.716E-02    0.161E-01
RMM:   3    -0.694553315992E+03   -0.93248E-04   -0.50324E-04 19671   0.347E-02    0.921E-02
RMM:   4    -0.694553331186E+03   -0.15195E-04   -0.15575E-04 16099   0.213E-02    0.681E-02
RMM:   5    -0.694553342548E+03   -0.11362E-04   -0.49914E-05 13861   0.120E-02    0.337E-02
RMM:   6    -0.694553360497E+03   -0.17948E-04   -0.20350E-05 13146   0.726E-03    0.316E-02
RMM:   7    -0.694553379178E+03   -0.18681E-04   -0.14218E-05 12678   0.637E-03    0.214E-02
RMM:   8    -0.694553396999E+03   -0.17821E-04   -0.57971E-06 12050   0.431E-03
  44 F= -.69455340E+03 E0= -.69415167E+03  d E =-.525008E-02  mag=    82.5813
       N       E                     dE             d eps       ncg     rms          rms(c)
DAV:   1    -0.694554453529E+03   -0.10744E-02   -0.65607E-02 27792   0.299E-01    0.134E-01
RMM:   2    -0.694554508173E+03   -0.54643E-04   -0.18345E-03 23659   0.595E-02    0.135E-01
RMM:   3    -0.694554583501E+03   -0.75328E-04   -0.34771E-04 18404   0.288E-02    0.782E-02
RMM:   4    -0.694554599785E+03   -0.16284E-04   -0.10894E-04 15417   0.181E-02    0.591E-02
RMM:   5    -0.694554615698E+03   -0.15913E-04   -0.33350E-05 13421   0.978E-03    0.280E-02
RMM:   6    -0.694554639131E+03   -0.23433E-04   -0.13049E-05 12868   0.578E-03    0.291E-02
RMM:   7    -0.694554663278E+03   -0.24147E-04   -0.88596E-06 12699   0.508E-03    0.202E-02
RMM:   8    -0.694554684768E+03   -0.21490E-04   -0.38154E-06 11931   0.360E-03
  45 F= -.69455468E+03 E0= -.69415300E+03  d E =-.653785E-02  mag=    82.5798
       N       E                     dE             d eps       ncg     rms          rms(c)
DAV:   1    -0.694558776082E+03   -0.41128E-02   -0.85879E-02 27264   0.347E-01    0.159E-01
RMM:   2    -0.694558984340E+03   -0.20826E-03   -0.21684E-03 24339   0.684E-02    0.141E-01
RMM:   3    -0.694559063348E+03   -0.79008E-04   -0.43334E-04 19393   0.325E-02    0.974E-02
RMM:   4    -0.694559048320E+03    0.15028E-04   -0.14096E-04 15952   0.209E-02    0.599E-02
RMM:   5    -0.694559054075E+03   -0.57546E-05   -0.46233E-05 13962   0.116E-02    0.366E-02
RMM:   6    -0.694559066240E+03   -0.12165E-04   -0.19714E-05 13316   0.732E-03    0.277E-02
RMM:   7    -0.694559081026E+03   -0.14787E-04   -0.13910E-05 12677   0.645E-03    0.257E-02
RMM:   8    -0.694559090130E+03   -0.91037E-05   -0.58910E-06 11909   0.456E-03
  46 F= -.69455909E+03 E0= -.69415741E+03  d E =-.440536E-02  mag=    82.5782
       N       E                     dE             d eps       ncg     rms          rms(c)
DAV:   1    -0.694559859616E+03   -0.77859E-03   -0.49689E-02 27664   0.264E-01    0.121E-01
RMM:   2    -0.694559951059E+03   -0.91443E-04   -0.12552E-03 23403   0.520E-02    0.105E-01
RMM:   3    -0.694560001345E+03   -0.50287E-04   -0.24480E-04 17254   0.242E-02    0.719E-02
RMM:   4    -0.694559994048E+03    0.72978E-05   -0.81832E-05 15041   0.163E-02    0.473E-02
RMM:   5    -0.694559998034E+03   -0.39861E-05   -0.25379E-05 13341   0.863E-03    0.281E-02
RMM:   6    -0.694560008073E+03   -0.10040E-04   -0.10565E-05 12640   0.554E-03    0.231E-02
RMM:   7    -0.694560018910E+03   -0.10837E-04   -0.75247E-06 12344   0.495E-03    0.205E-02
RMM:   8    -0.694560026320E+03   -0.74096E-05   -0.31115E-06 11284   0.352E-03
  47 F= -.69456003E+03 E0= -.69415836E+03  d E =-.534155E-02  mag=    82.5765
       N       E                     dE             d eps       ncg     rms          rms(c)
DAV:   1    -0.694563391856E+03   -0.33729E-02   -0.99296E-02 26672   0.372E-01    0.164E-01
RMM:   2    -0.694563787105E+03   -0.39525E-03   -0.29530E-03 24468   0.739E-02    0.179E-01
RMM:   3    -0.694563771921E+03    0.15184E-04   -0.53304E-04 19889   0.346E-02    0.115E-01
RMM:   4    -0.694563724851E+03    0.47070E-04   -0.15671E-04 16172   0.215E-02    0.621E-02
RMM:   5    -0.694563690313E+03    0.34538E-04   -0.57631E-05 14239   0.124E-02    0.479E-02
RMM:   6    -0.694563671324E+03    0.18989E-04   -0.23685E-05 13594   0.767E-03    0.349E-02
RMM:   7    -0.694563664702E+03    0.66226E-05   -0.15396E-05 13107   0.662E-03    0.347E-02
RMM:   8    -0.694563662563E+03    0.21392E-05   -0.69444E-06 12285   0.484E-03
  48 F= -.69456366E+03 E0= -.69416205E+03  d E =-.363624E-02  mag=    82.5747
       N       E                     dE             d eps       ncg     rms          rms(c)
DAV:   1    -0.694563720687E+03   -0.55986E-04   -0.27815E-03 27936   0.629E-02    0.286E-02
RMM:   2    -0.694563747525E+03   -0.26838E-04   -0.87041E-05 15039   0.129E-02    0.361E-02
RMM:   3    -0.694563741527E+03    0.59977E-05   -0.17769E-05 13320   0.729E-03    0.236E-02
RMM:   4    -0.694563740401E+03    0.11269E-05   -0.46896E-06 11357   0.408E-03    0.133E-02
RMM:   5    -0.694563742812E+03   -0.24112E-05   -0.88604E-07  7358   0.240E-03    0.109E-02
RMM:   6    -0.694563748823E+03   -0.60117E-05   -0.17841E-07  5851   0.213E-03    0.926E-03
RMM:   7    -0.694563759997E+03   -0.11174E-04   -0.14145E-07  5635   0.211E-03    0.829E-03
RMM:   8    -0.694563772171E+03   -0.12173E-04   -0.26675E-07  5871   0.215E-03
  49 F= -.69456377E+03 E0= -.69416218E+03  d E =-.374585E-02  mag=    82.5728
       N       E                     dE             d eps       ncg     rms          rms(c)
DAV:   1    -0.694567292788E+03   -0.35328E-02   -0.61104E-02 26752   0.298E-01    0.108E-01
RMM:   2    -0.694567539185E+03   -0.24640E-03   -0.13569E-03 23556   0.552E-02    0.922E-02
RMM:   3    -0.694567551693E+03   -0.12508E-04   -0.25273E-04 17421   0.243E-02    0.744E-02
RMM:   4    -0.694567533990E+03    0.17703E-04   -0.76624E-05 14876   0.160E-02    0.470E-02
RMM:   5    -0.694567515776E+03    0.18214E-04   -0.24544E-05 13508   0.841E-03    0.328E-02
RMM:   6    -0.694567505997E+03    0.97798E-05   -0.12015E-05 12942   0.558E-03    0.253E-02
RMM:   7    -0.694567507456E+03   -0.14594E-05   -0.74591E-06 12545   0.488E-03    0.199E-02
RMM:   8    -0.694567515749E+03   -0.82934E-05   -0.29652E-06 11378   0.344E-03
  50 F= -.69456752E+03 E0= -.69416592E+03  d E =-.374358E-02  mag=    82.5711
       N       E                     dE             d eps       ncg     rms          rms(c)
DAV:   1    -0.694568485865E+03   -0.97841E-03   -0.99734E-02 26064   0.380E-01    0.139E-01
RMM:   2    -0.694568871980E+03   -0.38611E-03   -0.22230E-03 24480   0.707E-02    0.117E-01
RMM:   3    -0.694568900242E+03   -0.28263E-04   -0.41340E-04 19372   0.310E-02    0.899E-02
RMM:   4    -0.694568876712E+03    0.23531E-04   -0.12230E-04 15610   0.198E-02    0.586E-02
RMM:   5    -0.694568851465E+03    0.25246E-04   -0.41908E-05 14231   0.111E-02    0.422E-02
RMM:   6    -0.694568837084E+03    0.14381E-04   -0.19965E-05 13771   0.703E-03    0.330E-02
RMM:   7    -0.694568833851E+03    0.32326E-05   -0.12217E-05 13132   0.599E-03    0.252E-02
RMM:   8    -0.694568840974E+03   -0.71228E-05   -0.49591E-06 12142   0.414E-03
  51 F= -.69456884E+03 E0= -.69416724E+03  d E =-.506880E-02  mag=    82.5694
       N       E                     dE             d eps       ncg     rms          rms(c)
DAV:   1    -0.694571149040E+03   -0.23152E-02   -0.20750E-02 27312   0.171E-01    0.720E-02
RMM:   2    -0.694571261389E+03   -0.11235E-03   -0.45676E-04 19711   0.328E-02    0.577E-02
RMM:   3    -0.694571270873E+03   -0.94837E-05   -0.98242E-05 15342   0.165E-02    0.532E-02
RMM:   4    -0.694571266067E+03    0.48056E-05   -0.34203E-05 13812   0.108E-02    0.280E-02
RMM:   5    -0.694571266210E+03   -0.14249E-06   -0.96964E-06 12311   0.519E-03    0.196E-02
RMM:   6    -0.694571267196E+03   -0.98627E-06   -0.48933E-06 11570   0.381E-03    0.152E-02
RMM:   7    -0.694571271599E+03   -0.44033E-05   -0.28424E-06 11123   0.329E-03    0.128E-02
RMM:   8    -0.694571277721E+03   -0.61216E-05   -0.62200E-07  7526   0.239E-03
  52 F= -.69457128E+03 E0= -.69416968E+03  d E =-.243675E-02  mag=    82.5676
       N       E                     dE             d eps       ncg     rms          rms(c)
DAV:   1    -0.694574366441E+03   -0.30948E-02   -0.18625E-01 25744   0.511E-01    0.214E-01
RMM:   2    -0.694575073166E+03   -0.70672E-03   -0.40212E-03 24584   0.975E-02    0.165E-01
RMM:   3    -0.694575204435E+03   -0.13127E-03   -0.82190E-04 21978   0.458E-02    0.146E-01
RMM:   4    -0.694575139916E+03    0.64519E-04   -0.25458E-04 17875   0.285E-02    0.835E-02
RMM:   5    -0.694575094732E+03    0.45183E-04   -0.86679E-05 15194   0.150E-02    0.556E-02
RMM:   6    -0.694575043719E+03    0.51013E-04   -0.39378E-05 14659   0.987E-03    0.425E-02
RMM:   7    -0.694575007777E+03    0.35943E-04   -0.24646E-05 13999   0.840E-03    0.363E-02
RMM:   8    -0.694574989041E+03    0.18735E-04   -0.10322E-05 13038   0.570E-03
  53 F= -.69457499E+03 E0= -.69417337E+03  d E =-.614807E-02  mag=    82.5656
       N       E                     dE             d eps       ncg     rms          rms(c)
DAV:   1    -0.694577738353E+03   -0.27306E-02   -0.35007E-02 27248   0.220E-01    0.619E-02
RMM:   2    -0.694577809470E+03   -0.71117E-04   -0.80866E-04 21000   0.406E-02    0.543E-02
RMM:   3    -0.694577826832E+03   -0.17363E-04   -0.13444E-04 15490   0.182E-02    0.541E-02
RMM:   4    -0.694577818187E+03    0.86455E-05   -0.35935E-05 14009   0.111E-02    0.249E-02
RMM:   5    -0.694577816802E+03    0.13849E-05   -0.10149E-05 12189   0.521E-03    0.210E-02
RMM:   6    -0.694577812038E+03    0.47637E-05   -0.49714E-06 11573   0.389E-03    0.153E-02
RMM:   7    -0.694577806398E+03    0.56401E-05   -0.37839E-06 11539   0.355E-03    0.157E-02
RMM:   8    -0.694577802839E+03    0.35595E-05   -0.14738E-06  9367   0.278E-03
  54 F= -.69457780E+03 E0= -.69417617E+03  d E =-.281380E-02  mag=    82.5637
       N       E                     dE             d eps       ncg     rms          rms(c)
DAV:   1    -0.694578351592E+03   -0.54519E-03   -0.14646E-02 27856   0.142E-01    0.400E-02
RMM:   2    -0.694578378912E+03   -0.27320E-04   -0.34356E-04 17188   0.264E-02    0.370E-02
RMM:   3    -0.694578388222E+03   -0.93104E-05   -0.57404E-05 14515   0.127E-02    0.368E-02
RMM:   4    -0.694578385180E+03    0.30426E-05   -0.16103E-05 12709   0.718E-03    0.180E-02
RMM:   5    -0.694578386341E+03   -0.11614E-05   -0.39517E-06 10830   0.356E-03    0.145E-02
RMM:   6    -0.694578386772E+03   -0.43120E-06   -0.16155E-06  9056   0.271E-03    0.115E-02
RMM:   7    -0.694578387602E+03   -0.82981E-06   -0.11156E-06  8634   0.254E-03    0.108E-02
RMM:   8    -0.694578388725E+03   -0.11232E-05   -0.22655E-07  6077   0.224E-03
  55 F= -.69457839E+03 E0= -.69417677E+03  d E =-.339968E-02  mag=    82.5617
       N       E                     dE             d eps       ncg     rms          rms(c)
DAV:   1    -0.694578408840E+03   -0.21238E-04   -0.70229E-04 26112   0.313E-02    0.119E-02
RMM:   2    -0.694578412701E+03   -0.38613E-05   -0.18084E-05 13510   0.613E-03    0.129E-02
RMM:   3    -0.694578415823E+03   -0.31218E-05   -0.24883E-06 10101   0.316E-03    0.115E-02
RMM:   4    -0.694578418117E+03   -0.22938E-05   -0.19603E-07  5268   0.202E-03    0.851E-03
RMM:   5    -0.694578422326E+03   -0.42086E-05   -0.62546E-09  4354   0.183E-03    0.806E-03
RMM:   6    -0.694578430220E+03   -0.78939E-05   -0.10704E-08  4719   0.180E-03    0.786E-03
RMM:   7    -0.694578441706E+03   -0.11487E-04   -0.65995E-08  5248   0.194E-03    0.753E-03
RMM:   8    -0.694578452921E+03   -0.11215E-04   -0.12991E-07  5411   0.198E-03
  56 F= -.69457845E+03 E0= -.69417684E+03  d E =-.346388E-02  mag=    82.5592
       N       E                     dE             d eps       ncg     rms          rms(c)
DAV:   1    -0.694579777379E+03   -0.13357E-02   -0.12404E-02 27344   0.136E-01    0.526E-02
RMM:   2    -0.694579786187E+03   -0.88084E-05   -0.31510E-04 17693   0.277E-02    0.432E-02
RMM:   3    -0.694579809143E+03   -0.22956E-04   -0.53873E-05 14590   0.120E-02    0.292E-02
RMM:   4    -0.694579821641E+03   -0.12497E-04   -0.14989E-05 13157   0.706E-03    0.271E-02
RMM:   5    -0.694579835556E+03   -0.13915E-04   -0.59883E-06 11951   0.443E-03    0.172E-02
RMM:   6    -0.694579851785E+03   -0.16229E-04   -0.28704E-06 10269   0.312E-03    0.131E-02
RMM:   7    -0.694579864430E+03   -0.12645E-04   -0.13544E-06  9339   0.269E-03    0.110E-02
RMM:   8    -0.694579872603E+03   -0.81724E-05   -0.14216E-07  6046   0.216E-03
  57 F= -.69457987E+03 E0= -.69417831E+03  d E =-.141968E-02  mag=    82.5574
       N       E                     dE             d eps       ncg     rms          rms(c)
DAV:   1    -0.694580638879E+03   -0.77445E-03   -0.34028E-02 26960   0.226E-01    0.869E-02
RMM:   2    -0.694580691807E+03   -0.52928E-04   -0.85874E-04 22599   0.458E-02    0.688E-02
RMM:   3    -0.694580736849E+03   -0.45042E-04   -0.15249E-04 15811   0.185E-02    0.476E-02
RMM:   4    -0.694580753490E+03   -0.16641E-04   -0.43350E-05 14309   0.120E-02    0.461E-02
RMM:   5    -0.694580766408E+03   -0.12917E-04   -0.17301E-05 13076   0.707E-03    0.279E-02
RMM:   6    -0.694580785927E+03   -0.19520E-04   -0.85204E-06 12355   0.483E-03    0.199E-02
RMM:   7    -0.694580800901E+03   -0.14974E-04   -0.46659E-06 11983   0.395E-03    0.163E-02
RMM:   8    -0.694580809209E+03   -0.83074E-05   -0.17982E-06 10347   0.297E-03
  58 F= -.69458081E+03 E0= -.69417928E+03  d E =-.235629E-02  mag=    82.5558
       N       E                     dE             d eps       ncg     rms          rms(c)
DAV:   1    -0.694581961310E+03   -0.11604E-02   -0.12945E-02 27520   0.134E-01    0.589E-02
RMM:   2    -0.694582025927E+03   -0.64616E-04   -0.31587E-04 17832   0.258E-02    0.503E-02
RMM:   3    -0.694582028325E+03   -0.23982E-05   -0.60324E-05 14749   0.128E-02    0.412E-02
RMM:   4    -0.694582027200E+03    0.11250E-05   -0.19750E-05 12849   0.806E-03    0.230E-02
RMM:   5    -0.694582032228E+03   -0.50282E-05   -0.59718E-06 11271   0.433E-03    0.157E-02
RMM:   6    -0.694582041717E+03   -0.94892E-05   -0.28700E-06 10091   0.324E-03    0.133E-02
RMM:   7    -0.694582052075E+03   -0.10358E-04   -0.15669E-06  9133   0.279E-03    0.966E-03
RMM:   8    -0.694582059644E+03   -0.75689E-05   -0.27435E-07  6073   0.223E-03
  59 F= -.69458206E+03 E0= -.69418054E+03  d E =-.125044E-02  mag=    82.5541
       N       E                     dE             d eps       ncg     rms          rms(c)
DAV:   1    -0.694582865766E+03   -0.81369E-03   -0.99047E-02 26192   0.370E-01    0.161E-01
RMM:   2    -0.694583256066E+03   -0.39030E-03   -0.23739E-03 24115   0.711E-02    0.140E-01
RMM:   3    -0.694583287747E+03   -0.31681E-04   -0.45304E-04 19870   0.334E-02    0.112E-01
RMM:   4    -0.694583252924E+03    0.34823E-04   -0.14503E-04 16163   0.214E-02    0.638E-02
RMM:   5    -0.694583241861E+03    0.11062E-04   -0.48189E-05 14050   0.116E-02    0.398E-02
RMM:   6    -0.694583239436E+03    0.24252E-05   -0.23244E-05 13489   0.773E-03    0.363E-02
RMM:   7    -0.694583234810E+03    0.46259E-05   -0.13842E-05 13054   0.651E-03    0.234E-02
RMM:   8    -0.694583233969E+03    0.84098E-06   -0.59353E-06 12128   0.427E-03
  60 F= -.69458323E+03 E0= -.69418172E+03  d E =-.242476E-02  mag=    82.5524
       N       E                     dE             d eps       ncg     rms          rms(c)
DAV:   1    -0.694583904278E+03   -0.66947E-03   -0.62908E-03 27872   0.924E-02    0.438E-02
RMM:   2    -0.694583924934E+03   -0.20656E-04   -0.14249E-04 15825   0.184E-02    0.318E-02
RMM:   3    -0.694583928810E+03   -0.38752E-05   -0.26829E-05 14305   0.922E-03    0.289E-02
RMM:   4    -0.694583927297E+03    0.15125E-05   -0.80965E-06 12235   0.540E-03    0.145E-02
RMM:   5    -0.694583929851E+03   -0.25537E-05   -0.28125E-06 10250   0.311E-03    0.143E-02
RMM:   6    -0.694583931923E+03   -0.20722E-05   -0.11635E-06  8286   0.256E-03    0.904E-03
RMM:   7    -0.694583934641E+03   -0.27185E-05   -0.45045E-07  6687   0.230E-03    0.838E-03
RMM:   8    -0.694583938188E+03   -0.35465E-05   -0.61298E-08  5046   0.209E-03
  61 F= -.69458394E+03 E0= -.69418238E+03  d E =-.704219E-03  mag=    82.5506
       N       E                     dE             d eps       ncg     rms          rms(c)
DAV:   1    -0.694585029481E+03   -0.10948E-02   -0.56674E-02 25712   0.277E-01    0.128E-01
RMM:   2    -0.694585252976E+03   -0.22350E-03   -0.12224E-03 23466   0.541E-02    0.916E-02
RMM:   3    -0.694585303362E+03   -0.50386E-04   -0.23219E-04 17421   0.239E-02    0.775E-02
RMM:   4    -0.694585286972E+03    0.16390E-04   -0.76274E-05 14956   0.162E-02    0.477E-02
RMM:   5    -0.694585285397E+03    0.15749E-05   -0.28070E-05 13623   0.870E-03    0.333E-02
RMM:   6    -0.694585280057E+03    0.53402E-05   -0.13341E-05 13025   0.606E-03    0.213E-02
RMM:   7    -0.694585274320E+03    0.57369E-05   -0.79616E-06 12603   0.496E-03    0.201E-02
RMM:   8    -0.694585269463E+03    0.48568E-05   -0.32256E-06 11188   0.362E-03
  62 F= -.69458527E+03 E0= -.69418363E+03  d E =-.203549E-02  mag=    82.5488
       N       E                     dE             d eps       ncg     rms          rms(c)
DAV:   1    -0.694583098269E+03    0.21761E-02   -0.22665E-01 25392   0.553E-01    0.256E-01
RMM:   2    -0.694583991931E+03   -0.89366E-03   -0.48801E-03 24894   0.108E-01    0.182E-01
RMM:   3    -0.694584191221E+03   -0.19929E-03   -0.91441E-04 22506   0.477E-02    0.143E-01
RMM:   4    -0.694584126550E+03    0.64671E-04   -0.28276E-04 18480   0.292E-02    0.891E-02
RMM:   5    -0.694584108490E+03    0.18060E-04   -0.11403E-04 15701   0.176E-02    0.644E-02
RMM:   6    -0.694584071103E+03    0.37387E-04   -0.58634E-05 14595   0.121E-02    0.395E-02
RMM:   7    -0.694584041534E+03    0.29569E-04   -0.31976E-05 13900   0.933E-03    0.368E-02
RMM:   8    -0.694584018402E+03    0.23132E-04   -0.13203E-05 13086   0.654E-03
  63 F= -.69458402E+03 E0= -.69418222E+03  d E =-.784433E-03  mag=    82.5466
       N       E                     dE             d eps       ncg     rms          rms(c)
DAV:   1    -0.694584758107E+03   -0.71657E-03   -0.11821E-01 25792   0.399E-01    0.185E-01
RMM:   2    -0.694585246205E+03   -0.48810E-03   -0.25125E-03 24615   0.778E-02    0.131E-01
RMM:   3    -0.694585359908E+03   -0.11370E-03   -0.46440E-04 20276   0.339E-02    0.105E-01
RMM:   4    -0.694585335930E+03    0.23978E-04   -0.14196E-04 16078   0.214E-02    0.661E-02
RMM:   5    -0.694585340003E+03   -0.40727E-05   -0.56631E-05 14477   0.127E-02    0.478E-02
RMM:   6    -0.694585352051E+03   -0.12049E-04   -0.27955E-05 13807   0.847E-03    0.289E-02
RMM:   7    -0.694585379696E+03   -0.27644E-04   -0.15540E-05 13335   0.670E-03    0.279E-02
RMM:   8    -0.694585398382E+03   -0.18686E-04   -0.61617E-06 12329   0.471E-03
  64 F= -.69458540E+03 E0= -.69418370E+03  d E =-.216441E-02  mag=    82.5448
       N       E                     dE             d eps       ncg     rms          rms(c)
[...]
RMM:   8    -0.694596397674E+03   -0.43800E-05   -0.13904E-07  5683   0.214E-03
  77 F= -.69459640E+03 E0= -.69419481E+03  d E =-.570841E-03  mag=    82.5260
       N       E                     dE             d eps       ncg     rms          rms(c)
DAV:   1    -0.694596446141E+03   -0.52847E-04   -0.31286E-02 27824   0.190E-01    0.110E-01
RMM:   2    -0.694596622192E+03   -0.17605E-03   -0.57298E-04 20580   0.373E-02    0.643E-02
RMM:   3    -0.694596658976E+03   -0.36784E-04   -0.82851E-05 15133   0.150E-02    0.375E-02
RMM:   4    -0.694596659265E+03   -0.28871E-06   -0.28881E-05 13670   0.989E-03    0.326E-02
RMM:   5    -0.694596659536E+03   -0.27101E-06   -0.11035E-05 12437   0.591E-03    0.187E-02
RMM:   6    -0.694596663737E+03   -0.42012E-05   -0.57849E-06 11798   0.415E-03    0.146E-02
RMM:   7    -0.694596668171E+03   -0.44340E-05   -0.24828E-06 10677   0.316E-03    0.104E-02
RMM:   8    -0.694596671507E+03   -0.33360E-05   -0.49961E-07  7118   0.235E-03
  78 F= -.69459667E+03 E0= -.69419511E+03  d E =-.844674E-03  mag=    82.5248
       N       E                     dE             d eps       ncg     rms          rms(c)
DAV:   1    -0.694597010467E+03   -0.34230E-03   -0.12920E-02 27952   0.119E-01    0.752E-02
RMM:   2    -0.694597093387E+03   -0.82919E-04   -0.23630E-04 17061   0.242E-02    0.439E-02
RMM:   3    -0.694597118623E+03   -0.25236E-04   -0.34658E-05 14651   0.104E-02    0.288E-02
RMM:   4    -0.694597118814E+03   -0.19092E-06   -0.11493E-05 12797   0.639E-03    0.225E-02
RMM:   5    -0.694597124563E+03   -0.57491E-05   -0.43689E-06 11519   0.379E-03    0.140E-02
RMM:   6    -0.694597132485E+03   -0.79228E-05   -0.19808E-06  9762   0.279E-03    0.109E-02
RMM:   7    -0.694597139527E+03   -0.70417E-05   -0.91900E-07  8162   0.252E-03    0.722E-03
RMM:   8    -0.694597144682E+03   -0.51549E-05   -0.96368E-08  5129   0.209E-03
  79 F= -.69459714E+03 E0= -.69419558E+03  d E =-.473175E-03  mag=    82.5236
       N       E                     dE             d eps       ncg     rms          rms(c)
DAV:   1    -0.694597066140E+03    0.73387E-04   -0.65920E-02 26192   0.269E-01    0.169E-01
RMM:   2    -0.694597443528E+03   -0.37739E-03   -0.11828E-03 23112   0.545E-02    0.975E-02
RMM:   3    -0.694597541651E+03   -0.98123E-04   -0.17335E-04 16346   0.212E-02    0.456E-02
RMM:   4    -0.694597543295E+03   -0.16438E-05   -0.53294E-05 14720   0.134E-02    0.427E-02
RMM:   5    -0.694597549913E+03   -0.66180E-05   -0.23392E-05 13282   0.849E-03    0.269E-02
RMM:   6    -0.694597558879E+03   -0.89668E-05   -0.12912E-05 12977   0.589E-03    0.229E-02
RMM:   7    -0.694597566810E+03   -0.79311E-05   -0.50321E-06 11818   0.411E-03    0.140E-02
RMM:   8    -0.694597570951E+03   -0.41407E-05   -0.12643E-06  9368   0.267E-03
  80 F= -.69459757E+03 E0= -.69419596E+03  d E =-.899444E-03  mag=    82.5224
       N       E                     dE             d eps       ncg     rms          rms(c)
DAV:   1    -0.694597887413E+03   -0.32060E-03   -0.18462E-02 27552   0.142E-01    0.880E-02
RMM:   2    -0.694597995386E+03   -0.10797E-03   -0.32648E-04 18224   0.282E-02    0.505E-02
RMM:   3    -0.694598032711E+03   -0.37325E-04   -0.48121E-05 14866   0.121E-02    0.379E-02
RMM:   4    -0.694598031658E+03    0.10533E-05   -0.16628E-05 13354   0.769E-03    0.256E-02
RMM:   5    -0.694598038415E+03   -0.67577E-05   -0.57905E-06 12103   0.424E-03    0.168E-02
RMM:   6    -0.694598044964E+03   -0.65481E-05   -0.31235E-06 11291   0.334E-03    0.111E-02
RMM:   7    -0.694598051261E+03   -0.62976E-05   -0.14904E-06  9444   0.274E-03    0.803E-03
RMM:   8    -0.694598054702E+03   -0.34412E-05   -0.15486E-07  5744   0.212E-03
  81 F= -.69459805E+03 E0= -.69419646E+03  d E =-.483751E-03  mag=    82.5213
       N       E                     dE             d eps       ncg     rms          rms(c)
DAV:   1    -0.694597989748E+03    0.61513E-04   -0.40527E-02 27040   0.210E-01    0.130E-01
RMM:   2    -0.694598210874E+03   -0.22113E-03   -0.71115E-04 21438   0.418E-02    0.741E-02
RMM:   3    -0.694598279642E+03   -0.68768E-04   -0.10450E-04 15594   0.172E-02    0.487E-02
RMM:   4    -0.694598279005E+03    0.63702E-06   -0.38779E-05 14112   0.116E-02    0.379E-02
RMM:   5    -0.694598283896E+03   -0.48913E-05   -0.13906E-05 12968   0.635E-03    0.225E-02
RMM:   6    -0.694598288080E+03   -0.41835E-05   -0.68409E-06 12371   0.449E-03    0.176E-02
RMM:   7    -0.694598292528E+03   -0.44480E-05   -0.34200E-06 11686   0.356E-03    0.112E-02
RMM:   8    -0.694598294883E+03   -0.23553E-05   -0.46179E-07  7130   0.227E-03
  82 F= -.69459829E+03 E0= -.69419669E+03  d E =-.723932E-03  mag=    82.5202
       N       E                     dE             d eps       ncg     rms          rms(c)
DAV:   1    -0.694598513645E+03   -0.22112E-03   -0.23798E-02 27888   0.162E-01    0.102E-01
RMM:   2    -0.694598635981E+03   -0.12234E-03   -0.41876E-04 19354   0.322E-02    0.588E-02
RMM:   3    -0.694598688505E+03   -0.52524E-04   -0.63100E-05 15090   0.138E-02    0.479E-02
RMM:   4    -0.694598683801E+03    0.47041E-05   -0.23808E-05 13705   0.918E-03    0.289E-02
RMM:   5    -0.694598690463E+03   -0.66627E-05   -0.80665E-06 12556   0.486E-03    0.188E-02
RMM:   6    -0.694598695802E+03   -0.53383E-05   -0.43434E-06 11930   0.379E-03    0.124E-02
RMM:   7    -0.694598699638E+03   -0.38361E-05   -0.22601E-06 11066   0.305E-03    0.935E-03
RMM:   8    -0.694598700140E+03   -0.50198E-06   -0.22446E-07  6242   0.215E-03
  83 F= -.69459870E+03 E0= -.69419709E+03  d E =-.405257E-03  mag=    82.5190
       N       E                     dE             d eps       ncg     rms          rms(c)
DAV:   1    -0.694598699425E+03    0.21234E-06   -0.10902E-02 28272   0.109E-01    0.688E-02
RMM:   2    -0.694598753052E+03   -0.53626E-04   -0.19530E-04 16593   0.219E-02    0.410E-02
RMM:   3    -0.694598777907E+03   -0.24855E-04   -0.30242E-05 14557   0.100E-02    0.314E-02
RMM:   4    -0.694598777456E+03    0.45076E-06   -0.11588E-05 12409   0.628E-03    0.203E-02
RMM:   5    -0.694598781882E+03   -0.44256E-05   -0.36894E-06 11338   0.358E-03    0.133E-02
RMM:   6    -0.694598785126E+03   -0.32438E-05   -0.14609E-06  9384   0.265E-03    0.937E-03
RMM:   7    -0.694598787100E+03   -0.19744E-05   -0.40832E-07  6859   0.229E-03    0.644E-03
RMM:   8    -0.694598787584E+03   -0.48429E-06   -0.27646E-08  4861   0.206E-03
  84 F= -.69459879E+03 E0= -.69419717E+03  d E =-.492701E-03  mag=    82.5179
       N       E                     dE             d eps       ncg     rms          rms(c)
DAV:   1    -0.694599010558E+03   -0.22346E-03   -0.94606E-03 27808   0.109E-01    0.572E-02
RMM:   2    -0.694599053200E+03   -0.42642E-04   -0.18570E-04 16224   0.214E-02    0.343E-02
RMM:   3    -0.694599073976E+03   -0.20776E-04   -0.28328E-05 14403   0.957E-03    0.270E-02
RMM:   4    -0.694599073872E+03    0.10431E-06   -0.87747E-06 12515   0.562E-03    0.169E-02
RMM:   5    -0.694599080439E+03   -0.65668E-05   -0.32335E-06 11212   0.337E-03    0.140E-02
RMM:   6    -0.694599086629E+03   -0.61905E-05   -0.12955E-06  9219   0.260E-03    0.784E-03
RMM:   7    -0.694599091357E+03   -0.47274E-05   -0.41778E-07  6794   0.226E-03    0.629E-03
RMM:   8    -0.694599093563E+03   -0.22063E-05   -0.42172E-08  5077   0.202E-03
  85 F= -.69459909E+03 E0= -.69419747E+03  d E =-.305979E-03  mag=    82.5168
       N       E                     dE             d eps       ncg     rms          rms(c)
DAV:   1    -0.694599140268E+03   -0.48911E-04   -0.66991E-03 27760   0.917E-02    0.482E-02
RMM:   2    -0.694599172791E+03   -0.32523E-04   -0.13331E-04 15600   0.181E-02    0.293E-02
RMM:   3    -0.694599188469E+03   -0.15679E-04   -0.20021E-05 14030   0.810E-03    0.208E-02
RMM:   4    -0.694599190264E+03   -0.17947E-05   -0.59535E-06 11985   0.469E-03    0.153E-02
RMM:   5    -0.694599196907E+03   -0.66431E-05   -0.21635E-06 10375   0.300E-03    0.120E-02
RMM:   6    -0.694599203917E+03   -0.70101E-05   -0.58729E-07  7296   0.235E-03    0.642E-03
RMM:   7    -0.694599209494E+03   -0.55768E-05   -0.28260E-07  6059   0.220E-03    0.551E-03
RMM:   8    -0.694599212563E+03   -0.30687E-05   -0.42940E-08  4865   0.206E-03
  86 F= -.69459921E+03 E0= -.69419760E+03  d E =-.424978E-03  mag=    82.5158
       N       E                     dE             d eps       ncg     rms          rms(c)
DAV:   1    -0.694599343057E+03   -0.13356E-03   -0.52302E-03 27952   0.805E-02    0.460E-02
RMM:   2    -0.694599373898E+03   -0.30841E-04   -0.10878E-04 15381   0.168E-02    0.292E-02
RMM:   3    -0.694599385689E+03   -0.11791E-04   -0.19592E-05 13931   0.816E-03    0.273E-02
RMM:   4    -0.694599384833E+03    0.85589E-06   -0.67374E-06 11779   0.500E-03    0.120E-02
RMM:   5    -0.694599389861E+03   -0.50282E-05   -0.18534E-06  9474   0.287E-03    0.105E-02
RMM:   6    -0.694599394788E+03   -0.49267E-05   -0.58933E-07  7344   0.235E-03    0.675E-03
RMM:   7    -0.694599398478E+03   -0.36899E-05   -0.11305E-07  5453   0.214E-03    0.534E-03
RMM:   8    -0.694599401140E+03   -0.26617E-05   -0.27984E-08  4701   0.207E-03
  87 F= -.69459940E+03 E0= -.69419777E+03  d E =-.188577E-03  mag=    82.5148
       N       E                     dE             d eps       ncg     rms          rms(c)
DAV:   1    -0.694599426750E+03   -0.28272E-04   -0.91742E-03 27776   0.107E-01    0.607E-02
RMM:   2    -0.694599478156E+03   -0.51406E-04   -0.18910E-04 16407   0.220E-02    0.381E-02
RMM:   3    -0.694599496517E+03   -0.18361E-04   -0.31500E-05 14510   0.101E-02    0.316E-02
RMM:   4    -0.694599495859E+03    0.65845E-06   -0.11185E-05 12586   0.631E-03    0.176E-02
RMM:   5    -0.694599500981E+03   -0.51223E-05   -0.37046E-06 11161   0.362E-03    0.139E-02
RMM:   6    -0.694599506225E+03   -0.52433E-05   -0.17277E-06 10004   0.279E-03    0.963E-03
RMM:   7    -0.694599510428E+03   -0.42040E-05   -0.41794E-07  7033   0.231E-03    0.560E-03
RMM:   8    -0.694599513586E+03   -0.31572E-05   -0.22551E-08  4811   0.206E-03
  88 F= -.69459951E+03 E0= -.69419786E+03  d E =-.301023E-03  mag=    82.5139
       N       E                     dE             d eps       ncg     rms          rms(c)
DAV:   1    -0.694599611958E+03   -0.10153E-03   -0.24076E-03 27376   0.524E-02    0.329E-02
RMM:   2    -0.694599630233E+03   -0.18275E-04   -0.47288E-05 14851   0.108E-02    0.206E-02
RMM:   3    -0.694599637468E+03   -0.72354E-05   -0.82558E-06 12768   0.537E-03    0.179E-02
RMM:   4    -0.694599637904E+03   -0.43586E-06   -0.26636E-06 10780   0.342E-03    0.962E-03
RMM:   5    -0.694599641901E+03   -0.39972E-05   -0.26322E-07  6035   0.208E-03    0.770E-03
RMM:   6    -0.694599646100E+03   -0.41984E-05   -0.86039E-08  5150   0.198E-03    0.613E-03
RMM:   7    -0.694599649339E+03   -0.32391E-05   -0.53532E-08  4928   0.194E-03    0.457E-03
RMM:   8    -0.694599651807E+03   -0.24680E-05   -0.96478E-08  4932   0.200E-03
  89 F= -.69459965E+03 E0= -.69419799E+03  d E =-.138221E-03  mag=    82.5129
       N       E                     dE             d eps       ncg     rms          rms(c)
DAV:   1    -0.694599678502E+03   -0.29163E-04   -0.21647E-02 27056   0.157E-01    0.976E-02
RMM:   2    -0.694599796938E+03   -0.11844E-03   -0.40511E-04 19181   0.314E-02    0.566E-02
RMM:   3    -0.694599841488E+03   -0.44550E-04   -0.61699E-05 14934   0.136E-02    0.434E-02
RMM:   4    -0.694599838043E+03    0.34450E-05   -0.22675E-05 13506   0.899E-03    0.279E-02
RMM:   5    -0.694599841160E+03   -0.31171E-05   -0.79507E-06 12367   0.483E-03    0.196E-02
RMM:   6    -0.694599842918E+03   -0.17583E-05   -0.40814E-06 11704   0.368E-03    0.129E-02
RMM:   7    -0.694599844521E+03   -0.16028E-05   -0.20797E-06 10756   0.297E-03    0.803E-03
RMM:   8    -0.694599845082E+03   -0.56066E-06   -0.13745E-07  5855   0.212E-03
  90 F= -.69459985E+03 E0= -.69419815E+03  d E =-.331496E-03  mag=    82.5120
       N       E                     dE             d eps       ncg     rms          rms(c)
DAV:   1    -0.694599960216E+03   -0.11570E-03   -0.37394E-03 27760   0.659E-02    0.400E-02
RMM:   2    -0.694599983738E+03   -0.23521E-04   -0.74660E-05 15138   0.138E-02    0.259E-02
RMM:   3    -0.694599992122E+03   -0.83838E-05   -0.15056E-05 13381   0.724E-03    0.267E-02
RMM:   4    -0.694599989649E+03    0.24727E-05   -0.51317E-06 11501   0.449E-03    0.106E-02
RMM:   5    -0.694599990214E+03   -0.56531E-06   -0.70218E-07  7271   0.233E-03    0.799E-03
RMM:   6    -0.694599990683E+03   -0.46846E-06   -0.21486E-07  5833   0.211E-03    0.700E-03
RMM:   7    -0.694599990972E+03   -0.28964E-06   -0.96283E-08  5199   0.205E-03    0.476E-03
RMM:   8    -0.694599991418E+03   -0.44610E-06   -0.15534E-07  5270   0.206E-03
  91 F= -.69459999E+03 E0= -.69419828E+03  d E =-.146337E-03  mag=    82.5110
       N       E                     dE             d eps       ncg     rms          rms(c)
DAV:   1    -0.694599992105E+03   -0.11325E-05   -0.16269E-02 27568   0.137E-01    0.828E-02
RMM:   2    -0.694600084960E+03   -0.92856E-04   -0.31348E-04 18055   0.280E-02    0.506E-02
RMM:   3    -0.694600116566E+03   -0.31605E-04   -0.54943E-05 14784   0.130E-02    0.480E-02
RMM:   4    -0.694600108732E+03    0.78343E-05   -0.20604E-05 13276   0.854E-03    0.211E-02
RMM:   5    -0.694600108342E+03    0.38929E-06   -0.61019E-06 11963   0.424E-03    0.172E-02
RMM:   6    -0.694600106468E+03    0.18738E-05   -0.31150E-06 11472   0.338E-03    0.121E-02
RMM:   7    -0.694600105380E+03    0.10887E-05   -0.15826E-06  9796   0.275E-03    0.700E-03
RMM:   8    -0.694600104343E+03    0.10366E-05   -0.10158E-07  5508   0.205E-03
  92 F= -.69460010E+03 E0= -.69419837E+03  d E =-.259262E-03  mag=    82.5101
       N       E                     dE             d eps       ncg     rms          rms(c)
DAV:   1    -0.694600166275E+03   -0.60895E-04   -0.48071E-03 27952   0.728E-02    0.471E-02
RMM:   2    -0.694600192627E+03   -0.26352E-04   -0.89466E-05 15330   0.148E-02    0.301E-02
RMM:   3    -0.694600205598E+03   -0.12971E-04   -0.17826E-05 13543   0.777E-03    0.284E-02
RMM:   4    -0.694600203824E+03    0.17742E-05   -0.66156E-06 11710   0.497E-03    0.131E-02
RMM:   5    -0.694600206240E+03   -0.24159E-05   -0.14746E-06  8950   0.270E-03    0.996E-03
RMM:   6    -0.694600208635E+03   -0.23954E-05   -0.39340E-07  6594   0.225E-03    0.691E-03
RMM:   7    -0.694600210285E+03   -0.16494E-05   -0.14206E-07  5341   0.211E-03    0.516E-03
RMM:   8    -0.694600211412E+03   -0.11269E-05   -0.70742E-08  4954   0.205E-03
  93 F= -.69460021E+03 E0= -.69419846E+03  d E =-.107069E-03  mag=    82.5091
       N       E                     dE             d eps       ncg     rms          rms(c)
DAV:   1    -0.694600202015E+03    0.82701E-05   -0.82591E-03 28080   0.955E-02    0.615E-02
RMM:   2    -0.694600248368E+03   -0.46354E-04   -0.15148E-04 16028   0.191E-02    0.376E-02
RMM:   3    -0.694600270317E+03   -0.21948E-04   -0.27333E-05 14173   0.942E-03    0.336E-02
RMM:   4    -0.694600268179E+03    0.21383E-05   -0.10261E-05 12345   0.607E-03    0.165E-02
RMM:   5    -0.694600272367E+03   -0.41882E-05   -0.29632E-06 10630   0.327E-03    0.132E-02
RMM:   6    -0.694600276451E+03   -0.40838E-05   -0.12765E-06  9159   0.263E-03    0.851E-03
RMM:   7    -0.694600279495E+03   -0.30445E-05   -0.40365E-07  6705   0.228E-03    0.505E-03
RMM:   8    -0.694600281454E+03   -0.19586E-05   -0.28506E-08  4926   0.208E-03
  94 F= -.69460028E+03 E0= -.69419851E+03  d E =-.177111E-03  mag=    82.5082
       N       E                     dE             d eps       ncg     rms          rms(c)
DAV:   1    -0.694600369632E+03   -0.90137E-04   -0.26784E-03 27248   0.599E-02    0.306E-02
RMM:   2    -0.694600387597E+03   -0.17965E-04   -0.60738E-05 14903   0.126E-02    0.213E-02
RMM:   3    -0.694600393640E+03   -0.60424E-05   -0.10117E-05 13309   0.587E-03    0.168E-02
RMM:   4    -0.694600395421E+03   -0.17816E-05   -0.31667E-06 11060   0.362E-03    0.103E-02
RMM:   5    -0.694600400837E+03   -0.54156E-05   -0.75236E-07  7711   0.239E-03    0.834E-03
RMM:   6    -0.694600405979E+03   -0.51418E-05   -0.24283E-07  6185   0.212E-03    0.572E-03
RMM:   7    -0.694600409968E+03   -0.39889E-05   -0.25028E-08  5050   0.199E-03    0.427E-03
RMM:   8    -0.694600412836E+03   -0.28685E-05   -0.32085E-08  4749   0.201E-03
  95 F= -.69460041E+03 E0= -.69419865E+03  d E =-.131383E-03  mag=    82.5073
       N       E                     dE             d eps       ncg     rms          rms(c)
DAV:   1    -0.694600432456E+03   -0.22489E-04   -0.23888E-03 27360   0.566E-02    0.287E-02
RMM:   2    -0.694600450159E+03   -0.17703E-04   -0.54681E-05 14858   0.118E-02    0.205E-02
RMM:   3    -0.694600455813E+03   -0.56541E-05   -0.84794E-06 13140   0.532E-03    0.144E-02
RMM:   4    -0.694600458403E+03   -0.25900E-05   -0.26438E-06 10794   0.333E-03    0.122E-02
RMM:   5    -0.694600463726E+03   -0.53225E-05   -0.57140E-07  7301   0.231E-03    0.795E-03
RMM:   6    -0.694600469218E+03   -0.54920E-05   -0.90156E-08  5286   0.203E-03    0.610E-03
RMM:   7    -0.694600474025E+03   -0.48075E-05   -0.34557E-08  4957   0.198E-03    0.435E-03
RMM:   8    -0.694600477279E+03   -0.32540E-05   -0.59131E-08  4785   0.200E-03
  96 F= -.69460048E+03 E0= -.69419872E+03  d E =-.195825E-03  mag=    82.5065
       N       E                     dE             d eps       ncg     rms          rms(c)
DAV:   1    -0.694600531588E+03   -0.57563E-04   -0.15643E-03 27104   0.452E-02    0.246E-02
RMM:   2    -0.694600544640E+03   -0.13052E-04   -0.35916E-05 14641   0.969E-03    0.176E-02
RMM:   3    -0.694600549599E+03   -0.49593E-05   -0.64549E-06 12544   0.472E-03    0.164E-02
RMM:   4    -0.694600550023E+03   -0.42375E-06   -0.18116E-06  9804   0.299E-03    0.704E-03
RMM:   5    -0.694600554073E+03   -0.40503E-05   -0.15772E-07  5379   0.201E-03    0.627E-03
RMM:   6    -0.694600558273E+03   -0.42003E-05   -0.20304E-08  4494   0.188E-03    0.543E-03
RMM:   7    -0.694600561779E+03   -0.35055E-05   -0.16556E-08  4424   0.187E-03    0.397E-03
RMM:   8    -0.694600564554E+03   -0.27753E-05   -0.13381E-08  4244   0.193E-03
  97 F= -.69460056E+03 E0= -.69419880E+03  d E =-.872752E-04  mag=    82.5057
       N       E                     dE             d eps       ncg     rms          rms(c)
DAV:   1    -0.694600580445E+03   -0.18666E-04   -0.18828E-03 26992   0.496E-02    0.268E-02
RMM:   2    -0.694600594749E+03   -0.14304E-04   -0.42919E-05 14719   0.105E-02    0.183E-02
RMM:   3    -0.694600600029E+03   -0.52806E-05   -0.66722E-06 12734   0.476E-03    0.139E-02
RMM:   4    -0.694600601067E+03   -0.10375E-05   -0.18393E-06  9938   0.296E-03    0.905E-03
RMM:   5    -0.694600605094E+03   -0.40270E-05   -0.22365E-07  5667   0.211E-03    0.678E-03
RMM:   6    -0.694600609300E+03   -0.42059E-05   -0.35850E-08  4539   0.197E-03    0.620E-03
RMM:   7    -0.694600612768E+03   -0.34682E-05   -0.16892E-08  4462   0.194E-03    0.390E-03
RMM:   8    -0.694600615749E+03   -0.29812E-05   -0.29238E-08  4270   0.199E-03
  98 F= -.69460062E+03 E0= -.69419885E+03  d E =-.138470E-03  mag=    82.5049
       N       E                     dE             d eps       ncg     rms          rms(c)
DAV:   1    -0.694600663421E+03   -0.50653E-04   -0.18230E-03 26896   0.477E-02    0.269E-02
RMM:   2    -0.694600675600E+03   -0.12179E-04   -0.42425E-05 14686   0.102E-02    0.192E-02
RMM:   3    -0.694600681745E+03   -0.61449E-05   -0.77998E-06 12559   0.510E-03    0.156E-02
RMM:   4    -0.694600682881E+03   -0.11362E-05   -0.23315E-06 10236   0.325E-03    0.788E-03
RMM:   5    -0.694600687018E+03   -0.41369E-05   -0.24623E-07  5860   0.207E-03    0.568E-03
RMM:   6    -0.694600691997E+03   -0.49798E-05   -0.46524E-08  4846   0.189E-03    0.506E-03
RMM:   7    -0.694600696308E+03   -0.43102E-05   -0.27978E-08  4604   0.194E-03    0.374E-03
RMM:   8    -0.694600699203E+03   -0.28955E-05   -0.42149E-08  4347   0.198E-03
  99 F= -.69460070E+03 E0= -.69419892E+03  d E =-.834540E-04  mag=    82.5041
