       N       E                     dE             d eps       ncg     rms          rms(c)
DAV:   1     0.756305950590E+04    0.75631E+04   -0.29596E+05 15120   0.125E+03
DAV:   2     0.596861807841E+03   -0.69662E+04   -0.62797E+04 16032   0.372E+02
DAV:   3    -0.755856141054E+03   -0.13527E+04   -0.12995E+04 18560   0.165E+02
DAV:   4    -0.829092999004E+03   -0.73237E+02   -0.71459E+02 20464   0.429E+01
DAV:   5    -0.830660980081E+03   -0.15680E+01   -0.15487E+01 19328   0.588E+00    0.187E+02
RMM:   6    -0.691854489930E+03    0.13881E+03   -0.62120E+02 14889   0.398E+01    0.168E+02
RMM:   7    -0.147010547961E+04   -0.77825E+03   -0.40046E+02 16428   0.272E+01    0.387E+02
RMM:   8    -0.134913846337E+04    0.12097E+03   -0.11675E+02 18857   0.112E+01    0.371E+02
RMM:   9    -0.145872209986E+04   -0.10958E+03   -0.52152E+01 15531   0.961E+00    0.383E+02
RMM:  10    -0.103877576829E+04    0.41995E+03   -0.52780E+02 22485   0.264E+01    0.325E+02
RMM:  11    -0.109778074832E+04   -0.59005E+02   -0.81292E+01 16621   0.106E+01    0.295E+02
RMM:  12    -0.114236549743E+04   -0.44585E+02   -0.22057E+02 19660   0.139E+01    0.175E+02
RMM:  13    -0.973507547754E+03    0.16886E+03   -0.29722E+02 22406   0.212E+01    0.173E+02
RMM:  14    -0.713757986827E+03    0.25975E+03   -0.45135E+01 16552   0.918E+00    0.149E+02
RMM:  15    -0.627467354647E+03    0.86291E+02   -0.52680E+01 17408   0.994E+00    0.123E+02
RMM:  16    -0.625920228802E+03    0.15471E+01   -0.25278E+01 15802   0.718E+00    0.111E+02
RMM:  17    -0.614995704201E+03    0.10925E+02   -0.92194E+00 16190   0.451E+00    0.973E+01
RMM:  18    -0.609135135594E+03    0.58606E+01   -0.72729E+00 15679   0.400E+00    0.830E+01
RMM:  19    -0.614732676870E+03   -0.55975E+01   -0.32199E+00 15926   0.275E+00    0.779E+01
RMM:  20    -0.619539902580E+03   -0.48072E+01   -0.49282E+00 16702   0.331E+00    0.633E+01
RMM:  21    -0.626707771312E+03   -0.71679E+01   -0.45041E+00 16821   0.321E+00    0.480E+01
RMM:  22    -0.640363532379E+03   -0.13656E+02   -0.60571E+00 17710   0.349E+00    0.308E+01
RMM:  23    -0.645314609019E+03   -0.49511E+01   -0.15310E+00 15612   0.195E+00    0.286E+01
RMM:  24    -0.655820630470E+03   -0.10506E+02   -0.44342E+00 17070   0.281E+00    0.225E+01
RMM:  25    -0.663267822907E+03   -0.74472E+01   -0.34043E+00 17063   0.256E+00    0.153E+01
RMM:  26    -0.665769732438E+03   -0.25019E+01   -0.24100E+00 16851   0.226E+00    0.125E+01
RMM:  27    -0.669478525235E+03   -0.37088E+01   -0.11961E+00 15624   0.161E+00    0.117E+01
RMM:  28    -0.671428837750E+03   -0.19503E+01   -0.56195E-01 15140   0.126E+00    0.116E+01
RMM:  29    -0.672625483665E+03   -0.11966E+01   -0.59681E-01 15578   0.116E+00    0.122E+01
RMM:  30    -0.676043159583E+03   -0.34177E+01   -0.79773E-01 17101   0.122E+00    0.145E+01
RMM:  31    -0.676550810093E+03   -0.50765E+00   -0.49371E-01 16155   0.102E+00    0.167E+01
RMM:  32    -0.678947001705E+03   -0.23962E+01   -0.60556E-01 17318   0.104E+00    0.205E+01
RMM:  33    -0.680113424185E+03   -0.11664E+01   -0.20285E-01 15226   0.677E-01    0.180E+01
RMM:  34    -0.681249104052E+03   -0.11357E+01   -0.23327E-01 16011   0.673E-01    0.166E+01
RMM:  35    -0.682686174969E+03   -0.14371E+01   -0.24851E-01 16780   0.697E-01    0.171E+01
RMM:  36    -0.682595270910E+03    0.90904E-01   -0.27140E-01 17639   0.725E-01    0.129E+01
RMM:  37    -0.684567472713E+03   -0.19722E+01   -0.10347E-01 15394   0.471E-01    0.116E+01
RMM:  38    -0.686460368868E+03   -0.18929E+01   -0.21165E-01 17530   0.607E-01    0.105E+01
RMM:  39    -0.687122721585E+03   -0.66235E+00   -0.20393E-01 17509   0.586E-01    0.917E+00
RMM:  40    -0.687679608653E+03   -0.55689E+00   -0.84364E-02 15828   0.403E-01    0.710E+00
RMM:  41    -0.688252177918E+03   -0.57257E+00   -0.73309E-02 16192   0.367E-01    0.642E+00
RMM:  42    -0.688385872949E+03   -0.13370E+00   -0.11891E-01 18064   0.436E-01    0.528E+00
RMM:  43    -0.689270784415E+03   -0.88491E+00   -0.13673E-01 17767   0.447E-01    0.470E+00
RMM:  44    -0.689458996607E+03   -0.18821E+00   -0.11608E-01 17662   0.417E-01    0.431E+00
RMM:  45    -0.689799226289E+03   -0.34023E+00   -0.59841E-02 16459   0.311E-01    0.497E+00
RMM:  46    -0.689925118435E+03   -0.12589E+00   -0.41273E-02 16254   0.266E-01    0.552E+00
RMM:  47    -0.690356453286E+03   -0.43133E+00   -0.37143E-02 16697   0.246E-01    0.641E+00
RMM:  48    -0.690720906641E+03   -0.36445E+00   -0.20745E-02 15898   0.201E-01    0.676E+00
RMM:  49    -0.691305256646E+03   -0.58435E+00   -0.19445E-02 16174   0.183E-01    0.706E+00
RMM:  50    -0.691379463442E+03   -0.74207E-01   -0.60195E-03 16209   0.116E-01    0.662E+00
RMM:  51    -0.690560359475E+03    0.81910E+00   -0.19117E-01 24805   0.534E-01    0.301E+00
RMM:  52    -0.690677741332E+03   -0.11738E+00   -0.30379E-03 15018   0.113E-01    0.261E+00
RMM:  53    -0.690824848388E+03   -0.14711E+00   -0.56777E-03 16503   0.110E-01    0.222E+00
RMM:  54    -0.690994131120E+03   -0.16928E+00   -0.45265E-03 16445   0.953E-02    0.191E+00
RMM:  55    -0.691167111688E+03   -0.17298E+00   -0.53647E-03 17335   0.968E-02    0.163E+00
RMM:  56    -0.691211128849E+03   -0.44017E-01   -0.24994E-02 22213   0.210E-01    0.849E-01
RMM:  57    -0.691389359443E+03   -0.17823E+00   -0.56019E-03 16791   0.919E-02    0.750E-01
RMM:  58    -0.691519470768E+03   -0.13011E+00   -0.22444E-03 14663   0.602E-02    0.774E-01
RMM:  59    -0.691583155965E+03   -0.63685E-01   -0.73913E-04 13381   0.416E-02    0.535E-01
RMM:  60    -0.691637129134E+03   -0.53973E-01   -0.58126E-04 12571   0.362E-02    0.441E-01
RMM:  61    -0.691757511906E+03   -0.12038E+00   -0.15518E-03 14587   0.495E-02    0.391E-01
RMM:  62    -0.691842750434E+03   -0.85239E-01   -0.69451E-04 12824   0.351E-02    0.198E-01
RMM:  63    -0.691891439570E+03   -0.48689E-01   -0.33679E-04 10842   0.264E-02    0.134E-01
RMM:  64    -0.691911415733E+03   -0.19976E-01   -0.14160E-04  9166   0.204E-02    0.931E-02
RMM:  65    -0.691926725232E+03   -0.15309E-01   -0.77366E-05  8909   0.149E-02    0.672E-02
RMM:  66    -0.691933132541E+03   -0.64073E-02   -0.46359E-05  8768   0.126E-02    0.725E-02
RMM:  67    -0.691942527520E+03   -0.93950E-02   -0.29022E-05  8395   0.986E-03    0.442E-02
RMM:  68    -0.691945165900E+03   -0.26384E-02   -0.12629E-05  7606   0.575E-03    0.292E-02
RMM:  69    -0.691948236305E+03   -0.30704E-02   -0.76953E-06  6503   0.464E-03    0.231E-02
RMM:  70    -0.691951107395E+03   -0.28711E-02   -0.92372E-06  6771   0.444E-03    0.203E-02
RMM:  71    -0.691953150755E+03   -0.20434E-02   -0.10722E-05  6308   0.432E-03    0.178E-02
RMM:  72    -0.691954192670E+03   -0.10419E-02   -0.61147E-06  5392   0.396E-03    0.134E-02
RMM:  73    -0.691955603289E+03   -0.14106E-02   -0.14545E-05  6526   0.454E-03    0.164E-02
RMM:  74    -0.691956373177E+03   -0.76989E-03   -0.11793E-05  5630   0.416E-03    0.104E-02
RMM:  75    -0.691956793274E+03   -0.42010E-03   -0.81620E-06  4965   0.389E-03    0.730E-03
RMM:  76    -0.691957064504E+03   -0.27123E-03   -0.58505E-06  4538   0.367E-03    0.699E-03
RMM:  77    -0.691957205777E+03   -0.14127E-03   -0.37754E-06  4061   0.343E-03    0.606E-03
RMM:  78    -0.691957377114E+03   -0.17134E-03   -0.35638E-06  3805   0.328E-03    0.468E-03
RMM:  79    -0.691957466529E+03   -0.89415E-04   -0.21061E-06  3508   0.320E-03
   1 F= -.69195747E+03 E0= -.69138692E+03  d E =-.691957E+03  mag=     3.9750
       N       E                     dE             d eps       ncg     rms          rms(c)
DAV:   1    -0.689548042794E+03    0.24093E+01   -0.26768E+02 15392   0.204E+01    0.700E+00
RMM:   2    -0.690447713016E+03   -0.89967E+00   -0.10329E+01 14852   0.439E+00    0.144E+01
RMM:   3    -0.692021638717E+03   -0.15739E+01   -0.22947E+00 15650   0.196E+00    0.193E+01
RMM:   4    -0.690366557926E+03    0.16551E+01   -0.52453E-01 14920   0.130E+00    0.107E+01
RMM:   5    -0.689649364797E+03    0.71719E+00   -0.19420E-01 14894   0.867E-01    0.489E+00
RMM:   6    -0.689638297156E+03    0.11068E-01   -0.11760E-01 15088   0.523E-01    0.381E+00
RMM:   7    -0.689677806957E+03   -0.39510E-01   -0.60681E-02 15185   0.390E-01    0.339E+00
RMM:   8    -0.689690186348E+03   -0.12379E-01   -0.66234E-02 15960   0.357E-01    0.307E+00
RMM:   9    -0.689645936279E+03    0.44250E-01   -0.36535E-02 15620   0.280E-01    0.164E+00
RMM:  10    -0.689639874829E+03    0.60614E-02   -0.97666E-03 14876   0.166E-01    0.946E-01
RMM:  11    -0.689649324838E+03   -0.94500E-02   -0.69992E-03 15077   0.124E-01    0.680E-01
RMM:  12    -0.689658808739E+03   -0.94839E-02   -0.34716E-03 14613   0.902E-02    0.609E-01
RMM:  13    -0.689662419099E+03   -0.36104E-02   -0.19154E-03 14258   0.685E-02    0.421E-01
RMM:  14    -0.689663145275E+03   -0.72618E-03   -0.11764E-03 13386   0.496E-02    0.239E-01
RMM:  15    -0.689664326811E+03   -0.11815E-02   -0.34748E-04 11258   0.314E-02    0.223E-01
RMM:  16    -0.689664807050E+03   -0.48024E-03   -0.23193E-04  9874   0.249E-02    0.116E-01
RMM:  17    -0.689665272875E+03   -0.46583E-03   -0.12496E-04  9125   0.168E-02    0.877E-02
RMM:  18    -0.689665968403E+03   -0.69553E-03   -0.72031E-05  8593   0.133E-02    0.700E-02
RMM:  19    -0.689666457384E+03   -0.48898E-03   -0.39012E-05  8001   0.944E-03    0.551E-02
RMM:  20    -0.689666799357E+03   -0.34197E-03   -0.25092E-05  7479   0.722E-03    0.359E-02
RMM:  21    -0.689667239967E+03   -0.44061E-03   -0.29212E-05  7363   0.660E-03    0.273E-02
RMM:  22    -0.689667552241E+03   -0.31227E-03   -0.20022E-05  6834   0.575E-03    0.234E-02
RMM:  23    -0.689667840842E+03   -0.28860E-03   -0.22658E-05  7016   0.581E-03    0.205E-02
RMM:  24    -0.689668008565E+03   -0.16772E-03   -0.20864E-05  6338   0.530E-03    0.136E-02
RMM:  25    -0.689668036464E+03   -0.27899E-04   -0.99809E-06  5622   0.459E-03
   2 F= -.68966804E+03 E0= -.68909151E+03  d E =0.228943E+01  mag=     3.8886
       N       E                     dE             d eps       ncg     rms          rms(c)
DAV:   1    -0.692979583182E+03   -0.33116E+01   -0.20063E+02 15456   0.180E+01    0.122E+01
RMM:   2    -0.703333043226E+03   -0.10353E+02   -0.21833E+01 14988   0.467E+00    0.387E+01
RMM:   3    -0.703511297477E+03   -0.17825E+00   -0.36845E+00 15002   0.289E+00    0.393E+01
RMM:   4    -0.695746538138E+03    0.77648E+01   -0.12329E+00 14906   0.199E+00    0.188E+01
RMM:   5    -0.693061653270E+03    0.26849E+01   -0.10775E+00 15197   0.144E+00    0.942E+00
RMM:   6    -0.692440190106E+03    0.62146E+00   -0.58608E-01 15803   0.993E-01    0.587E+00
RMM:   7    -0.692251899322E+03    0.18829E+00   -0.30980E-01 15956   0.669E-01    0.410E+00
RMM:   8    -0.692193285513E+03    0.58614E-01   -0.10943E-01 16375   0.430E-01    0.295E+00
RMM:   9    -0.692193276335E+03    0.91779E-05   -0.39328E-02 15566   0.277E-01    0.246E+00
RMM:  10    -0.692223359187E+03   -0.30083E-01   -0.28912E-02 15896   0.232E-01    0.271E+00
RMM:  11    -0.692221300875E+03    0.20583E-02   -0.22610E-02 16071   0.220E-01    0.221E+00
RMM:  12    -0.692203625862E+03    0.17675E-01   -0.11934E-02 15391   0.177E-01    0.127E+00
RMM:  13    -0.692208049766E+03   -0.44239E-02   -0.14430E-02 15868   0.166E-01    0.934E-01
RMM:  14    -0.692205259969E+03    0.27898E-02   -0.52097E-03 15112   0.123E-01    0.852E-01
RMM:  15    -0.692200197677E+03    0.50623E-02   -0.28030E-03 14487   0.822E-02    0.597E-01
RMM:  16    -0.692200385233E+03   -0.18756E-03   -0.16159E-03 14097   0.621E-02    0.517E-01
RMM:  17    -0.692201878254E+03   -0.14930E-02   -0.16728E-03 14744   0.561E-02    0.361E-01
RMM:  18    -0.692202990447E+03   -0.11122E-02   -0.56610E-04 12684   0.371E-02    0.250E-01
RMM:  19    -0.692204005429E+03   -0.10150E-02   -0.72064E-04 12450   0.360E-02    0.160E-01
RMM:  20    -0.692207104252E+03   -0.30988E-02   -0.34845E-04 10947   0.268E-02    0.123E-01
RMM:  21    -0.692210222044E+03   -0.31178E-02   -0.16579E-04  9421   0.185E-02    0.962E-02
RMM:  22    -0.692213329329E+03   -0.31073E-02   -0.10558E-04  8962   0.145E-02    0.717E-02
RMM:  23    -0.692215361139E+03   -0.20318E-02   -0.64609E-05  8470   0.115E-02    0.527E-02
RMM:  24    -0.692217038574E+03   -0.16774E-02   -0.68677E-05  8453   0.104E-02    0.451E-02
RMM:  25    -0.692217782398E+03   -0.74382E-03   -0.29501E-05  7610   0.835E-03    0.311E-02
RMM:  26    -0.692218577356E+03   -0.79496E-03   -0.29395E-05  7748   0.742E-03    0.237E-02
RMM:  27    -0.692218930026E+03   -0.35267E-03   -0.24035E-05  7398   0.673E-03    0.239E-02
RMM:  28    -0.692219063531E+03   -0.13351E-03   -0.97285E-06  6028   0.534E-03    0.176E-02
RMM:  29    -0.692219251069E+03   -0.18754E-03   -0.54020E-06  5059   0.393E-03    0.149E-02
RMM:  30    -0.692219473562E+03   -0.22249E-03   -0.57573E-06  5544   0.395E-03    0.143E-02
RMM:  31    -0.692219759120E+03   -0.28556E-03   -0.58541E-06  5697   0.389E-03    0.101E-02
RMM:  32    -0.692220063061E+03   -0.30394E-03   -0.34262E-06  5017   0.361E-03    0.968E-03
RMM:  33    -0.692220215983E+03   -0.15292E-03   -0.15206E-06  3704   0.311E-03    0.867E-03
RMM:  34    -0.692220395529E+03   -0.17955E-03   -0.10433E-06  3252   0.301E-03    0.857E-03
RMM:  35    -0.692220590571E+03   -0.19504E-03   -0.82029E-07  2969   0.296E-03    0.710E-03
RMM:  36    -0.692220800168E+03   -0.20960E-03   -0.85467E-07  2890   0.297E-03    0.549E-03
RMM:  37    -0.692220939853E+03   -0.13968E-03   -0.36783E-07  2311   0.285E-03    0.439E-03
RMM:  38    -0.692221091443E+03   -0.15159E-03   -0.17310E-07  2059   0.280E-03    0.465E-03
RMM:  39    -0.692221277164E+03   -0.18572E-03   -0.25778E-07  2145   0.282E-03    0.430E-03
RMM:  40    -0.692221547269E+03   -0.27011E-03   -0.91722E-07  2632   0.292E-03    0.341E-03
RMM:  41    -0.692221690110E+03   -0.14284E-03   -0.59973E-07  2344   0.282E-03    0.304E-03
RMM:  42    -0.692221855097E+03   -0.16499E-03   -0.94237E-07  2530   0.285E-03    0.276E-03
RMM:  43    -0.692222056696E+03   -0.20160E-03   -0.20173E-06  3009   0.294E-03    0.225E-03
RMM:  44    -0.692222187644E+03   -0.13095E-03   -0.17515E-06  2973   0.290E-03    0.201E-03
RMM:  45    -0.692222255440E+03   -0.67796E-04   -0.10047E-06  2698   0.283E-03
   3 F= -.69222226E+03 E0= -.69165066E+03  d E =-.264789E+00  mag=     3.9634
       N       E                     dE             d eps       ncg     rms          rms(c)
DAV:   1    -0.692368268487E+03   -0.14608E+00   -0.40857E+00 15616   0.250E+00    0.126E+00
RMM:   2    -0.692440943633E+03   -0.72675E-01   -0.16237E-01 14842   0.517E-01    0.414E+00
RMM:   3    -0.692443740797E+03   -0.27972E-02   -0.31417E-02 14896   0.299E-01    0.358E+00
RMM:   4    -0.692386164709E+03    0.57576E-01   -0.12159E-02 14869   0.207E-01    0.208E+00
RMM:   5    -0.692370438748E+03    0.15726E-01   -0.48998E-03 14686   0.137E-01    0.141E+00
RMM:   6    -0.692368452598E+03    0.19862E-02   -0.17992E-03 13935   0.710E-02    0.121E+00
RMM:   7    -0.692365417612E+03    0.30350E-02   -0.22581E-03 14661   0.661E-02    0.761E-01
RMM:   8    -0.692363746425E+03    0.16712E-02   -0.13557E-03 14248   0.529E-02    0.464E-01
RMM:   9    -0.692363330795E+03    0.41563E-03   -0.59721E-04 12592   0.384E-02    0.291E-01
RMM:  10    -0.692363265783E+03    0.65012E-04   -0.21007E-04  9692   0.260E-02
   4 F= -.69236327E+03 E0= -.69179133E+03  d E =-.405799E+00  mag=     3.9588
       N       E                     dE             d eps       ncg     rms          rms(c)
DAV:   1    -0.692380000868E+03   -0.16670E-01   -0.11243E+00 15536   0.132E+00    0.680E-01
RMM:   2    -0.692385485143E+03   -0.54843E-02   -0.47820E-02 14714   0.284E-01    0.145E+00
RMM:   3    -0.692383528504E+03    0.19566E-02   -0.66797E-03 14454   0.141E-01    0.849E-01
RMM:   4    -0.692403968702E+03   -0.20440E-01   -0.33133E-03 14646   0.921E-02    0.203E+00
RMM:   5    -0.692380532006E+03    0.23437E-01   -0.15979E-03 14210   0.809E-02    0.731E-01
RMM:   6    -0.692380002458E+03    0.52955E-03   -0.64747E-04 12682   0.448E-02    0.583E-01
RMM:   7    -0.692379133671E+03    0.86879E-03   -0.70649E-04 12050   0.380E-02    0.295E-01
RMM:   8    -0.692378998693E+03    0.13498E-03   -0.28314E-04 10654   0.281E-02    0.199E-01
RMM:   9    -0.692378978225E+03    0.20468E-04   -0.11325E-04  8575   0.200E-02
   5 F= -.69237898E+03 E0= -.69180625E+03  d E =-.421512E+00  mag=     3.9535
       N       E                     dE             d eps       ncg     rms          rms(c)
DAV:   1    -0.690281468403E+03    0.20975E+01   -0.17117E+02 14912   0.187E+01    0.526E+00
RMM:   2    -0.690943244648E+03   -0.66178E+00   -0.50807E+00 14850   0.342E+00    0.115E+01
RMM:   3    -0.691996590840E+03   -0.10533E+01   -0.89304E-01 15115   0.150E+00    0.164E+01
RMM:   4    -0.690620311071E+03    0.13763E+01   -0.26096E-01 14945   0.950E-01    0.657E+00
RMM:   5    -0.690396263819E+03    0.22405E+00   -0.94694E-02 14911   0.619E-01    0.417E+00
RMM:   6    -0.690311639485E+03    0.84624E-01   -0.85244E-02 15357   0.406E-01    0.314E+00
RMM:   7    -0.690332322382E+03   -0.20683E-01   -0.50950E-02 15635   0.318E-01    0.265E+00
RMM:   8    -0.690398786363E+03   -0.66464E-01   -0.38351E-02 15591   0.269E-01    0.269E+00
RMM:   9    -0.690410562310E+03   -0.11776E-01   -0.42414E-02 16160   0.252E-01    0.200E+00
RMM:  10    -0.690398993875E+03    0.11568E-01   -0.17549E-02 15874   0.198E-01    0.170E+00
RMM:  11    -0.690375871388E+03    0.23122E-01   -0.82663E-03 15132   0.152E-01    0.973E-01
RMM:  12    -0.690389124682E+03   -0.13253E-01   -0.29188E-03 14402   0.956E-02    0.716E-01
RMM:  13    -0.690411623141E+03   -0.22498E-01   -0.55108E-03 14929   0.923E-02    0.550E-01
RMM:  14    -0.690419097159E+03   -0.74740E-02   -0.39772E-03 15304   0.781E-02    0.387E-01
RMM:  15    -0.690420142068E+03   -0.10449E-02   -0.11839E-03 13736   0.507E-02    0.250E-01
RMM:  16    -0.690420033110E+03    0.10896E-03   -0.53207E-04 12219   0.357E-02    0.211E-01
RMM:  17    -0.690419705514E+03    0.32760E-03   -0.24989E-04 10176   0.251E-02    0.183E-01
RMM:  18    -0.690419559738E+03    0.14578E-03   -0.15233E-04  9298   0.195E-02    0.831E-02
RMM:  19    -0.690419759204E+03   -0.19947E-03   -0.61071E-05  8578   0.139E-02    0.510E-02
RMM:  20    -0.690419958232E+03   -0.19903E-03   -0.22062E-05  7905   0.877E-03    0.408E-02
RMM:  21    -0.690420355110E+03   -0.39688E-03   -0.11323E-05  6858   0.558E-03    0.424E-02
RMM:  22    -0.690420928056E+03   -0.57295E-03   -0.92643E-06  6320   0.470E-03    0.295E-02
RMM:  23    -0.690422167596E+03   -0.12395E-02   -0.29150E-05  7611   0.626E-03    0.232E-02
RMM:  24    -0.690423005498E+03   -0.83790E-03   -0.20182E-05  6687   0.511E-03    0.241E-02
RMM:  25    -0.690424072894E+03   -0.10674E-02   -0.25984E-05  7026   0.543E-03    0.228E-02
RMM:  26    -0.690424902128E+03   -0.82923E-03   -0.14399E-05  5548   0.447E-03    0.217E-02
RMM:  27    -0.690425855563E+03   -0.95343E-03   -0.18550E-05  6261   0.476E-03    0.187E-02
RMM:  28    -0.690426710021E+03   -0.85446E-03   -0.13425E-05  5605   0.451E-03    0.145E-02
RMM:  29    -0.690427195219E+03   -0.48520E-03   -0.68519E-06  4754   0.404E-03    0.138E-02
RMM:  30    -0.690427658084E+03   -0.46286E-03   -0.42104E-06  4192   0.352E-03    0.120E-02
RMM:  31    -0.690428567458E+03   -0.90937E-03   -0.59938E-06  4769   0.365E-03    0.110E-02
RMM:  32    -0.690429249619E+03   -0.68216E-03   -0.53930E-06  4853   0.366E-03    0.829E-03
RMM:  33    -0.690429767954E+03   -0.51833E-03   -0.33128E-06  4429   0.348E-03    0.786E-03
RMM:  34    -0.690430236831E+03   -0.46888E-03   -0.26460E-06  4150   0.326E-03    0.746E-03
RMM:  35    -0.690430560008E+03   -0.32318E-03   -0.17637E-06  3559   0.305E-03    0.703E-03
RMM:  36    -0.690430913175E+03   -0.35317E-03   -0.28626E-06  3917   0.314E-03    0.609E-03
RMM:  37    -0.690431095393E+03   -0.18222E-03   -0.17121E-06  3372   0.298E-03    0.404E-03
RMM:  38    -0.690431230373E+03   -0.13498E-03   -0.12955E-06  3029   0.289E-03    0.329E-03
RMM:  39    -0.690431342324E+03   -0.11195E-03   -0.14188E-06  3103   0.290E-03    0.243E-03
RMM:  40    -0.690431423346E+03   -0.81022E-04   -0.11847E-06  3035   0.288E-03
   6 F= -.69043142E+03 E0= -.68984846E+03  d E =0.194755E+01  mag=     3.7450
       N       E                     dE             d eps       ncg     rms          rms(c)
DAV:   1    -0.692428318495E+03   -0.19970E+01   -0.13468E+02 14944   0.167E+01    0.701E+00
RMM:   2    -0.694817951679E+03   -0.23896E+01   -0.75949E+00 14913   0.344E+00    0.170E+01
RMM:   3    -0.696841579238E+03   -0.20236E+01   -0.11512E+00 14946   0.188E+00    0.266E+01
RMM:   4    -0.692979136716E+03    0.38624E+01   -0.33055E-01 14897   0.112E+00    0.797E+00
RMM:   5    -0.692572059508E+03    0.40708E+00   -0.30426E-01 15193   0.773E-01    0.517E+00
RMM:   6    -0.692447077408E+03    0.12498E+00   -0.15210E-01 15644   0.545E-01    0.372E+00
RMM:   7    -0.692416465233E+03    0.30612E-01   -0.59390E-02 15939   0.331E-01    0.280E+00
RMM:   8    -0.692417507670E+03   -0.10424E-02   -0.26089E-02 15766   0.223E-01    0.264E+00
RMM:   9    -0.692411611354E+03    0.58963E-02   -0.32883E-02 16762   0.251E-01    0.201E+00
RMM:  10    -0.692393466535E+03    0.18145E-01   -0.19585E-02 16088   0.215E-01    0.138E+00
RMM:  11    -0.692383580498E+03    0.98860E-02   -0.45556E-03 14818   0.130E-01    0.779E-01
RMM:  12    -0.692380610386E+03    0.29701E-02   -0.21563E-03 14467   0.858E-02    0.668E-01
RMM:  13    -0.692378145240E+03    0.24651E-02   -0.17920E-03 14410   0.719E-02    0.638E-01
RMM:  14    -0.692375900171E+03    0.22451E-02   -0.78753E-04 13027   0.504E-02    0.228E-01
RMM:  15    -0.692376593159E+03   -0.69299E-03   -0.54715E-04 11897   0.318E-02    0.173E-01
RMM:  16    -0.692378445975E+03   -0.18528E-02   -0.26779E-04 10429   0.259E-02    0.136E-01
RMM:  17    -0.692379819082E+03   -0.13731E-02   -0.17784E-04  9558   0.199E-02    0.104E-01
RMM:  18    -0.692380438858E+03   -0.61978E-03   -0.10215E-04  8856   0.156E-02    0.755E-02
RMM:  19    -0.692380975113E+03   -0.53625E-03   -0.58039E-05  8412   0.125E-02    0.641E-02
RMM:  20    -0.692381677080E+03   -0.70197E-03   -0.35288E-05  8123   0.987E-03    0.426E-02
RMM:  21    -0.692382526191E+03   -0.84911E-03   -0.31407E-05  8039   0.827E-03    0.381E-02
RMM:  22    -0.692383307724E+03   -0.78153E-03   -0.25425E-05  7848   0.750E-03    0.350E-02
RMM:  23    -0.692384523959E+03   -0.12162E-02   -0.42450E-05  7899   0.792E-03    0.265E-02
RMM:  24    -0.692385311419E+03   -0.78746E-03   -0.23809E-05  6984   0.652E-03    0.261E-02
RMM:  25    -0.692385848795E+03   -0.53738E-03   -0.12556E-05  6215   0.543E-03    0.200E-02
RMM:  26    -0.692386796373E+03   -0.94758E-03   -0.16549E-05  6265   0.502E-03    0.189E-02
RMM:  27    -0.692387839230E+03   -0.10429E-02   -0.17578E-05  6348   0.501E-03    0.166E-02
RMM:  28    -0.692388485873E+03   -0.64664E-03   -0.93172E-06  5431   0.442E-03    0.157E-02
RMM:  29    -0.692389188847E+03   -0.70297E-03   -0.88430E-06  5336   0.413E-03    0.119E-02
RMM:  30    -0.692389863913E+03   -0.67507E-03   -0.56973E-06  4717   0.387E-03    0.119E-02
RMM:  31    -0.692390456956E+03   -0.59304E-03   -0.36086E-06  4097   0.349E-03    0.932E-03
RMM:  32    -0.692391217134E+03   -0.76018E-03   -0.26000E-06  3883   0.334E-03    0.813E-03
RMM:  33    -0.692392048306E+03   -0.83117E-03   -0.36123E-06  4569   0.341E-03    0.777E-03
RMM:  34    -0.692392566781E+03   -0.51847E-03   -0.19327E-06  3636   0.312E-03    0.711E-03
RMM:  35    -0.692393144017E+03   -0.57724E-03   -0.24530E-06  3751   0.310E-03    0.708E-03
RMM:  36    -0.692393539003E+03   -0.39499E-03   -0.21998E-06  3472   0.303E-03    0.565E-03
RMM:  37    -0.692393797248E+03   -0.25825E-03   -0.19444E-06  3339   0.301E-03    0.486E-03
RMM:  38    -0.692393983390E+03   -0.18614E-03   -0.15877E-06  3138   0.296E-03    0.396E-03
RMM:  39    -0.692394176392E+03   -0.19300E-03   -0.20836E-06  3339   0.301E-03    0.292E-03
RMM:  40    -0.692394369740E+03   -0.19335E-03   -0.23876E-06  3464   0.306E-03    0.270E-03
RMM:  41    -0.692394447499E+03   -0.77759E-04   -0.11155E-06  2933   0.297E-03
   7 F= -.69239445E+03 E0= -.69182027E+03  d E =-.154693E-01  mag=     3.9266
       N       E                     dE             d eps       ncg     rms          rms(c)
DAV:   1    -0.692404688654E+03   -0.10319E-01   -0.32812E-01 15520   0.818E-01    0.300E-01
RMM:   2    -0.692407775716E+03   -0.30871E-02   -0.11501E-02 14460   0.162E-01    0.933E-01
RMM:   3    -0.692408683765E+03   -0.90805E-03   -0.18913E-03 14113   0.801E-02    0.802E-01
RMM:   4    -0.692405008750E+03    0.36750E-02   -0.53414E-04 12363   0.451E-02    0.286E-01
RMM:   5    -0.692404941978E+03    0.66772E-04   -0.25836E-04  9720   0.292E-02    0.253E-01
RMM:   6    -0.692404860326E+03    0.81651E-04   -0.19035E-04  9081   0.221E-02    0.198E-01
RMM:   7    -0.692404775347E+03    0.84980E-04   -0.11505E-04  8446   0.184E-02    0.114E-01
RMM:   8    -0.692404758131E+03    0.17215E-04   -0.68471E-05  7988   0.146E-02
   8 F= -.69240476E+03 E0= -.69183103E+03  d E =-.257799E-01  mag=     3.9285
       N       E                     dE             d eps       ncg     rms          rms(c)
DAV:   1    -0.692107517862E+03    0.29726E+00   -0.17237E+01 15568   0.632E+00    0.177E+00
RMM:   2    -0.692377791751E+03   -0.27027E+00   -0.48931E-01 14851   0.114E+00    0.727E+00
RMM:   3    -0.692193896700E+03    0.18390E+00   -0.79257E-02 14936   0.520E-01    0.329E+00
RMM:   4    -0.692203281360E+03   -0.93847E-02   -0.30385E-02 14874   0.327E-01    0.360E+00
RMM:   5    -0.692146765124E+03    0.56516E-01   -0.12289E-02 14983   0.205E-01    0.210E+00
RMM:   6    -0.692136564318E+03    0.10201E-01   -0.64613E-03 15327   0.116E-01    0.149E+00
RMM:   7    -0.692127756497E+03    0.88078E-02   -0.37756E-03 14908   0.974E-02    0.831E-01
RMM:   8    -0.692127203754E+03    0.55274E-03   -0.29966E-03 15076   0.892E-02    0.594E-01
RMM:   9    -0.692126586758E+03    0.61700E-03   -0.12626E-03 13945   0.683E-02    0.459E-01
RMM:  10    -0.692126303455E+03    0.28330E-03   -0.35146E-04 11545   0.383E-02    0.365E-01
RMM:  11    -0.692126036507E+03    0.26695E-03   -0.13392E-04  9155   0.223E-02    0.268E-01
RMM:  12    -0.692125923032E+03    0.11348E-03   -0.75851E-05  8834   0.154E-02    0.197E-01
RMM:  13    -0.692125819161E+03    0.10387E-03   -0.61884E-05  8601   0.123E-02    0.912E-02
RMM:  14    -0.692125823360E+03   -0.41986E-05   -0.31162E-05  8132   0.105E-02
   9 F= -.69212582E+03 E0= -.69155118E+03  d E =0.278935E+00  mag=     3.9353
       N       E                     dE             d eps       ncg     rms          rms(c)
DAV:   1    -0.692394766807E+03   -0.26895E+00   -0.76130E+00 15296   0.415E+00    0.115E+00
RMM:   2    -0.692537958318E+03   -0.14319E+00   -0.19954E-01 14848   0.722E-01    0.495E+00
RMM:   3    -0.692420246449E+03    0.11771E+00   -0.32939E-02 14872   0.344E-01    0.182E+00
RMM:   4    -0.692426875191E+03   -0.66287E-02   -0.12578E-02 14889   0.210E-01    0.201E+00
RMM:   5    -0.692410882672E+03    0.15993E-01   -0.39936E-03 14666   0.127E-01    0.127E+00
RMM:   6    -0.692408354532E+03    0.25281E-02   -0.22035E-03 14520   0.735E-02    0.100E+00
RMM:   7    -0.692404381673E+03    0.39729E-02   -0.23562E-03 15158   0.745E-02    0.514E-01
RMM:   8    -0.692403690123E+03    0.69155E-03   -0.11550E-03 13956   0.566E-02    0.302E-01
RMM:   9    -0.692403578169E+03    0.11195E-03   -0.37366E-04 11935   0.381E-02    0.212E-01
RMM:  10    -0.692403546661E+03    0.31509E-04   -0.12830E-04  8982   0.226E-02
  10 F= -.69240355E+03 E0= -.69182987E+03  d E =0.121147E-02  mag=     3.9329
       N       E                     dE             d eps       ncg     rms          rms(c)
DAV:   1    -0.692422247226E+03   -0.18669E-01   -0.50397E-01 15472   0.108E+00    0.321E-01
RMM:   2    -0.692423723253E+03   -0.14760E-02   -0.13823E-02 14824   0.193E-01    0.516E-01
RMM:   3    -0.692424023660E+03   -0.30041E-03   -0.20619E-03 14410   0.865E-02    0.413E-01
RMM:   4    -0.692428337743E+03   -0.43141E-02   -0.87014E-04 13788   0.517E-02    0.941E-01
RMM:   5    -0.692423473805E+03    0.48639E-02   -0.29285E-04 10679   0.359E-02    0.350E-01
RMM:   6    -0.692423372229E+03    0.10158E-03   -0.17115E-04  9273   0.234E-02    0.285E-01
RMM:   7    -0.692423032757E+03    0.33947E-03   -0.13222E-04  8832   0.214E-02    0.941E-02
RMM:   8    -0.692423098035E+03   -0.65278E-04   -0.63961E-05  8457   0.151E-02
  11 F= -.69242310E+03 E0= -.69184934E+03  d E =-.183399E-01  mag=     3.9314
       N       E                     dE             d eps       ncg     rms          rms(c)
DAV:   1    -0.692355221485E+03    0.67811E-01   -0.57247E+00 15296   0.367E+00    0.907E-01
RMM:   2    -0.692433788975E+03   -0.78567E-01   -0.13360E-01 14848   0.673E-01    0.354E+00
RMM:   3    -0.692378044141E+03    0.55745E-01   -0.27870E-02 15164   0.291E-01    0.164E+00
RMM:   4    -0.692368726852E+03    0.93173E-02   -0.85365E-03 14976   0.174E-01    0.900E-01
RMM:   5    -0.692365250234E+03    0.34766E-02   -0.31157E-03 14770   0.103E-01    0.542E-01
RMM:   6    -0.692366451840E+03   -0.12016E-02   -0.22639E-03 14401   0.745E-02    0.705E-01
RMM:   7    -0.692363821421E+03    0.26304E-02   -0.11774E-03 13851   0.656E-02    0.319E-01
RMM:   8    -0.692363785923E+03    0.35497E-04   -0.89953E-04 13592   0.476E-02
  12 F= -.69236379E+03 E0= -.69179000E+03  d E =0.593121E-01  mag=     3.9299
       N       E                     dE             d eps       ncg     rms          rms(c)
DAV:   1    -0.692431361874E+03   -0.67540E-01   -0.28653E+00 15392   0.256E+00    0.628E-01
RMM:   2    -0.692443808432E+03   -0.12447E-01   -0.63097E-02 14848   0.463E-01    0.137E+00
RMM:   3    -0.692449036713E+03   -0.52283E-02   -0.12845E-02 15284   0.195E-01    0.151E+00
RMM:   4    -0.692441679351E+03    0.73574E-02   -0.41107E-03 14951   0.118E-01    0.102E+00
RMM:   5    -0.692436440623E+03    0.52387E-02   -0.17468E-03 14250   0.812E-02    0.490E-01
RMM:   6    -0.692436172941E+03    0.26768E-03   -0.10121E-03 13720   0.557E-02    0.410E-01
RMM:   7    -0.692435823016E+03    0.34992E-03   -0.67835E-04 13097   0.476E-02    0.283E-01
RMM:   8    -0.692435572711E+03    0.25031E-03   -0.35371E-04 11388   0.327E-02    0.209E-01
RMM:   9    -0.692435438434E+03    0.13428E-03   -0.17373E-04  9421   0.252E-02    0.128E-01
RMM:  10    -0.692435402804E+03    0.35631E-04   -0.50423E-05  8579   0.155E-02
  13 F= -.69243540E+03 E0= -.69186166E+03  d E =-.123048E-01  mag=     3.9284
       N       E                     dE             d eps       ncg     rms          rms(c)
DAV:   1    -0.692460258522E+03   -0.24820E-01   -0.18622E+00 15280   0.186E+00    0.406E-01
RMM:   2    -0.692466542671E+03   -0.62841E-02   -0.37256E-02 14848   0.315E-01    0.118E+00
RMM:   3    -0.692466544487E+03   -0.18157E-05   -0.75365E-03 16053   0.121E-01    0.995E-01
RMM:   4    -0.692463934561E+03    0.26099E-02   -0.18700E-03 13968   0.724E-02    0.571E-01
RMM:   5    -0.692464962850E+03   -0.10283E-02   -0.70146E-04 12972   0.450E-02    0.716E-01
RMM:   6    -0.692464009571E+03    0.95328E-03   -0.33102E-04 10596   0.326E-02    0.681E-01
RMM:   7    -0.692464389313E+03   -0.37974E-03   -0.94032E-04 13227   0.407E-02    0.655E-01
RMM:   8    -0.692463841540E+03    0.54777E-03   -0.59212E-04 12144   0.357E-02    0.524E-01
RMM:   9    -0.692463592716E+03    0.24882E-03   -0.10743E-04  8603   0.206E-02    0.452E-01
RMM:  10    -0.692463567462E+03    0.25254E-04   -0.36994E-05  8333   0.126E-02
  14 F= -.69246357E+03 E0= -.69188997E+03  d E =-.281647E-01  mag=     3.9256
       N       E                     dE             d eps       ncg     rms          rms(c)
DAV:   1    -0.692464861320E+03   -0.12686E-02   -0.37788E-02 15472   0.262E-01    0.405E-01
RMM:   2    -0.692465203818E+03   -0.34250E-03   -0.10065E-03 12538   0.519E-02    0.304E-01
RMM:   3    -0.692474135315E+03   -0.89315E-02   -0.13037E-03 13902   0.587E-02    0.120E+00
RMM:   4    -0.692469563044E+03    0.45723E-02   -0.11272E-03 13897   0.582E-02    0.968E-01
RMM:   5    -0.692464897170E+03    0.46659E-02   -0.47126E-04 12077   0.456E-02    0.238E-01
RMM:   6    -0.692464748764E+03    0.14841E-03   -0.17030E-04  8840   0.241E-02    0.132E-01
RMM:   7    -0.692464708945E+03    0.39819E-04   -0.64351E-05  8154   0.163E-02    0.721E-02
RMM:   8    -0.692464699632E+03    0.93131E-05   -0.16889E-05  7169   0.779E-03
  15 F= -.69246470E+03 E0= -.69189093E+03  d E =-.292968E-01  mag=     3.9243
       N       E                     dE             d eps       ncg     rms          rms(c)
DAV:   1    -0.692464810284E+03   -0.10134E-03   -0.17307E-03 14928   0.571E-02    0.367E-02
RMM:   2    -0.692465101172E+03   -0.29089E-03   -0.66672E-05  8017   0.134E-02    0.211E-01
RMM:   3    -0.692464857708E+03    0.24346E-03   -0.33562E-05  7970   0.121E-02    0.995E-02
RMM:   4    -0.692464825141E+03    0.32567E-04   -0.71040E-06  6855   0.615E-03    0.426E-02
RMM:   5    -0.692464820553E+03    0.45872E-05   -0.26692E-06  4763   0.347E-03    0.214E-02
RMM:   6    -0.692464821422E+03   -0.86857E-06   -0.21674E-06  4595   0.355E-03    0.253E-02
RMM:   7    -0.692464821666E+03   -0.24394E-06   -0.97517E-07  3414   0.310E-03    0.116E-02
RMM:   8    -0.692464823621E+03   -0.19552E-05   -0.53282E-08  1539   0.261E-03
  16 F= -.69246482E+03 E0= -.69189104E+03  d E =-.294208E-01  mag=     3.9230
       N       E                     dE             d eps       ncg     rms          rms(c)
DAV:   1    -0.692455828551E+03    0.89931E-02   -0.76598E-01 15232   0.130E+00    0.255E-01
RMM:   2    -0.692467970061E+03   -0.12142E-01   -0.17895E-02 14846   0.242E-01    0.148E+00
RMM:   3    -0.692457709824E+03    0.10260E-01   -0.29942E-03 14956   0.991E-02    0.563E-01
RMM:   4    -0.692461484717E+03   -0.37749E-02   -0.81986E-04 13657   0.532E-02    0.910E-01
RMM:   5    -0.692458210573E+03    0.32741E-02   -0.46394E-04 11474   0.374E-02    0.569E-01
RMM:   6    -0.692457510470E+03    0.70010E-03   -0.25917E-04 10190   0.262E-02    0.390E-01
RMM:   7    -0.692457265160E+03    0.24531E-03   -0.19924E-04  9492   0.240E-02    0.250E-01
RMM:   8    -0.692457274234E+03   -0.90737E-05   -0.95810E-05  8569   0.182E-02
  17 F= -.69245727E+03 E0= -.69188377E+03  d E =0.754939E-02  mag=     3.9212
       N       E                     dE             d eps       ncg     rms          rms(c)
DAV:   1    -0.692469870449E+03   -0.12605E-01   -0.30748E-01 15456   0.825E-01    0.240E-01
RMM:   2    -0.692489951269E+03   -0.20081E-01   -0.91175E-03 14842   0.164E-01    0.190E+00
RMM:   3    -0.692470768618E+03    0.19183E-01   -0.18211E-03 14482   0.869E-02    0.473E-01
RMM:   4    -0.692471149691E+03   -0.38107E-03   -0.52074E-04 12385   0.475E-02    0.451E-01
RMM:   5    -0.692470704019E+03    0.44567E-03   -0.19718E-04  9418   0.254E-02    0.359E-01
RMM:   6    -0.692470415347E+03    0.28867E-03   -0.13913E-04  8756   0.199E-02    0.266E-01
RMM:   7    -0.692470260460E+03    0.15489E-03   -0.69262E-05  8256   0.156E-02    0.165E-01
RMM:   8    -0.692470230833E+03    0.29626E-04   -0.68364E-05  8188   0.140E-02
  18 F= -.69247023E+03 E0= -.69189634E+03  d E =-.540721E-02  mag=     3.9214
       N       E                     dE             d eps       ncg     rms          rms(c)
DAV:   1    -0.692474853513E+03   -0.45931E-02   -0.23274E-01 15616   0.721E-01    0.147E-01
RMM:   2    -0.692481796381E+03   -0.69429E-02   -0.53249E-03 14848   0.151E-01    0.103E+00
RMM:   3    -0.692475323150E+03    0.64732E-02   -0.10700E-03 13976   0.625E-02    0.251E-01
RMM:   4    -0.692475625493E+03   -0.30234E-03   -0.33672E-04 11239   0.333E-02    0.272E-01
RMM:   5    -0.692475352885E+03    0.27261E-03   -0.12136E-04  8735   0.218E-02    0.161E-01
RMM:   6    -0.692475350517E+03    0.23684E-05   -0.88031E-05  8600   0.182E-02    0.120E-01
RMM:   7    -0.692475344828E+03    0.56888E-05   -0.70307E-05  8367   0.159E-02    0.869E-02
RMM:   8    -0.692475348604E+03   -0.37764E-05   -0.31528E-05  8062   0.112E-02
  19 F= -.69247535E+03 E0= -.69190171E+03  d E =-.511777E-02  mag=     3.9213
       N       E                     dE             d eps       ncg     rms          rms(c)
DAV:   1    -0.692475426206E+03   -0.81378E-04   -0.37491E-03 15312   0.940E-02    0.449E-02
RMM:   2    -0.692476852507E+03   -0.14263E-02   -0.23420E-04  9391   0.257E-02    0.455E-01
RMM:   3    -0.692475399028E+03    0.14535E-02   -0.86515E-05  8013   0.209E-02    0.896E-02
RMM:   4    -0.692475427804E+03   -0.28775E-04   -0.23539E-05  7830   0.976E-03    0.440E-02
RMM:   5    -0.692475435602E+03   -0.77984E-05   -0.65388E-06  6783   0.559E-03    0.304E-02
RMM:   6    -0.692475435781E+03   -0.17933E-06   -0.27260E-06  5020   0.361E-03    0.211E-02
RMM:   7    -0.692475444362E+03   -0.85809E-05   -0.25314E-06  5327   0.361E-03    0.249E-02
RMM:   8    -0.692475448487E+03   -0.41246E-05   -0.15995E-06  4225   0.338E-03
  20 F= -.69247545E+03 E0= -.69190180E+03  d E =-.521765E-02  mag=     3.9214
       N       E                     dE             d eps       ncg     rms          rms(c)
DAV:   1    -0.692476586499E+03   -0.11421E-02   -0.81477E-02 15536   0.412E-01    0.719E-02
RMM:   2    -0.692477185694E+03   -0.59920E-03   -0.15365E-03 14295   0.730E-02    0.295E-01
RMM:   3    -0.692476743381E+03    0.44231E-03   -0.33551E-04 10481   0.309E-02    0.120E-01
RMM:   4    -0.692476888843E+03   -0.14546E-03   -0.77166E-05  8283   0.180E-02    0.186E-01
RMM:   5    -0.692476741976E+03    0.14687E-03   -0.30205E-05  8020   0.114E-02    0.109E-01
RMM:   6    -0.692476710180E+03    0.31796E-04   -0.21086E-05  7719   0.819E-03    0.593E-02
RMM:   7    -0.692476714018E+03   -0.38385E-05   -0.13108E-05  7294   0.700E-03    0.382E-02
RMM:   8    -0.692476718530E+03   -0.45120E-05   -0.67194E-06  6670   0.523E-03
  21 F= -.69247672E+03 E0= -.69190317E+03  d E =-.127004E-02  mag=     3.9215
       N       E                     dE             d eps       ncg     rms          rms(c)
DAV:   1    -0.692476929952E+03   -0.21593E-03   -0.58407E-03 15424   0.111E-01    0.300E-02
RMM:   2    -0.692477559116E+03   -0.62916E-03   -0.16194E-04  8317   0.221E-02    0.316E-01
RMM:   3    -0.692476893758E+03    0.66536E-03   -0.47960E-05  7961   0.158E-02    0.352E-02
RMM:   4    -0.692476937514E+03   -0.43756E-04   -0.12091E-05  7449   0.710E-03    0.344E-02
RMM:   5    -0.692476943089E+03   -0.55753E-05   -0.33272E-06  5819   0.430E-03    0.267E-02
RMM:   6    -0.692476941821E+03    0.12684E-05   -0.10359E-06  3528   0.311E-03    0.190E-02
RMM:   7    -0.692476944036E+03   -0.22153E-05   -0.73344E-07  3032   0.303E-03    0.102E-02
RMM:   8    -0.692476946179E+03   -0.21433E-05   -0.15201E-06  3543   0.318E-03
  22 F= -.69247695E+03 E0= -.69190338E+03  d E =-.149769E-02  mag=     3.9217
       N       E                     dE             d eps       ncg     rms          rms(c)
DAV:   1    -0.692478720458E+03   -0.17764E-02   -0.33042E-02 15600   0.212E-01    0.510E-02
RMM:   2    -0.692479094508E+03   -0.37405E-03   -0.67111E-04 11628   0.428E-02    0.244E-01
RMM:   3    -0.692478749338E+03    0.34517E-03   -0.12058E-04  8518   0.201E-02    0.706E-02
RMM:   4    -0.692478784642E+03   -0.35304E-04   -0.36623E-05  7881   0.126E-02    0.735E-02
RMM:   5    -0.692478766219E+03    0.18423E-04   -0.17831E-05  7273   0.784E-03    0.551E-02
RMM:   6    -0.692478764594E+03    0.16251E-05   -0.17145E-05  7411   0.676E-03    0.540E-02
RMM:   7    -0.692478750860E+03    0.13734E-04   -0.10276E-05  6911   0.602E-03    0.272E-02
RMM:   8    -0.692478747167E+03    0.36926E-05   -0.41065E-06  5534   0.422E-03
  23 F= -.69247875E+03 E0= -.69190531E+03  d E =-.180099E-02  mag=     3.9220
       N       E                     dE             d eps       ncg     rms          rms(c)
DAV:   1    -0.692478995653E+03   -0.24479E-03   -0.17640E-01 15616   0.493E-01    0.119E-01
RMM:   2    -0.692479748524E+03   -0.75287E-03   -0.34737E-03 14283   0.978E-02    0.327E-01
RMM:   3    -0.692479716632E+03    0.31893E-04   -0.66650E-04 12407   0.418E-02    0.280E-01
RMM:   4    -0.692479401666E+03    0.31497E-03   -0.20061E-04  9131   0.258E-02    0.189E-01
RMM:   5    -0.692479277835E+03    0.12383E-03   -0.86645E-05  8439   0.193E-02    0.112E-01
RMM:   6    -0.692479230568E+03    0.47268E-04   -0.85035E-05  8351   0.139E-02    0.859E-02
RMM:   7    -0.692479202882E+03    0.27686E-04   -0.47577E-05  7985   0.126E-02    0.492E-02
RMM:   8    -0.692479190333E+03    0.12548E-04   -0.21473E-05  7464   0.887E-03
  24 F= -.69247919E+03 E0= -.69190600E+03  d E =-.224415E-02  mag=     3.9226
       N       E                     dE             d eps       ncg     rms          rms(c)
DAV:   1    -0.692479799559E+03   -0.59668E-03   -0.57358E-02 15600   0.282E-01    0.811E-02
RMM:   2    -0.692480404995E+03   -0.60544E-03   -0.11810E-03 12963   0.576E-02    0.318E-01
RMM:   3    -0.692480078575E+03    0.32642E-03   -0.23917E-04  9486   0.277E-02    0.201E-01
RMM:   4    -0.692479899592E+03    0.17898E-03   -0.91254E-05  8356   0.196E-02    0.960E-02
RMM:   5    -0.692479870822E+03    0.28771E-04   -0.28371E-05  7845   0.111E-02    0.522E-02
RMM:   6    -0.692479881860E+03   -0.11038E-04   -0.33449E-05  7754   0.913E-03    0.714E-02
RMM:   7    -0.692479869219E+03    0.12641E-04   -0.21793E-05  7354   0.833E-03    0.257E-02
RMM:   8    -0.692479875384E+03   -0.61649E-05   -0.10052E-05  6777   0.585E-03
  25 F= -.69247988E+03 E0= -.69190653E+03  d E =-.292920E-02  mag=     3.9231
       N       E                     dE             d eps       ncg     rms          rms(c)
DAV:   1    -0.692479980377E+03   -0.11116E-03   -0.10768E-02 15536   0.122E-01    0.364E-02
RMM:   2    -0.692480218695E+03   -0.23832E-03   -0.23401E-04  9115   0.258E-02    0.194E-01
RMM:   3    -0.692480004711E+03    0.21398E-03   -0.51738E-05  8039   0.146E-02    0.735E-02
RMM:   4    -0.692479999666E+03    0.50450E-05   -0.15443E-05  7403   0.846E-03    0.324E-02
RMM:   5    -0.692479996124E+03    0.35424E-05   -0.49758E-06  6093   0.478E-03    0.200E-02
RMM:   6    -0.692479997397E+03   -0.12727E-05   -0.71988E-06  6074   0.440E-03    0.323E-02
RMM:   7    -0.692479992362E+03    0.50346E-05   -0.27699E-06  4916   0.383E-03    0.958E-03
RMM:   8    -0.692479991069E+03    0.12932E-05   -0.13097E-06  2937   0.298E-03
  26 F= -.69247999E+03 E0= -.69190671E+03  d E =-.304489E-02  mag=     3.9235
       N       E                     dE             d eps       ncg     rms          rms(c)
DAV:   1    -0.692480444963E+03   -0.45260E-03   -0.23735E-03 15408   0.524E-02    0.162E-02
RMM:   2    -0.692480461621E+03   -0.16658E-04   -0.48326E-05  7659   0.115E-02    0.478E-02
RMM:   3    -0.692480456286E+03    0.53344E-05   -0.89436E-06  6679   0.611E-03    0.358E-02
RMM:   4    -0.692480451570E+03    0.47168E-05   -0.24384E-06  4769   0.367E-03    0.234E-02
RMM:   5    -0.692480449313E+03    0.22568E-05   -0.74368E-07  2722   0.295E-03    0.769E-03
RMM:   6    -0.692480450029E+03   -0.71613E-06   -0.96591E-07  2725   0.303E-03    0.993E-03
RMM:   7    -0.692480449286E+03    0.74277E-06   -0.42651E-07  1990   0.284E-03    0.692E-03
RMM:   8    -0.692480449243E+03    0.43030E-07   -0.40816E-07  1790   0.279E-03
  27 F= -.69248045E+03 E0= -.69190720E+03  d E =-.458174E-03  mag=     3.9240
       N       E                     dE             d eps       ncg     rms          rms(c)
DAV:   1    -0.692480966606E+03   -0.51732E-03   -0.21330E-02 15360   0.156E-01    0.490E-02
RMM:   2    -0.692481007193E+03   -0.40587E-04   -0.41597E-04 10353   0.335E-02    0.556E-02
RMM:   3    -0.692481160311E+03   -0.15312E-03   -0.74302E-05  8123   0.155E-02    0.166E-01
RMM:   4    -0.692480984161E+03    0.17615E-03   -0.24161E-05  7659   0.106E-02    0.344E-02
RMM:   5    -0.692480999632E+03   -0.15470E-04   -0.13893E-05  7094   0.667E-03    0.445E-02
RMM:   6    -0.692480991091E+03    0.85402E-05   -0.10978E-05  6977   0.624E-03    0.271E-02
RMM:   7    -0.692480985307E+03    0.57842E-05   -0.55578E-06  6266   0.468E-03    0.122E-02
RMM:   8    -0.692480982782E+03    0.25249E-05   -0.11020E-06  3170   0.309E-03
  28 F= -.69248098E+03 E0= -.69190784E+03  d E =-.991713E-03  mag=     3.9247
       N       E                     dE             d eps       ncg     rms          rms(c)
DAV:   1    -0.692481699237E+03   -0.71393E-03   -0.14888E-03 15248   0.538E-02    0.176E-02
RMM:   2    -0.692481712813E+03   -0.13576E-04   -0.49810E-05  7850   0.111E-02    0.583E-02
RMM:   3    -0.692481710045E+03    0.27681E-05   -0.85564E-06  6886   0.649E-03    0.506E-02
RMM:   4    -0.692481697612E+03    0.12432E-04   -0.93797E-07  3169   0.301E-03    0.176E-02
RMM:   5    -0.692481701499E+03   -0.38860E-05   -0.63349E-07  2369   0.282E-03    0.305E-02
RMM:   6    -0.692481700026E+03    0.14721E-05   -0.10878E-06  2650   0.286E-03    0.201E-02
RMM:   7    -0.692481699898E+03    0.12814E-06   -0.80726E-07  2336   0.281E-03    0.712E-03
RMM:   8    -0.692481700632E+03   -0.73368E-06   -0.26960E-07  1788   0.265E-03
  29 F= -.69248170E+03 E0= -.69190856E+03  d E =-.717850E-03  mag=     3.9254
       N       E                     dE             d eps       ncg     rms          rms(c)
DAV:   1    -0.692482824561E+03   -0.11247E-02   -0.13294E-02 15392   0.160E-01    0.518E-02
RMM:   2    -0.692482937235E+03   -0.11267E-03   -0.44166E-04  9566   0.319E-02    0.177E-01
RMM:   3    -0.692482888143E+03    0.49092E-04   -0.66121E-05  8004   0.154E-02    0.106E-01
RMM:   4    -0.692482943892E+03   -0.55749E-04   -0.25949E-05  7695   0.967E-03    0.148E-01
RMM:   5    -0.692482855060E+03    0.88832E-04   -0.15435E-05  7136   0.774E-03    0.880E-02
RMM:   6    -0.692482836123E+03    0.18937E-04   -0.79571E-06  5840   0.510E-03    0.574E-02
RMM:   7    -0.692482829898E+03    0.62253E-05   -0.62242E-06  5532   0.453E-03    0.245E-02
RMM:   8    -0.692482831518E+03   -0.16204E-05   -0.30364E-06  4828   0.384E-03
  30 F= -.69248283E+03 E0= -.69190970E+03  d E =-.184874E-02  mag=     3.9262
       N       E                     dE             d eps       ncg     rms          rms(c)
DAV:   1    -0.692482876674E+03   -0.46776E-04   -0.80706E-04 14944   0.399E-02    0.201E-02
RMM:   2    -0.692482897669E+03   -0.20995E-04   -0.30496E-05  7575   0.880E-03    0.563E-02
RMM:   3    -0.692482912551E+03   -0.14882E-04   -0.90531E-06  6860   0.625E-03    0.772E-02
RMM:   4    -0.692482882557E+03    0.29994E-04   -0.19384E-06  5081   0.375E-03    0.288E-02
RMM:   5    -0.692482881314E+03    0.12438E-05   -0.33151E-07  1771   0.252E-03    0.196E-02
RMM:   6    -0.692482883286E+03   -0.19725E-05   -0.43260E-07  1783   0.254E-03    0.114E-02
RMM:   7    -0.692482885948E+03   -0.26615E-05   -0.15567E-07  1793   0.256E-03    0.128E-02
RMM:   8    -0.692482886381E+03   -0.43342E-06   -0.39377E-09  1362   0.242E-03
  31 F= -.69248289E+03 E0= -.69190976E+03  d E =-.190360E-02  mag=     3.9268
       N       E                     dE             d eps       ncg     rms          rms(c)
DAV:   1    -0.692483033265E+03   -0.14732E-03   -0.38920E-04 14608   0.288E-02    0.733E-03
RMM:   2    -0.692483037288E+03   -0.40235E-05   -0.92120E-06  7615   0.613E-03    0.195E-02
RMM:   3    -0.692483037044E+03    0.24420E-06   -0.11796E-06  4078   0.334E-03    0.153E-02
RMM:   4    -0.692483036341E+03    0.70274E-06   -0.10077E-08  1166   0.238E-03    0.923E-03
RMM:   5    -0.692483039796E+03   -0.34551E-05   -0.32329E-08  1131   0.243E-03    0.211E-02
RMM:   6    -0.692483040350E+03   -0.55425E-06   -0.84464E-08  1333   0.246E-03    0.170E-02
RMM:   7    -0.692483042571E+03   -0.22203E-05   -0.10882E-07  1271   0.247E-03    0.128E-02
RMM:   8    -0.692483044146E+03   -0.15751E-05   -0.16779E-08  1097   0.243E-03
  32 F= -.69248304E+03 E0= -.69190993E+03  d E =-.157765E-03  mag=     3.9273
       N       E                     dE             d eps       ncg     rms          rms(c)
DAV:   1    -0.692483299988E+03   -0.25742E-03   -0.34677E-03 15392   0.856E-02    0.170E-02
RMM:   2    -0.692483309377E+03   -0.93893E-05   -0.69689E-05  7952   0.166E-02    0.389E-02
RMM:   3    -0.692483309209E+03    0.16789E-06   -0.12110E-05  7647   0.766E-03    0.235E-02
RMM:   4    -0.692483330362E+03   -0.21153E-04   -0.40681E-06  5797   0.409E-03    0.630E-02
RMM:   5    -0.692483311599E+03    0.18763E-04   -0.16883E-06  4768   0.351E-03    0.281E-02
RMM:   6    -0.692483310712E+03    0.88698E-06   -0.21980E-07  2013   0.263E-03    0.142E-02
RMM:   7    -0.692483312670E+03   -0.19585E-05   -0.30809E-07  2161   0.268E-03    0.117E-02
RMM:   8    -0.692483313425E+03   -0.75469E-06   -0.21312E-07  1863   0.271E-03
  33 F= -.69248331E+03 E0= -.69191018E+03  d E =-.427044E-03  mag=     3.9277
       N       E                     dE             d eps       ncg     rms          rms(c)
DAV:   1    -0.692483345578E+03   -0.32907E-04   -0.86408E-04 14992   0.428E-02    0.103E-02
RMM:   2    -0.692483350938E+03   -0.53606E-05   -0.18576E-05  7808   0.871E-03    0.242E-02
RMM:   3    -0.692483349966E+03    0.97211E-06   -0.31325E-06  6020   0.418E-03    0.151E-02
RMM:   4    -0.692483353676E+03   -0.37094E-05   -0.32786E-07  2490   0.271E-03    0.272E-02
RMM:   5    -0.692483351147E+03    0.25284E-05   -0.94066E-08  1540   0.253E-03    0.109E-02
RMM:   6    -0.692483352592E+03   -0.14448E-05   -0.49766E-08  1362   0.252E-03    0.840E-03
RMM:   7    -0.692483354134E+03   -0.15426E-05   -0.29398E-08  1249   0.252E-03    0.518E-03
RMM:   8    -0.692483355049E+03   -0.91456E-06   -0.64264E-09  1065   0.249E-03
  34 F= -.69248336E+03 E0= -.69191023E+03  d E =-.468668E-03  mag=     3.9280
       N       E                     dE             d eps       ncg     rms          rms(c)
DAV:   1    -0.692483440466E+03   -0.86332E-04   -0.65426E-04 14880   0.339E-02    0.971E-03
RMM:   2    -0.692483443409E+03   -0.29427E-05   -0.16387E-05  7651   0.740E-03    0.205E-02
RMM:   3    -0.692483444591E+03   -0.11816E-05   -0.27251E-06  5391   0.410E-03    0.208E-02
RMM:   4    -0.692483442974E+03    0.16165E-05   -0.78198E-08  1548   0.241E-03    0.113E-02
RMM:   5    -0.692483443277E+03   -0.30259E-06   -0.81370E-08  1438   0.239E-03    0.114E-02
RMM:   6    -0.692483443842E+03   -0.56520E-06   -0.61644E-08  1142   0.240E-03    0.995E-03
RMM:   7    -0.692483444967E+03   -0.11249E-05   -0.14734E-07  1228   0.248E-03    0.845E-03
RMM:   8    -0.692483445952E+03   -0.98560E-06   -0.10030E-07  1133   0.251E-03
  35 F= -.69248345E+03 E0= -.69191034E+03  d E =-.909034E-04  mag=     3.9282
       N       E                     dE             d eps       ncg     rms          rms(c)
DAV:   1    -0.692483535016E+03   -0.90049E-04   -0.44931E-03 15456   0.891E-02    0.248E-02
RMM:   2    -0.692483554150E+03   -0.19133E-04   -0.10809E-04  8187   0.186E-02    0.626E-02
RMM:   3    -0.692483566788E+03   -0.12638E-04   -0.21891E-05  7849   0.971E-03    0.721E-02
RMM:   4    -0.692483542074E+03    0.24714E-04   -0.66422E-06  6653   0.534E-03    0.365E-02
RMM:   5    -0.692483539797E+03    0.22771E-05   -0.28356E-06  5084   0.383E-03    0.224E-02
RMM:   6    -0.692483538566E+03    0.12306E-05   -0.94354E-07  2972   0.302E-03    0.128E-02
RMM:   7    -0.692483539687E+03   -0.11203E-05   -0.14600E-06  3305   0.315E-03    0.108E-02
RMM:   8    -0.692483540217E+03   -0.53078E-06   -0.61561E-07  2389   0.293E-03
  36 F= -.69248354E+03 E0= -.69191047E+03  d E =-.185168E-03  mag=     3.9284
       N       E                     dE             d eps       ncg     rms          rms(c)
DAV:   1    -0.692483617035E+03   -0.77348E-04   -0.83876E-04 15008   0.327E-02    0.115E-02
RMM:   2    -0.692483634869E+03   -0.17835E-04   -0.20647E-05  7405   0.759E-03    0.568E-02
RMM:   3    -0.692483618119E+03    0.16750E-04   -0.40137E-06  5915   0.460E-03    0.220E-02
RMM:   4    -0.692483619772E+03   -0.16526E-05   -0.28965E-07  2146   0.261E-03    0.162E-02
RMM:   5    -0.692483619495E+03    0.27705E-06   -0.28315E-07  1627   0.252E-03    0.121E-02
RMM:   6    -0.692483620111E+03   -0.61588E-06   -0.49032E-07  2009   0.276E-03    0.115E-02
RMM:   7    -0.692483620247E+03   -0.13588E-06   -0.46282E-07  1898   0.282E-03    0.401E-03
RMM:   8    -0.692483620834E+03   -0.58726E-06   -0.14385E-07  1320   0.269E-03
  37 F= -.69248362E+03 E0= -.69191057E+03  d E =-.806166E-04  mag=     3.9286
       N       E                     dE             d eps       ncg     rms          rms(c)
DAV:   1    -0.692483737113E+03   -0.11687E-03   -0.74622E-03 15424   0.964E-02    0.309E-02
RMM:   2    -0.692483757143E+03   -0.20030E-04   -0.15475E-04  8626   0.209E-02    0.709E-02
RMM:   3    -0.692483745743E+03    0.11400E-04   -0.25355E-05  7484   0.102E-02    0.333E-02
RMM:   4    -0.692483837208E+03   -0.91465E-04   -0.12363E-05  6840   0.606E-03    0.128E-01
RMM:   5    -0.692483733573E+03    0.10363E-03   -0.81255E-06  6772   0.594E-03    0.390E-02
RMM:   6    -0.692483740838E+03   -0.72651E-05   -0.51645E-06  5738   0.431E-03    0.240E-02
RMM:   7    -0.692483741075E+03   -0.23657E-06   -0.40491E-06  5564   0.400E-03    0.113E-02
RMM:   8    -0.692483740571E+03    0.50433E-06   -0.60624E-07  2634   0.299E-03
  38 F= -.69248374E+03 E0= -.69191074E+03  d E =-.200353E-03  mag=     3.9289
       N       E                     dE             d eps       ncg     rms          rms(c)
DAV:   1    -0.692483826912E+03   -0.85837E-04   -0.13625E-03 15232   0.460E-02    0.169E-02
RMM:   2    -0.692483862079E+03   -0.35168E-04   -0.32356E-05  7889   0.104E-02    0.731E-02
RMM:   3    -0.692483832955E+03    0.29125E-04   -0.85507E-06  7021   0.622E-03    0.403E-02
RMM:   4    -0.692483830210E+03    0.27445E-05   -0.22679E-06  5301   0.374E-03    0.167E-02
RMM:   5    -0.692483829590E+03    0.62006E-06   -0.22023E-07  1957   0.262E-03    0.748E-03
RMM:   6    -0.692483830382E+03   -0.79135E-06   -0.14301E-07  1652   0.263E-03    0.974E-03
RMM:   7    -0.692483830556E+03   -0.17462E-06   -0.35006E-08  1277   0.257E-03    0.692E-03
RMM:   8    -0.692483830983E+03   -0.42673E-06   -0.18162E-07  1436   0.273E-03
  39 F= -.69248383E+03 E0= -.69191085E+03  d E =-.904123E-04  mag=     3.9291
       N       E                     dE             d eps       ncg     rms          rms(c)
DAV:   1    -0.692483877661E+03   -0.47105E-04   -0.28568E-03 15280   0.662E-02    0.167E-02
RMM:   2    -0.692483909232E+03   -0.31570E-04   -0.59565E-05  7983   0.143E-02    0.677E-02
RMM:   3    -0.692483880204E+03    0.29027E-04   -0.11667E-05  7314   0.737E-03    0.282E-02
RMM:   4    -0.692483882132E+03   -0.19273E-05   -0.29282E-06  5378   0.389E-03    0.155E-02
RMM:   5    -0.692483882092E+03    0.39669E-07   -0.88154E-07  3019   0.307E-03    0.152E-02
RMM:   6    -0.692483882072E+03    0.19798E-07   -0.84336E-07  2771   0.304E-03    0.130E-02
RMM:   7    -0.692483881302E+03    0.77073E-06   -0.84761E-07  2681   0.303E-03    0.639E-03
RMM:   8    -0.692483881162E+03    0.13999E-06   -0.28683E-07  1786   0.282E-03
  40 F= -.69248388E+03 E0= -.69191092E+03  d E =-.140591E-03  mag=     3.9293
