       N       E                     dE             d eps       ncg     rms          rms(c)
DAV:   1     0.927040666055E+04    0.92704E+04   -0.35195E+05 22928   0.123E+03
DAV:   2     0.932853173873E+03   -0.83376E+04   -0.76053E+04 29088   0.334E+02
DAV:   3    -0.881457800196E+03   -0.18143E+04   -0.17828E+04 26192   0.165E+02
DAV:   4    -0.976234471469E+03   -0.94777E+02   -0.94098E+02 29104   0.454E+01
DAV:   5    -0.980929186162E+03   -0.46947E+01   -0.46848E+01 36272   0.860E+00    0.171E+02
RMM:   6    -0.107637839615E+04   -0.95449E+02   -0.29632E+03 25726   0.107E+02    0.374E+02
RMM:   7    -0.813030838676E+03    0.26335E+03   -0.36036E+02 22787   0.359E+01    0.195E+02
RMM:   8    -0.117473997583E+04   -0.36171E+03   -0.27467E+02 23294   0.244E+01    0.229E+02
RMM:   9    -0.834893792439E+03    0.33985E+03   -0.19958E+02 23140   0.240E+01    0.134E+02
RMM:  10    -0.747712455478E+03    0.87181E+02   -0.51935E+01 23047   0.126E+01    0.927E+01
RMM:  11    -0.739005917208E+03    0.87065E+01   -0.55995E+01 23206   0.126E+01    0.910E+01
RMM:  12    -0.719593827570E+03    0.19412E+02   -0.30370E+01 23128   0.928E+00    0.848E+01
RMM:  13    -0.697960263979E+03    0.21634E+02   -0.13645E+01 23081   0.697E+00    0.524E+01
RMM:  14    -0.700704208554E+03   -0.27439E+01   -0.14154E+01 24145   0.505E+00    0.500E+01
RMM:  15    -0.698086283967E+03    0.26179E+01   -0.61790E+00 23300   0.414E+00    0.422E+01
RMM:  16    -0.698450025606E+03   -0.36374E+00   -0.78563E+00 24397   0.438E+00    0.382E+01
RMM:  17    -0.697281416751E+03    0.11686E+01   -0.68454E+00 24763   0.439E+00    0.321E+01
RMM:  18    -0.694603210743E+03    0.26782E+01   -0.39427E+00 24365   0.324E+00    0.232E+01
RMM:  19    -0.693368104023E+03    0.12351E+01   -0.18608E+00 24377   0.222E+00    0.170E+01
RMM:  20    -0.693294191828E+03    0.73912E-01   -0.79764E-01 26772   0.129E+00    0.143E+01
RMM:  21    -0.693495372342E+03   -0.20118E+00   -0.36982E-01 28035   0.879E-01    0.133E+01
RMM:  22    -0.693843816224E+03   -0.34844E+00   -0.36724E-01 25726   0.943E-01    0.129E+01
RMM:  23    -0.693928820955E+03   -0.85005E-01   -0.47762E-01 27213   0.105E+00    0.114E+01
RMM:  24    -0.693896131262E+03    0.32690E-01   -0.36049E-01 27340   0.936E-01    0.851E+00
RMM:  25    -0.693824381378E+03    0.71750E-01   -0.29484E-01 27064   0.797E-01    0.680E+00
RMM:  26    -0.693751819561E+03    0.72562E-01   -0.15551E-01 25458   0.571E-01    0.584E+00
RMM:  27    -0.693680272122E+03    0.71547E-01   -0.12044E-01 25692   0.469E-01    0.531E+00
RMM:  28    -0.693542323243E+03    0.13795E+00   -0.91265E-02 26038   0.400E-01    0.439E+00
RMM:  29    -0.693459078470E+03    0.83245E-01   -0.40565E-02 24379   0.315E-01    0.348E+00
RMM:  30    -0.693421714140E+03    0.37364E-01   -0.28984E-02 25007   0.255E-01    0.271E+00
RMM:  31    -0.693416232704E+03    0.54814E-02   -0.16768E-02 25746   0.184E-01    0.229E+00
RMM:  32    -0.693433295391E+03   -0.17063E-01   -0.12474E-02 25705   0.156E-01    0.209E+00
RMM:  33    -0.693445806367E+03   -0.12511E-01   -0.21702E-02 27446   0.193E-01    0.182E+00
RMM:  34    -0.693395352097E+03    0.50454E-01   -0.17605E-02 28104   0.179E-01    0.154E+00
RMM:  35    -0.693345333456E+03    0.50019E-01   -0.79276E-03 25701   0.130E-01    0.134E+00
RMM:  36    -0.693315115794E+03    0.30218E-01   -0.39765E-03 24301   0.924E-02    0.123E+00
RMM:  37    -0.693286223283E+03    0.28893E-01   -0.26755E-03 23945   0.672E-02    0.113E+00
RMM:  38    -0.693264586160E+03    0.21637E-01   -0.13547E-03 23038   0.456E-02    0.107E+00
RMM:  39    -0.693243006613E+03    0.21580E-01   -0.15462E-03 23102   0.469E-02    0.104E+00
RMM:  40    -0.693182800043E+03    0.60207E-01   -0.48878E-03 28063   0.730E-02    0.984E-01
RMM:  41    -0.693064437726E+03    0.11836E+00   -0.11627E-02 30918   0.105E-01    0.964E-01
RMM:  42    -0.692887514425E+03    0.17692E+00   -0.11940E-02 30554   0.105E-01    0.956E-01
RMM:  43    -0.692708696409E+03    0.17882E+00   -0.69067E-03 29368   0.826E-02    0.975E-01
RMM:  44    -0.692449189625E+03    0.25951E+00   -0.91540E-03 31027   0.940E-02    0.976E-01
RMM:  45    -0.692166132414E+03    0.28306E+00   -0.93569E-03 31960   0.100E-01    0.922E-01
RMM:  46    -0.691913588134E+03    0.25254E+00   -0.97119E-03 31999   0.103E-01    0.832E-01
RMM:  47    -0.691852950218E+03    0.60638E-01   -0.40793E-03 29755   0.725E-02    0.763E-01
RMM:  48    -0.691847015110E+03    0.59351E-02   -0.31882E-03 28707   0.681E-02    0.715E-01
RMM:  49    -0.691844050821E+03    0.29643E-02   -0.18202E-03 25637   0.530E-02    0.657E-01
RMM:  50    -0.691854610074E+03   -0.10559E-01   -0.10483E-03 21685   0.434E-02    0.602E-01
RMM:  51    -0.691805196488E+03    0.49414E-01   -0.31834E-03 28975   0.792E-02    0.510E-01
RMM:  52    -0.691846964217E+03   -0.41768E-01   -0.53272E-04 18385   0.347E-02    0.468E-01
RMM:  53    -0.691917322286E+03   -0.70358E-01   -0.11663E-03 20849   0.409E-02    0.471E-01
RMM:  54    -0.691964988409E+03   -0.47666E-01   -0.16052E-03 22328   0.439E-02    0.454E-01
RMM:  55    -0.692001844732E+03   -0.36856E-01   -0.13510E-03 21595   0.433E-02    0.419E-01
RMM:  56    -0.692115697849E+03   -0.11385E+00   -0.16438E-03 22445   0.612E-02    0.428E-01
RMM:  57    -0.692107515733E+03    0.81821E-02   -0.87034E-04 19297   0.386E-02    0.360E-01
RMM:  58    -0.692167610911E+03   -0.60095E-01   -0.16350E-03 21911   0.473E-02    0.331E-01
RMM:  59    -0.692397003659E+03   -0.22939E+00   -0.18687E-03 22269   0.463E-02    0.300E-01
RMM:  60    -0.692760372660E+03   -0.36337E+00   -0.18983E-03 21864   0.459E-02    0.277E-01
RMM:  61    -0.692950340839E+03   -0.18997E+00   -0.88904E-04 19447   0.353E-02    0.243E-01
RMM:  62    -0.693106558378E+03   -0.15622E+00   -0.10906E-03 19726   0.371E-02    0.222E-01
RMM:  63    -0.693271109818E+03   -0.16455E+00   -0.20781E-03 21277   0.440E-02    0.195E-01
RMM:  64    -0.693404394722E+03   -0.13328E+00   -0.24213E-03 20936   0.441E-02    0.160E-01
RMM:  65    -0.693508583643E+03   -0.10419E+00   -0.30164E-03 21533   0.443E-02    0.143E-01
RMM:  66    -0.693569965879E+03   -0.61382E-01   -0.63527E-04 17552   0.299E-02    0.121E-01
RMM:  67    -0.693623090679E+03   -0.53125E-01   -0.43801E-04 16408   0.263E-02    0.105E-01
RMM:  68    -0.693652046236E+03   -0.28956E-01   -0.21908E-04 14448   0.201E-02    0.885E-02
RMM:  69    -0.693671992284E+03   -0.19946E-01   -0.16730E-04 13598   0.169E-02    0.822E-02
RMM:  70    -0.693684851718E+03   -0.12859E-01   -0.12938E-04 13113   0.147E-02    0.748E-02
RMM:  71    -0.693695951032E+03   -0.11099E-01   -0.11999E-04 12907   0.138E-02    0.691E-02
RMM:  72    -0.693707860141E+03   -0.11909E-01   -0.83366E-05 12309   0.119E-02    0.637E-02
RMM:  73    -0.693720688478E+03   -0.12828E-01   -0.54205E-05 11969   0.107E-02    0.608E-02
RMM:  74    -0.693730678922E+03   -0.99904E-02   -0.29582E-05 11212   0.850E-03    0.536E-02
RMM:  75    -0.693740916594E+03   -0.10238E-01   -0.19150E-05 11368   0.653E-03    0.487E-02
RMM:  76    -0.693749759030E+03   -0.88424E-02   -0.17442E-05 11081   0.614E-03    0.479E-02
RMM:  77    -0.693756036883E+03   -0.62779E-02   -0.12308E-05 10414   0.557E-03    0.440E-02
RMM:  78    -0.693761587693E+03   -0.55508E-02   -0.18518E-05 10223   0.475E-03    0.430E-02
RMM:  79    -0.693767612750E+03   -0.60251E-02   -0.19293E-05 10357   0.472E-03    0.412E-02
RMM:  80    -0.693773655145E+03   -0.60424E-02   -0.30365E-05  9721   0.469E-03
   1 F= -.69377366E+03 E0= -.69336332E+03  d E =-.693774E+03  mag=    82.2332
       N       E                     dE             d eps       ncg     rms          rms(c)
DAV:   1    -0.682155766463E+03    0.11612E+02   -0.18443E+03 23312   0.601E+01    0.151E+01
RMM:   2    -0.690009794571E+03   -0.78540E+01   -0.76144E+01 22412   0.136E+01    0.179E+01
RMM:   3    -0.690098925810E+03   -0.89131E-01   -0.11980E+01 23259   0.584E+00    0.127E+01
RMM:   4    -0.689426502337E+03    0.67242E+00   -0.25194E+00 25528   0.262E+00    0.707E+00
RMM:   5    -0.689386548522E+03    0.39954E-01   -0.78617E-01 25051   0.141E+00    0.617E+00
RMM:   6    -0.689303999921E+03    0.82549E-01   -0.27687E-01 26280   0.832E-01    0.338E+00
RMM:   7    -0.689372285397E+03   -0.68285E-01   -0.30896E-01 24971   0.834E-01    0.474E+00
RMM:   8    -0.689325066945E+03    0.47218E-01   -0.20315E-01 24841   0.717E-01    0.262E+00
RMM:   9    -0.689317622791E+03    0.74442E-02   -0.10933E-01 26828   0.487E-01    0.179E+00
RMM:  10    -0.689309951765E+03    0.76710E-02   -0.35935E-02 28369   0.309E-01    0.943E-01
RMM:  11    -0.689302368438E+03    0.75833E-02   -0.15205E-02 32123   0.174E-01    0.682E-01
RMM:  12    -0.689294996808E+03    0.73716E-02   -0.82754E-03 31709   0.122E-01    0.544E-01
RMM:  13    -0.689290873044E+03    0.41238E-02   -0.51110E-03 30358   0.101E-01    0.379E-01
RMM:  14    -0.689288987686E+03    0.18854E-02   -0.25932E-03 29789   0.705E-02    0.254E-01
RMM:  15    -0.689289671307E+03   -0.68362E-03   -0.13597E-03 29267   0.479E-02    0.196E-01
RMM:  16    -0.689291928486E+03   -0.22572E-02   -0.84120E-04 28201   0.363E-02    0.165E-01
RMM:  17    -0.689294511293E+03   -0.25828E-02   -0.55830E-04 26139   0.302E-02    0.146E-01
RMM:  18    -0.689296680473E+03   -0.21692E-02   -0.41133E-04 23349   0.259E-02    0.133E-01
RMM:  19    -0.689298608904E+03   -0.19284E-02   -0.34797E-04 20740   0.235E-02    0.122E-01
RMM:  20    -0.689299855448E+03   -0.12465E-02   -0.28653E-04 18054   0.215E-02    0.114E-01
RMM:  21    -0.689300157608E+03   -0.30216E-03   -0.28094E-04 16910   0.220E-02    0.101E-01
RMM:  22    -0.689299954414E+03    0.20319E-03   -0.21248E-04 15469   0.190E-02    0.902E-02
RMM:  23    -0.689300062140E+03   -0.10773E-03   -0.20065E-04 15156   0.177E-02    0.864E-02
RMM:  24    -0.689300352938E+03   -0.29080E-03   -0.15399E-04 14562   0.160E-02    0.791E-02
RMM:  25    -0.689301535794E+03   -0.11829E-02   -0.95324E-05 13693   0.124E-02    0.696E-02
RMM:  26    -0.689304195856E+03   -0.26601E-02   -0.91467E-05 13710   0.108E-02    0.676E-02
RMM:  27    -0.689308291046E+03   -0.40952E-02   -0.78372E-05 13086   0.106E-02    0.635E-02
RMM:  28    -0.689314141751E+03   -0.58507E-02   -0.10301E-04 13636   0.114E-02    0.603E-02
RMM:  29    -0.689322340516E+03   -0.81988E-02   -0.12191E-04 13549   0.117E-02    0.562E-02
RMM:  30    -0.689329069588E+03   -0.67291E-02   -0.78808E-05 12518   0.971E-03    0.519E-02
RMM:  31    -0.689335492301E+03   -0.64227E-02   -0.54697E-05 12158   0.861E-03    0.504E-02
RMM:  32    -0.689342288492E+03   -0.67962E-02   -0.48002E-05 11888   0.826E-03    0.471E-02
RMM:  33    -0.689349981141E+03   -0.76926E-02   -0.51432E-05 12214   0.835E-03    0.455E-02
RMM:  34    -0.689357148417E+03   -0.71673E-02   -0.43984E-05 11654   0.746E-03    0.416E-02
RMM:  35    -0.689364266537E+03   -0.71181E-02   -0.35824E-05 11374   0.660E-03    0.389E-02
RMM:  36    -0.689371858932E+03   -0.75924E-02   -0.32314E-05 11424   0.614E-03    0.371E-02
RMM:  37    -0.689379974193E+03   -0.81153E-02   -0.30858E-05 11320   0.613E-03    0.360E-02
RMM:  38    -0.689386748483E+03   -0.67743E-02   -0.22829E-05 10924   0.549E-03    0.350E-02
RMM:  39    -0.689391889206E+03   -0.51407E-02   -0.14803E-05 10214   0.481E-03    0.322E-02
RMM:  40    -0.689397535062E+03   -0.56459E-02   -0.12181E-05 10042   0.441E-03    0.297E-02
RMM:  41    -0.689404611051E+03   -0.70760E-02   -0.12681E-05 10674   0.456E-03    0.285E-02
RMM:  42    -0.689410203770E+03   -0.55927E-02   -0.99008E-06 10316   0.439E-03    0.277E-02
RMM:  43    -0.689414763791E+03   -0.45600E-02   -0.70078E-06  9394   0.400E-03    0.245E-02
RMM:  44    -0.689418983215E+03   -0.42194E-02   -0.50255E-06  8909   0.360E-03    0.232E-02
RMM:  45    -0.689425345264E+03   -0.63620E-02   -0.58840E-06 10094   0.390E-03    0.227E-02
RMM:  46    -0.689432136389E+03   -0.67911E-02   -0.53051E-06 10187   0.382E-03    0.202E-02
RMM:  47    -0.689436983149E+03   -0.48468E-02   -0.41330E-06  9428   0.359E-03    0.190E-02
RMM:  48    -0.689441575293E+03   -0.45921E-02   -0.32961E-06  9090   0.341E-03    0.163E-02
RMM:  49    -0.689446938112E+03   -0.53628E-02   -0.37683E-06  8685   0.329E-03    0.137E-02
RMM:  50    -0.689452187659E+03   -0.52495E-02   -0.47520E-06  9166   0.338E-03    0.128E-02
RMM:  51    -0.689455355627E+03   -0.31680E-02   -0.24417E-06  7659   0.302E-03    0.114E-02
RMM:  52    -0.689457054057E+03   -0.16984E-02   -0.15671E-06  6732   0.285E-03    0.918E-03
RMM:  53    -0.689458944198E+03   -0.18901E-02   -0.16589E-06  6479   0.284E-03    0.718E-03
RMM:  54    -0.689460255429E+03   -0.13112E-02   -0.19643E-06  6965   0.285E-03    0.620E-03
RMM:  55    -0.689460999303E+03   -0.74387E-03   -0.11785E-06  6041   0.266E-03    0.437E-03
RMM:  56    -0.689461171685E+03   -0.17238E-03   -0.59084E-07  5016   0.249E-03    0.342E-03
RMM:  57    -0.689461227946E+03   -0.56261E-04   -0.32245E-07  4567   0.244E-03
   2 F= -.68946123E+03 E0= -.68903647E+03  d E =0.431243E+01  mag=    82.4262
       N       E                     dE             d eps       ncg     rms          rms(c)
DAV:   1    -0.691191565820E+03   -0.17304E+01   -0.43664E+02 23792   0.293E+01    0.694E+00
RMM:   2    -0.692554170487E+03   -0.13626E+01   -0.12847E+01 22401   0.591E+00    0.852E+00
RMM:   3    -0.692642113686E+03   -0.87943E-01   -0.22119E+00 22620   0.252E+00    0.610E+00
RMM:   4    -0.692526926788E+03    0.11519E+00   -0.53608E-01 25422   0.126E+00    0.327E+00
RMM:   5    -0.692505703974E+03    0.21223E-01   -0.15485E-01 25332   0.598E-01    0.254E+00
RMM:   6    -0.692486083561E+03    0.19620E-01   -0.57689E-02 25855   0.361E-01    0.145E+00
RMM:   7    -0.692465173189E+03    0.20910E-01   -0.61607E-02 24933   0.353E-01    0.167E+00
RMM:   8    -0.692437333134E+03    0.27840E-01   -0.30766E-02 24406   0.298E-01    0.840E-01
RMM:   9    -0.692430513630E+03    0.68195E-02   -0.14418E-02 26678   0.178E-01    0.615E-01
RMM:  10    -0.692427188706E+03    0.33249E-02   -0.57386E-03 27040   0.116E-01    0.352E-01
RMM:  11    -0.692427031591E+03    0.15712E-03   -0.23629E-03 28579   0.644E-02    0.245E-01
RMM:  12    -0.692426696701E+03    0.33489E-03   -0.12726E-03 26189   0.460E-02    0.183E-01
RMM:  13    -0.692426101844E+03    0.59486E-03   -0.73076E-04 24598   0.343E-02    0.142E-01
RMM:  14    -0.692425094252E+03    0.10076E-02   -0.36293E-04 20363   0.247E-02    0.126E-01
RMM:  15    -0.692423315278E+03    0.17790E-02   -0.23976E-04 16998   0.214E-02    0.118E-01
RMM:  16    -0.692421887939E+03    0.14273E-02   -0.16545E-04 14990   0.180E-02    0.102E-01
RMM:  17    -0.692420214731E+03    0.16732E-02   -0.12008E-04 14213   0.153E-02    0.919E-02
RMM:  18    -0.692418148419E+03    0.20663E-02   -0.12376E-04 14223   0.148E-02    0.861E-02
RMM:  19    -0.692414684440E+03    0.34640E-02   -0.15776E-04 14586   0.164E-02    0.813E-02
RMM:  20    -0.692411719379E+03    0.29651E-02   -0.11535E-04 13831   0.141E-02    0.712E-02
RMM:  21    -0.692407982162E+03    0.37372E-02   -0.15907E-04 14624   0.145E-02    0.666E-02
RMM:  22    -0.692405719664E+03    0.22625E-02   -0.89249E-05 13041   0.110E-02    0.590E-02
RMM:  23    -0.692404759006E+03    0.96066E-03   -0.72625E-05 12698   0.101E-02    0.554E-02
RMM:  24    -0.692404417885E+03    0.34112E-03   -0.57918E-05 12054   0.907E-03    0.528E-02
RMM:  25    -0.692405173410E+03   -0.75553E-03   -0.62675E-05 12143   0.897E-03    0.481E-02
RMM:  26    -0.692406573285E+03   -0.13999E-02   -0.60009E-05 12057   0.821E-03    0.447E-02
RMM:  27    -0.692409177963E+03   -0.26047E-02   -0.80975E-05 12440   0.874E-03    0.421E-02
RMM:  28    -0.692411550731E+03   -0.23728E-02   -0.46853E-05 11476   0.727E-03    0.410E-02
RMM:  29    -0.692414360632E+03   -0.28099E-02   -0.39759E-05 11336   0.726E-03    0.376E-02
RMM:  30    -0.692417328025E+03   -0.29674E-02   -0.32193E-05 10782   0.627E-03    0.349E-02
RMM:  31    -0.692420883598E+03   -0.35556E-02   -0.29486E-05 10850   0.592E-03    0.329E-02
RMM:  32    -0.692424240494E+03   -0.33569E-02   -0.22982E-05 10622   0.565E-03    0.313E-02
RMM:  33    -0.692428695831E+03   -0.44553E-02   -0.27094E-05 10468   0.558E-03    0.286E-02
RMM:  34    -0.692432886984E+03   -0.41912E-02   -0.20942E-05 10335   0.514E-03    0.275E-02
RMM:  35    -0.692436347253E+03   -0.34603E-02   -0.14547E-05 10086   0.483E-03    0.264E-02
RMM:  36    -0.692440682860E+03   -0.43356E-02   -0.17197E-05 10121   0.471E-03    0.250E-02
RMM:  37    -0.692444046982E+03   -0.33641E-02   -0.12286E-05  8861   0.433E-03    0.233E-02
RMM:  38    -0.692447519251E+03   -0.34723E-02   -0.12006E-05  9203   0.424E-03    0.217E-02
RMM:  39    -0.692450395744E+03   -0.28765E-02   -0.62335E-06  8411   0.389E-03    0.207E-02
RMM:  40    -0.692454488226E+03   -0.40925E-02   -0.49573E-06  8713   0.364E-03    0.191E-02
RMM:  41    -0.692458285026E+03   -0.37968E-02   -0.37802E-06  8197   0.341E-03    0.180E-02
RMM:  42    -0.692461427407E+03   -0.31424E-02   -0.31139E-06  7803   0.318E-03    0.166E-02
RMM:  43    -0.692465708398E+03   -0.42810E-02   -0.44865E-06  8247   0.333E-03    0.156E-02
RMM:  44    -0.692469613070E+03   -0.39047E-02   -0.41369E-06  7781   0.319E-03    0.145E-02
RMM:  45    -0.692474080784E+03   -0.44677E-02   -0.56601E-06  8155   0.334E-03    0.130E-02
RMM:  46    -0.692477562112E+03   -0.34813E-02   -0.44463E-06  7611   0.317E-03    0.108E-02
RMM:  47    -0.692480627457E+03   -0.30653E-02   -0.38295E-06  7232   0.306E-03    0.868E-03
RMM:  48    -0.692483017818E+03   -0.23904E-02   -0.24180E-06  6034   0.280E-03    0.684E-03
RMM:  49    -0.692484691807E+03   -0.16740E-02   -0.21278E-06  5887   0.278E-03    0.568E-03
RMM:  50    -0.692485589669E+03   -0.89786E-03   -0.14409E-06  5002   0.260E-03    0.439E-03
RMM:  51    -0.692486193549E+03   -0.60388E-03   -0.13560E-06  4918   0.256E-03    0.390E-03
RMM:  52    -0.692486575300E+03   -0.38175E-03   -0.76144E-07  4517   0.250E-03    0.318E-03
RMM:  53    -0.692486850039E+03   -0.27474E-03   -0.83589E-07  4581   0.252E-03    0.233E-03
RMM:  54    -0.692486934088E+03   -0.84049E-04   -0.36493E-07  4035   0.246E-03
   3 F= -.69248693E+03 E0= -.69206935E+03  d E =0.128672E+01  mag=    82.5277
       N       E                     dE             d eps       ncg     rms          rms(c)
DAV:   1    -0.693024583365E+03   -0.53773E+00   -0.57490E+01 24208   0.106E+01    0.244E+00
RMM:   2    -0.693183267445E+03   -0.15868E+00   -0.15776E+00 22400   0.208E+00    0.284E+00
RMM:   3    -0.693195033545E+03   -0.11766E-01   -0.26305E-01 22844   0.863E-01    0.187E+00
RMM:   4    -0.693188029127E+03    0.70044E-02   -0.63513E-02 25246   0.426E-01    0.129E+00
RMM:   5    -0.693182219110E+03    0.58100E-02   -0.18819E-02 24847   0.213E-01    0.773E-01
RMM:   6    -0.693180459410E+03    0.17597E-02   -0.70882E-03 24154   0.128E-01    0.510E-01
RMM:   7    -0.693179927068E+03    0.53234E-03   -0.68689E-03 23000   0.124E-01    0.554E-01
RMM:   8    -0.693178831506E+03    0.10956E-02   -0.33519E-03 21717   0.964E-02    0.262E-01
RMM:   9    -0.693178543221E+03    0.28828E-03   -0.14860E-03 23386   0.536E-02    0.143E-01
RMM:  10    -0.693178413506E+03    0.12972E-03   -0.56613E-04 19767   0.303E-02    0.923E-02
RMM:  11    -0.693178325648E+03    0.87857E-04   -0.17673E-04 14826   0.197E-02
   4 F= -.69317833E+03 E0= -.69276398E+03  d E =0.595329E+00  mag=    82.5265
       N       E                     dE             d eps       ncg     rms          rms(c)
DAV:   1    -0.693795478085E+03   -0.61706E+00   -0.56096E+01 23920   0.104E+01    0.242E+00
RMM:   2    -0.693951586656E+03   -0.15611E+00   -0.15469E+00 22400   0.207E+00    0.284E+00
RMM:   3    -0.693960727965E+03   -0.91413E-02   -0.25694E-01 22700   0.861E-01    0.183E+00
RMM:   4    -0.693954865123E+03    0.58628E-02   -0.62800E-02 25289   0.428E-01    0.130E+00
RMM:   5    -0.693948591067E+03    0.62741E-02   -0.18662E-02 25166   0.211E-01    0.776E-01
RMM:   6    -0.693946530109E+03    0.20610E-02   -0.70668E-03 24420   0.129E-01    0.527E-01
RMM:   7    -0.693945852824E+03    0.67728E-03   -0.70505E-03 23231   0.125E-01    0.560E-01
RMM:   8    -0.693944740350E+03    0.11125E-02   -0.33854E-03 22025   0.959E-02    0.271E-01
RMM:   9    -0.693944411797E+03    0.32855E-03   -0.15036E-03 23890   0.533E-02    0.145E-01
RMM:  10    -0.693944284636E+03    0.12716E-03   -0.57385E-04 20126   0.300E-02    0.956E-02
RMM:  11    -0.693944178132E+03    0.10650E-03   -0.18377E-04 15012   0.196E-02    0.728E-02
RMM:  12    -0.693944039566E+03    0.13857E-03   -0.13434E-04 14131   0.167E-02    0.587E-02
RMM:  13    -0.693943921267E+03    0.11830E-03   -0.89051E-05 13475   0.148E-02    0.471E-02
RMM:  14    -0.693943860330E+03    0.60937E-04   -0.39437E-05 12826   0.102E-02
   5 F= -.69394386E+03 E0= -.69353207E+03  d E =-.170205E+00  mag=    82.5218
       N       E                     dE             d eps       ncg     rms          rms(c)
DAV:   1    -0.694191323384E+03   -0.24740E+00   -0.14000E+01 24016   0.521E+00    0.120E+00
RMM:   2    -0.694229420599E+03   -0.38097E-01   -0.37791E-01 22401   0.103E+00    0.139E+00
RMM:   3    -0.694232007712E+03   -0.25871E-02   -0.63635E-02 22738   0.426E-01    0.882E-01
RMM:   4    -0.694231100267E+03    0.90745E-03   -0.15423E-02 24559   0.212E-01    0.674E-01
RMM:   5    -0.694229157885E+03    0.19424E-02   -0.45650E-03 23687   0.106E-01    0.391E-01
RMM:   6    -0.694228585614E+03    0.57227E-03   -0.18556E-03 21940   0.667E-02    0.278E-01
RMM:   7    -0.694228396378E+03    0.18924E-03   -0.17656E-03 21052   0.638E-02    0.278E-01
RMM:   8    -0.694228178442E+03    0.21794E-03   -0.83781E-04 19997   0.482E-02    0.137E-01
RMM:   9    -0.694228135762E+03    0.42680E-04   -0.35327E-04 16830   0.265E-02
   6 F= -.69422814E+03 E0= -.69381736E+03  d E =-.454481E+00  mag=    82.5183
       N       E                     dE             d eps       ncg     rms          rms(c)
DAV:   1    -0.686871451126E+03    0.73567E+01   -0.11980E+03 22432   0.480E+01    0.974E+00
RMM:   2    -0.690750969527E+03   -0.38795E+01   -0.39977E+01 22400   0.101E+01    0.964E+00
RMM:   3    -0.691420114269E+03   -0.66914E+00   -0.66154E+00 23562   0.425E+00    0.767E+00
RMM:   4    -0.691304264909E+03    0.11585E+00   -0.12284E+00 26047   0.193E+00    0.471E+00
RMM:   5    -0.691253821197E+03    0.50444E-01   -0.37071E-01 28720   0.947E-01    0.328E+00
RMM:   6    -0.691222849144E+03    0.30972E-01   -0.16046E-01 29621   0.541E-01    0.221E+00
RMM:   7    -0.691232812156E+03   -0.99630E-02   -0.14035E-01 26607   0.568E-01    0.253E+00
RMM:   8    -0.691220955743E+03    0.11856E-01   -0.67731E-02 27748   0.414E-01    0.113E+00
RMM:   9    -0.691224394880E+03   -0.34391E-02   -0.26945E-02 32195   0.232E-01    0.856E-01
RMM:  10    -0.691225397130E+03   -0.10023E-02   -0.10890E-02 33207   0.143E-01    0.545E-01
RMM:  11    -0.691226527671E+03   -0.11305E-02   -0.58007E-03 32724   0.983E-02    0.347E-01
RMM:  12    -0.691228145990E+03   -0.16183E-02   -0.37501E-03 32452   0.756E-02    0.333E-01
RMM:  13    -0.691228910513E+03   -0.76452E-03   -0.21655E-03 30374   0.598E-02    0.199E-01
RMM:  14    -0.691229583026E+03   -0.67251E-03   -0.12441E-03 29214   0.430E-02    0.144E-01
RMM:  15    -0.691230146835E+03   -0.56381E-03   -0.77562E-04 27445   0.333E-02    0.125E-01
RMM:  16    -0.691230513458E+03   -0.36662E-03   -0.52040E-04 24299   0.272E-02    0.943E-02
RMM:  17    -0.691230818595E+03   -0.30514E-03   -0.39218E-04 21326   0.232E-02    0.791E-02
RMM:  18    -0.691230762389E+03    0.56205E-04   -0.28237E-04 17413   0.192E-02
   7 F= -.69123076E+03 E0= -.69080748E+03  d E =0.299737E+01  mag=    82.5362
       N       E                     dE             d eps       ncg     rms          rms(c)
DAV:   1    -0.692149091223E+03   -0.91827E+00   -0.40286E+02 22992   0.277E+01    0.573E+00
RMM:   2    -0.693268556071E+03   -0.11195E+01   -0.11227E+01 22400   0.552E+00    0.672E+00
RMM:   3    -0.693441128786E+03   -0.17257E+00   -0.19648E+00 22837   0.240E+00    0.529E+00
RMM:   4    -0.693368218401E+03    0.72910E-01   -0.46127E-01 25847   0.118E+00    0.287E+00
RMM:   5    -0.693345440568E+03    0.22778E-01   -0.13855E-01 28539   0.498E-01    0.182E+00
RMM:   6    -0.693333967045E+03    0.11474E-01   -0.45513E-02 28149   0.296E-01    0.136E+00
RMM:   7    -0.693324578284E+03    0.93888E-02   -0.44178E-02 25715   0.309E-01    0.142E+00
RMM:   8    -0.693313541393E+03    0.11037E-01   -0.22698E-02 25338   0.244E-01    0.666E-01
RMM:   9    -0.693312581132E+03    0.96026E-03   -0.10644E-02 29624   0.142E-01    0.428E-01
RMM:  10    -0.693313449471E+03   -0.86834E-03   -0.40249E-03 29545   0.855E-02    0.277E-01
RMM:  11    -0.693313735140E+03   -0.28567E-03   -0.16235E-03 28417   0.533E-02    0.166E-01
RMM:  12    -0.693313863936E+03   -0.12880E-03   -0.10847E-03 27400   0.376E-02    0.119E-01
RMM:  13    -0.693314406494E+03   -0.54256E-03   -0.54665E-04 24525   0.298E-02    0.962E-02
RMM:  14    -0.693314876433E+03   -0.46994E-03   -0.33719E-04 19673   0.221E-02    0.658E-02
RMM:  15    -0.693315295489E+03   -0.41906E-03   -0.21781E-04 15604   0.174E-02    0.596E-02
RMM:  16    -0.693315625137E+03   -0.32965E-03   -0.12353E-04 14182   0.137E-02    0.455E-02
RMM:  17    -0.693315963984E+03   -0.33885E-03   -0.82557E-05 13575   0.117E-02    0.445E-02
RMM:  18    -0.693316311005E+03   -0.34702E-03   -0.55456E-05 12893   0.107E-02    0.365E-02
RMM:  19    -0.693316699740E+03   -0.38874E-03   -0.42257E-05 12732   0.911E-03    0.345E-02
RMM:  20    -0.693317192357E+03   -0.49262E-03   -0.35207E-05 12316   0.797E-03    0.292E-02
RMM:  21    -0.693317686825E+03   -0.49447E-03   -0.31153E-05 12278   0.734E-03    0.273E-02
RMM:  22    -0.693318161386E+03   -0.47456E-03   -0.21956E-05 11428   0.625E-03    0.264E-02
RMM:  23    -0.693318566843E+03   -0.40546E-03   -0.14466E-05 10860   0.546E-03    0.257E-02
RMM:  24    -0.693319300586E+03   -0.73374E-03   -0.14455E-05 10666   0.511E-03    0.241E-02
RMM:  25    -0.693320034995E+03   -0.73441E-03   -0.11650E-05  9940   0.449E-03    0.231E-02
RMM:  26    -0.693320867388E+03   -0.83239E-03   -0.10028E-05 10058   0.428E-03    0.221E-02
RMM:  27    -0.693322036033E+03   -0.11686E-02   -0.92049E-06  9040   0.389E-03    0.207E-02
RMM:  28    -0.693323589329E+03   -0.15533E-02   -0.11989E-05 10069   0.414E-03    0.194E-02
RMM:  29    -0.693324978054E+03   -0.13887E-02   -0.13884E-05 10178   0.416E-03    0.186E-02
RMM:  30    -0.693326003958E+03   -0.10259E-02   -0.16141E-05 10473   0.431E-03    0.172E-02
RMM:  31    -0.693326544392E+03   -0.54043E-03   -0.10998E-05  9036   0.382E-03    0.156E-02
RMM:  32    -0.693327104115E+03   -0.55972E-03   -0.98465E-06  9098   0.376E-03    0.145E-02
RMM:  33    -0.693327644184E+03   -0.54007E-03   -0.65180E-06  8038   0.344E-03    0.132E-02
RMM:  34    -0.693328289965E+03   -0.64578E-03   -0.53996E-06  7921   0.327E-03    0.127E-02
RMM:  35    -0.693328934978E+03   -0.64501E-03   -0.43391E-06  7715   0.310E-03    0.118E-02
RMM:  36    -0.693329919366E+03   -0.98439E-03   -0.66224E-06  8133   0.319E-03    0.111E-02
RMM:  37    -0.693330913384E+03   -0.99402E-03   -0.51033E-06  7760   0.308E-03    0.109E-02
RMM:  38    -0.693331837999E+03   -0.92461E-03   -0.45345E-06  7833   0.306E-03    0.102E-02
RMM:  39    -0.693332660188E+03   -0.82219E-03   -0.38545E-06  7508   0.295E-03    0.896E-03
RMM:  40    -0.693333461494E+03   -0.80131E-03   -0.26535E-06  6792   0.282E-03    0.852E-03
RMM:  41    -0.693334308793E+03   -0.84730E-03   -0.19743E-06  6446   0.275E-03    0.768E-03
RMM:  42    -0.693335201882E+03   -0.89309E-03   -0.15737E-06  6261   0.275E-03    0.682E-03
RMM:  43    -0.693335806333E+03   -0.60445E-03   -0.70776E-07  5120   0.257E-03    0.602E-03
RMM:  44    -0.693336352294E+03   -0.54596E-03   -0.54079E-07  4745   0.250E-03    0.562E-03
RMM:  45    -0.693336988517E+03   -0.63622E-03   -0.81023E-07  5003   0.255E-03    0.510E-03
RMM:  46    -0.693337557619E+03   -0.56910E-03   -0.10135E-06  5299   0.261E-03    0.457E-03
RMM:  47    -0.693338058959E+03   -0.50134E-03   -0.10397E-06  5191   0.257E-03    0.408E-03
RMM:  48    -0.693338469328E+03   -0.41037E-03   -0.14442E-06  5433   0.258E-03    0.330E-03
RMM:  49    -0.693338810249E+03   -0.34092E-03   -0.12767E-06  5088   0.253E-03    0.283E-03
RMM:  50    -0.693339070194E+03   -0.25995E-03   -0.92129E-07  4720   0.245E-03    0.233E-03
RMM:  51    -0.693339305623E+03   -0.23543E-03   -0.11054E-06  4692   0.243E-03    0.210E-03
RMM:  52    -0.693339443944E+03   -0.13832E-03   -0.72345E-07  4328   0.236E-03    0.190E-03
RMM:  53    -0.693339530675E+03   -0.86730E-04   -0.56740E-07  4190   0.235E-03
   8 F= -.69333953E+03 E0= -.69292608E+03  d E =0.888605E+00  mag=    82.6297
       N       E                     dE             d eps       ncg     rms          rms(c)
DAV:   1    -0.693855888755E+03   -0.51644E+00   -0.63776E+01 23600   0.110E+01    0.217E+00
RMM:   2    -0.694011674755E+03   -0.15579E+00   -0.15892E+00 22400   0.210E+00    0.242E+00
RMM:   3    -0.694036973476E+03   -0.25299E-01   -0.27301E-01 22812   0.893E-01    0.188E+00
RMM:   4    -0.694029963247E+03    0.70102E-02   -0.65229E-02 25768   0.445E-01    0.108E+00
RMM:   5    -0.694027498788E+03    0.24645E-02   -0.20181E-02 27982   0.195E-01    0.705E-01
RMM:   6    -0.694026253858E+03    0.12449E-02   -0.71587E-03 26838   0.116E-01    0.550E-01
RMM:   7    -0.694026081275E+03    0.17258E-03   -0.61568E-03 24001   0.117E-01    0.520E-01
RMM:   8    -0.694025500664E+03    0.58061E-03   -0.31549E-03 23101   0.907E-02    0.244E-01
RMM:   9    -0.694025403762E+03    0.96901E-04   -0.14442E-03 24658   0.504E-02    0.132E-01
RMM:  10    -0.694025440651E+03   -0.36889E-04   -0.50673E-04 20473   0.288E-02
   9 F= -.69402544E+03 E0= -.69361433E+03  d E =0.202695E+00  mag=    82.6257
       N       E                     dE             d eps       ncg     rms          rms(c)
DAV:   1    -0.694227188113E+03   -0.20178E+00   -0.68753E+00 24176   0.363E+00    0.724E-01
RMM:   2    -0.694243179460E+03   -0.15991E-01   -0.17044E-01 22400   0.692E-01    0.785E-01
RMM:   3    -0.694246325548E+03   -0.31461E-02   -0.29785E-02 22884   0.291E-01    0.581E-01
RMM:   4    -0.694245901534E+03    0.42401E-03   -0.69924E-03 25044   0.144E-01    0.369E-01
RMM:   5    -0.694245578086E+03    0.32345E-03   -0.22490E-03 25469   0.658E-02    0.239E-01
RMM:   6    -0.694245434606E+03    0.14348E-03   -0.91247E-04 22548   0.392E-02    0.193E-01
RMM:   7    -0.694245291788E+03    0.14282E-03   -0.68109E-04 20678   0.387E-02    0.169E-01
RMM:   8    -0.694245031653E+03    0.26014E-03   -0.35784E-04 17751   0.303E-02    0.844E-02
RMM:   9    -0.694244844582E+03    0.18707E-03   -0.14667E-04 14136   0.183E-02    0.556E-02
RMM:  10    -0.694244681626E+03    0.16296E-03   -0.64422E-05 13001   0.133E-02    0.468E-02
RMM:  11    -0.694244522595E+03    0.15903E-03   -0.31843E-05 12436   0.925E-03    0.356E-02
RMM:  12    -0.694244134782E+03    0.38781E-03   -0.27181E-05 12324   0.749E-03    0.337E-02
RMM:  13    -0.694243685300E+03    0.44948E-03   -0.17572E-05 11835   0.638E-03    0.306E-02
RMM:  14    -0.694243432307E+03    0.25299E-03   -0.10203E-05 10794   0.567E-03    0.291E-02
RMM:  15    -0.694243168894E+03    0.26341E-03   -0.70381E-06 10117   0.458E-03    0.270E-02
RMM:  16    -0.694242660569E+03    0.50833E-03   -0.71578E-06 10626   0.450E-03    0.261E-02
RMM:  17    -0.694241793924E+03    0.86665E-03   -0.96974E-06 11415   0.501E-03    0.247E-02
RMM:  18    -0.694240952531E+03    0.84139E-03   -0.79260E-06 10698   0.458E-03    0.239E-02
RMM:  19    -0.694240551480E+03    0.40105E-03   -0.36684E-06  8845   0.362E-03    0.223E-02
RMM:  20    -0.694240022441E+03    0.52904E-03   -0.30513E-06  8484   0.326E-03    0.211E-02
RMM:  21    -0.694239349684E+03    0.67276E-03   -0.50115E-06  9471   0.350E-03    0.210E-02
RMM:  22    -0.694238832959E+03    0.51672E-03   -0.40919E-06  9060   0.338E-03    0.196E-02
RMM:  23    -0.694238387457E+03    0.44550E-03   -0.44131E-06  8434   0.331E-03    0.181E-02
RMM:  24    -0.694237976185E+03    0.41127E-03   -0.68363E-06  9250   0.365E-03    0.171E-02
RMM:  25    -0.694237521472E+03    0.45471E-03   -0.69267E-06  9672   0.376E-03    0.163E-02
RMM:  26    -0.694237162981E+03    0.35849E-03   -0.61376E-06  9162   0.385E-03    0.153E-02
RMM:  27    -0.694237087535E+03    0.75446E-04   -0.38704E-06  7703   0.342E-03
  10 F= -.69423709E+03 E0= -.69382599E+03  d E =-.895177E-02  mag=    82.5686
       N       E                     dE             d eps       ncg     rms          rms(c)
DAV:   1    -0.694329017954E+03   -0.91855E-01   -0.44321E+00 23696   0.291E+00    0.568E-01
RMM:   2    -0.694340070225E+03   -0.11052E-01   -0.10665E-01 22400   0.551E-01    0.603E-01
RMM:   3    -0.694342149362E+03   -0.20791E-02   -0.18441E-02 22541   0.230E-01    0.463E-01
RMM:   4    -0.694341891649E+03    0.25771E-03   -0.42789E-03 23495   0.115E-01    0.288E-01
RMM:   5    -0.694341775240E+03    0.11641E-03   -0.13843E-03 23255   0.529E-02    0.186E-01
RMM:   6    -0.694341825756E+03   -0.50516E-04   -0.53794E-04 19007   0.314E-02    0.155E-01
RMM:   7    -0.694342022442E+03   -0.19669E-03   -0.40501E-04 17973   0.320E-02    0.133E-01
RMM:   8    -0.694342119597E+03   -0.97155E-04   -0.20554E-04 14639   0.248E-02
  11 F= -.69434212E+03 E0= -.69393111E+03  d E =-.113984E+00  mag=    82.5648
       N       E                     dE             d eps       ncg     rms          rms(c)
DAV:   1    -0.691007749052E+03    0.33343E+01   -0.45145E+02 22528   0.289E+01    0.680E+00
RMM:   2    -0.692127329751E+03   -0.11196E+01   -0.13232E+01 22400   0.593E+00    0.759E+00
RMM:   3    -0.692332875539E+03   -0.20555E+00   -0.22565E+00 22663   0.244E+00    0.441E+00
RMM:   4    -0.692336976106E+03   -0.41006E-02   -0.49275E-01 24695   0.123E+00    0.352E+00
RMM:   5    -0.692301249978E+03    0.35726E-01   -0.15072E-01 24538   0.629E-01    0.232E+00
RMM:   6    -0.692293493211E+03    0.77568E-02   -0.70544E-02 24745   0.401E-01    0.184E+00
RMM:   7    -0.692291348051E+03    0.21452E-02   -0.52645E-02 23811   0.348E-01    0.149E+00
RMM:   8    -0.692286408193E+03    0.49399E-02   -0.29698E-02 24184   0.268E-01    0.918E-01
RMM:   9    -0.692283161202E+03    0.32470E-02   -0.10673E-02 28101   0.151E-01    0.375E-01
RMM:  10    -0.692283514149E+03   -0.35295E-03   -0.39772E-03 29718   0.767E-02    0.282E-01
RMM:  11    -0.692283671431E+03   -0.15728E-03   -0.16221E-03 27751   0.493E-02    0.184E-01
RMM:  12    -0.692283485727E+03    0.18570E-03   -0.10018E-03 25552   0.401E-02    0.168E-01
RMM:  13    -0.692282532655E+03    0.95307E-03   -0.49315E-04 22966   0.282E-02    0.112E-01
RMM:  14    -0.692281430044E+03    0.11026E-02   -0.28604E-04 18648   0.212E-02    0.109E-01
RMM:  15    -0.692280104905E+03    0.13251E-02   -0.17981E-04 15201   0.180E-02    0.899E-02
RMM:  16    -0.692278728830E+03    0.13761E-02   -0.11104E-04 13797   0.148E-02    0.859E-02
RMM:  17    -0.692277361742E+03    0.13671E-02   -0.74468E-05 13150   0.131E-02    0.772E-02
RMM:  18    -0.692275326902E+03    0.20348E-02   -0.59181E-05 13283   0.117E-02    0.742E-02
RMM:  19    -0.692273208140E+03    0.21188E-02   -0.42278E-05 12734   0.990E-03    0.697E-02
RMM:  20    -0.692270875585E+03    0.23326E-02   -0.37854E-05 12735   0.101E-02    0.670E-02
RMM:  21    -0.692267603987E+03    0.32716E-02   -0.36309E-05 12731   0.958E-03    0.630E-02
RMM:  22    -0.692265539932E+03    0.20641E-02   -0.26654E-05 11833   0.811E-03    0.599E-02
RMM:  23    -0.692263398709E+03    0.21412E-02   -0.26665E-05 12223   0.747E-03    0.568E-02
RMM:  24    -0.692261806346E+03    0.15924E-02   -0.26751E-05 11512   0.690E-03    0.549E-02
RMM:  25    -0.692261031323E+03    0.77502E-03   -0.26657E-05 11553   0.657E-03    0.522E-02
RMM:  26    -0.692260459918E+03    0.57141E-03   -0.36960E-05 11455   0.681E-03    0.482E-02
RMM:  27    -0.692259823888E+03    0.63603E-03   -0.69661E-05 12628   0.818E-03    0.467E-02
RMM:  28    -0.692259070885E+03    0.75300E-03   -0.60470E-05 11875   0.788E-03    0.433E-02
RMM:  29    -0.692258855708E+03    0.21518E-03   -0.38686E-05 11621   0.692E-03    0.401E-02
RMM:  30    -0.692259144012E+03   -0.28830E-03   -0.28783E-05 11145   0.594E-03    0.379E-02
RMM:  31    -0.692259757704E+03   -0.61369E-03   -0.20042E-05 10410   0.510E-03    0.353E-02
RMM:  32    -0.692261047530E+03   -0.12898E-02   -0.18194E-05 11090   0.529E-03    0.344E-02
RMM:  33    -0.692262561663E+03   -0.15141E-02   -0.15827E-05 11042   0.510E-03    0.324E-02
RMM:  34    -0.692264236161E+03   -0.16745E-02   -0.95284E-06 10278   0.460E-03    0.303E-02
RMM:  35    -0.692266317149E+03   -0.20810E-02   -0.76557E-06 10494   0.432E-03    0.281E-02
RMM:  36    -0.692268532113E+03   -0.22150E-02   -0.59816E-06 10143   0.397E-03    0.261E-02
RMM:  37    -0.692271046313E+03   -0.25142E-02   -0.61953E-06 10676   0.416E-03    0.253E-02
RMM:  38    -0.692272812139E+03   -0.17658E-02   -0.46499E-06  9927   0.375E-03    0.220E-02
RMM:  39    -0.692274756102E+03   -0.19440E-02   -0.35140E-06  8272   0.324E-03    0.211E-02
RMM:  40    -0.692277400980E+03   -0.26449E-02   -0.47571E-06  9220   0.342E-03    0.194E-02
RMM:  41    -0.692281564142E+03   -0.41632E-02   -0.96611E-06 10010   0.390E-03    0.178E-02
RMM:  42    -0.692284595084E+03   -0.30309E-02   -0.92922E-06  9654   0.366E-03    0.166E-02
RMM:  43    -0.692286999236E+03   -0.24042E-02   -0.75503E-06  8705   0.347E-03    0.144E-02
RMM:  44    -0.692289495417E+03   -0.24962E-02   -0.79187E-06  8627   0.347E-03    0.137E-02
RMM:  45    -0.692292111191E+03   -0.26158E-02   -0.84322E-06  8671   0.348E-03    0.119E-02
RMM:  46    -0.692294560489E+03   -0.24493E-02   -0.85783E-06  9045   0.352E-03    0.111E-02
RMM:  47    -0.692296308354E+03   -0.17479E-02   -0.59388E-06  7667   0.318E-03    0.914E-03
RMM:  48    -0.692297871651E+03   -0.15633E-02   -0.45981E-06  7304   0.308E-03    0.823E-03
RMM:  49    -0.692299069542E+03   -0.11979E-02   -0.26066E-06  6234   0.280E-03    0.664E-03
RMM:  50    -0.692299964285E+03   -0.89474E-03   -0.14394E-06  5390   0.262E-03    0.553E-03
RMM:  51    -0.692300784560E+03   -0.82028E-03   -0.10601E-06  5220   0.258E-03    0.491E-03
RMM:  52    -0.692301091417E+03   -0.30686E-03   -0.56853E-07  4693   0.251E-03    0.416E-03
RMM:  53    -0.692301270362E+03   -0.17895E-03   -0.32621E-07  4306   0.245E-03    0.384E-03
RMM:  54    -0.692301381611E+03   -0.11125E-03   -0.38785E-07  4262   0.240E-03    0.328E-03
RMM:  55    -0.692301465075E+03   -0.83464E-04   -0.21287E-07  3896   0.238E-03
  12 F= -.69230147E+03 E0= -.69188782E+03  d E =0.204065E+01  mag=    82.8428
       N       E                     dE             d eps       ncg     rms          rms(c)
DAV:   1    -0.693147641329E+03   -0.84626E+00   -0.11696E+02 22880   0.148E+01    0.365E+00
RMM:   2    -0.693472565042E+03   -0.32492E+00   -0.35196E+00 22400   0.301E+00    0.476E+00
RMM:   3    -0.693466652858E+03    0.59122E-02   -0.59133E-01 22640   0.130E+00    0.231E+00
RMM:   4    -0.693466507603E+03    0.14525E-03   -0.14069E-01 24617   0.651E-01    0.185E+00
RMM:   5    -0.693458568053E+03    0.79396E-02   -0.46609E-02 24779   0.331E-01    0.105E+00
RMM:   6    -0.693458535741E+03    0.32312E-04   -0.20090E-02 24913   0.199E-01    0.985E-01
RMM:   7    -0.693457996713E+03    0.53903E-03   -0.14484E-02 24109   0.173E-01    0.908E-01
RMM:   8    -0.693455310443E+03    0.26863E-02   -0.69238E-03 23978   0.131E-01    0.609E-01
RMM:   9    -0.693453571629E+03    0.17388E-02   -0.32577E-03 23956   0.881E-02    0.221E-01
RMM:  10    -0.693452811295E+03    0.76033E-03   -0.14888E-03 25080   0.463E-02    0.156E-01
RMM:  11    -0.693451942016E+03    0.86928E-03   -0.53271E-04 21314   0.287E-02    0.941E-02
RMM:  12    -0.693450428859E+03    0.15132E-02   -0.33364E-04 18655   0.220E-02    0.829E-02
RMM:  13    -0.693449029098E+03    0.13998E-02   -0.20423E-04 15495   0.194E-02    0.728E-02
RMM:  14    -0.693448326450E+03    0.70265E-03   -0.99150E-05 13542   0.147E-02    0.551E-02
RMM:  15    -0.693447980201E+03    0.34625E-03   -0.50893E-05 12260   0.993E-03    0.490E-02
RMM:  16    -0.693447397863E+03    0.58234E-03   -0.33208E-05 12098   0.869E-03    0.472E-02
RMM:  17    -0.693446638757E+03    0.75911E-03   -0.22855E-05 11729   0.717E-03    0.433E-02
RMM:  18    -0.693445537724E+03    0.11010E-02   -0.16975E-05 11645   0.676E-03    0.428E-02
RMM:  19    -0.693444649996E+03    0.88773E-03   -0.13226E-05 11012   0.596E-03    0.411E-02
RMM:  20    -0.693443267183E+03    0.13828E-02   -0.12370E-05 11455   0.586E-03    0.380E-02
RMM:  21    -0.693441865715E+03    0.14015E-02   -0.10338E-05 10872   0.486E-03    0.371E-02
RMM:  22    -0.693440696388E+03    0.11693E-02   -0.85153E-06 10895   0.498E-03    0.360E-02
RMM:  23    -0.693439241341E+03    0.14550E-02   -0.11351E-05 11027   0.530E-03    0.346E-02
RMM:  24    -0.693438012409E+03    0.12289E-02   -0.97795E-06 10741   0.482E-03    0.327E-02
RMM:  25    -0.693437296269E+03    0.71614E-03   -0.76609E-06 10121   0.422E-03    0.307E-02
RMM:  26    -0.693437032344E+03    0.26392E-03   -0.88202E-06 10018   0.422E-03    0.292E-02
RMM:  27    -0.693437063970E+03   -0.31626E-04   -0.13373E-05 10532   0.462E-03
  13 F= -.69343706E+03 E0= -.69302649E+03  d E =0.905056E+00  mag=    82.7673
       N       E                     dE             d eps       ncg     rms          rms(c)
DAV:   1    -0.694044072048E+03   -0.60704E+00   -0.28546E+01 23664   0.728E+00    0.175E+00
RMM:   2    -0.694126294388E+03   -0.82222E-01   -0.82455E-01 22400   0.146E+00    0.222E+00
RMM:   3    -0.694124404123E+03    0.18903E-02   -0.13509E-01 22453   0.620E-01    0.106E+00
RMM:   4    -0.694123818661E+03    0.58546E-03   -0.32525E-02 23940   0.312E-01    0.863E-01
RMM:   5    -0.694121000711E+03    0.28180E-02   -0.10338E-02 23326   0.161E-01    0.491E-01
RMM:   6    -0.694119942002E+03    0.10587E-02   -0.45223E-03 22874   0.966E-02    0.401E-01
RMM:   7    -0.694119441791E+03    0.50021E-03   -0.36512E-03 22364   0.914E-02    0.331E-01
RMM:   8    -0.694118679449E+03    0.76234E-03   -0.14852E-03 21772   0.586E-02    0.196E-01
RMM:   9    -0.694118198002E+03    0.48145E-03   -0.65873E-04 20519   0.341E-02    0.106E-01
RMM:  10    -0.694117745835E+03    0.45217E-03   -0.21548E-04 14998   0.183E-02    0.796E-02
RMM:  11    -0.694117377006E+03    0.36883E-03   -0.85859E-05 13264   0.141E-02    0.578E-02
RMM:  12    -0.694116764922E+03    0.61208E-03   -0.66824E-05 12894   0.124E-02    0.558E-02
RMM:  13    -0.694116200669E+03    0.56425E-03   -0.42019E-05 12507   0.108E-02    0.453E-02
RMM:  14    -0.694115992840E+03    0.20783E-03   -0.20479E-05 11265   0.791E-03    0.424E-02
RMM:  15    -0.694115896045E+03    0.96795E-04   -0.10924E-05 10380   0.552E-03
  14 F= -.69411590E+03 E0= -.69370566E+03  d E =0.226224E+00  mag=    82.7498
       N       E                     dE             d eps       ncg     rms          rms(c)
DAV:   1    -0.694401526937E+03   -0.28553E+00   -0.84708E+00 23424   0.396E+00    0.939E-01
RMM:   2    -0.694427722246E+03   -0.26195E-01   -0.23718E-01 22400   0.786E-01    0.118E+00
RMM:   3    -0.694425754501E+03    0.19677E-02   -0.39276E-02 22374   0.332E-01    0.557E-01
RMM:   4    -0.694424473280E+03    0.12812E-02   -0.94208E-03 23099   0.168E-01    0.473E-01
RMM:   5    -0.694422774178E+03    0.16991E-02   -0.30163E-03 22133   0.882E-02    0.267E-01
RMM:   6    -0.694421910060E+03    0.86412E-03   -0.13440E-03 20914   0.524E-02    0.219E-01
RMM:   7    -0.694421211397E+03    0.69866E-03   -0.10313E-03 20083   0.490E-02    0.184E-01
RMM:   8    -0.694420357115E+03    0.85428E-03   -0.43491E-04 17783   0.315E-02    0.105E-01
RMM:   9    -0.694419919735E+03    0.43738E-03   -0.16462E-04 14003   0.185E-02    0.750E-02
RMM:  10    -0.694419523579E+03    0.39616E-03   -0.60365E-05 12626   0.126E-02    0.595E-02
RMM:  11    -0.694419175400E+03    0.34818E-03   -0.28440E-05 11648   0.865E-03    0.514E-02
RMM:  12    -0.694418612164E+03    0.56324E-03   -0.21870E-05 11809   0.778E-03    0.507E-02
RMM:  13    -0.694418069611E+03    0.54255E-03   -0.17167E-05 11362   0.701E-03    0.481E-02
RMM:  14    -0.694417808685E+03    0.26093E-03   -0.83439E-06 10297   0.531E-03    0.458E-02
RMM:  15    -0.694417676918E+03    0.13177E-03   -0.45482E-06  9287   0.400E-03    0.449E-02
RMM:  16    -0.694417451870E+03    0.22505E-03   -0.50391E-06 10001   0.409E-03    0.447E-02
RMM:  17    -0.694416869520E+03    0.58235E-03   -0.11626E-05 11447   0.548E-03    0.427E-02
RMM:  18    -0.694416400892E+03    0.46863E-03   -0.10614E-05 10722   0.513E-03    0.419E-02
RMM:  19    -0.694416053833E+03    0.34706E-03   -0.11770E-05 10975   0.539E-03    0.393E-02
RMM:  20    -0.694416171112E+03   -0.11728E-03   -0.12363E-05 10511   0.503E-03    0.374E-02
RMM:  21    -0.694416734852E+03   -0.56374E-03   -0.16761E-05 11071   0.549E-03    0.354E-02
RMM:  22    -0.694417942137E+03   -0.12073E-02   -0.24132E-05 10996   0.577E-03    0.326E-02
RMM:  23    -0.694419306205E+03   -0.13641E-02   -0.17428E-05 10453   0.533E-03    0.309E-02
RMM:  24    -0.694421337237E+03   -0.20310E-02   -0.20910E-05 10403   0.536E-03    0.281E-02
RMM:  25    -0.694423812335E+03   -0.24751E-02   -0.22794E-05 10683   0.560E-03    0.266E-02
RMM:  26    -0.694427125185E+03   -0.33128E-02   -0.35222E-05 11145   0.647E-03    0.239E-02
RMM:  27    -0.694429563810E+03   -0.24386E-02   -0.28357E-05 11031   0.614E-03    0.216E-02
RMM:  28    -0.694431253683E+03   -0.16899E-02   -0.18715E-05 10091   0.534E-03    0.188E-02
RMM:  29    -0.694432617478E+03   -0.13638E-02   -0.11261E-05  8950   0.441E-03    0.166E-02
RMM:  30    -0.694434111062E+03   -0.14936E-02   -0.74787E-06  8670   0.399E-03    0.161E-02
RMM:  31    -0.694435609605E+03   -0.14985E-02   -0.48689E-06  8455   0.365E-03    0.143E-02
RMM:  32    -0.694436917733E+03   -0.13081E-02   -0.26363E-06  7347   0.324E-03    0.128E-02
RMM:  33    -0.694438312531E+03   -0.13948E-02   -0.17593E-06  6618   0.297E-03    0.115E-02
RMM:  34    -0.694439643018E+03   -0.13305E-02   -0.24585E-06  7399   0.305E-03    0.109E-02
RMM:  35    -0.694440762502E+03   -0.11195E-02   -0.28502E-06  7152   0.300E-03    0.942E-03
RMM:  36    -0.694441391342E+03   -0.62884E-03   -0.17136E-06  5883   0.275E-03    0.809E-03
RMM:  37    -0.694442002553E+03   -0.61121E-03   -0.16933E-06  5552   0.268E-03    0.790E-03
RMM:  38    -0.694442615615E+03   -0.61306E-03   -0.17596E-06  5477   0.268E-03    0.698E-03
RMM:  39    -0.694443430181E+03   -0.81457E-03   -0.30204E-06  6265   0.287E-03    0.657E-03
RMM:  40    -0.694443995177E+03   -0.56500E-03   -0.22836E-06  5656   0.278E-03    0.545E-03
RMM:  41    -0.694444496418E+03   -0.50124E-03   -0.19954E-06  5291   0.272E-03    0.507E-03
RMM:  42    -0.694444904041E+03   -0.40762E-03   -0.15527E-06  5006   0.264E-03    0.455E-03
RMM:  43    -0.694445379944E+03   -0.47590E-03   -0.18994E-06  5242   0.267E-03    0.397E-03
RMM:  44    -0.694445800096E+03   -0.42015E-03   -0.17106E-06  5077   0.265E-03    0.352E-03
RMM:  45    -0.694446002690E+03   -0.20259E-03   -0.83340E-07  4317   0.253E-03    0.314E-03
RMM:  46    -0.694446170558E+03   -0.16787E-03   -0.59333E-07  3959   0.244E-03    0.286E-03
RMM:  47    -0.694446320697E+03   -0.15014E-03   -0.40474E-07  3798   0.242E-03    0.253E-03
RMM:  48    -0.694446457970E+03   -0.13727E-03   -0.33316E-07  3726   0.241E-03    0.232E-03
RMM:  49    -0.694446546939E+03   -0.88969E-04   -0.17391E-07  3519   0.239E-03
  15 F= -.69444655E+03 E0= -.69403603E+03  d E =-.104427E+00  mag=    82.5354
       N       E                     dE             d eps       ncg     rms          rms(c)
DAV:   1    -0.694452877682E+03   -0.64197E-02   -0.24066E-01 23248   0.667E-01    0.158E-01
RMM:   2    -0.694453418171E+03   -0.54049E-03   -0.66604E-03 21447   0.132E-01    0.199E-01
RMM:   3    -0.694453483551E+03   -0.65380E-04   -0.11047E-03 19651   0.557E-02    0.929E-02
RMM:   4    -0.694453523058E+03   -0.39507E-04   -0.25928E-04 14900   0.286E-02    0.819E-02
RMM:   5    -0.694453519992E+03    0.30659E-05   -0.88298E-05 12213   0.176E-02    0.478E-02
RMM:   6    -0.694453531099E+03   -0.11107E-04   -0.36308E-05 11250   0.102E-02    0.381E-02
RMM:   7    -0.694453541158E+03   -0.10059E-04   -0.29057E-05 11072   0.947E-03    0.336E-02
RMM:   8    -0.694453542299E+03   -0.11409E-05   -0.14027E-05 10665   0.673E-03
  16 F= -.69445354E+03 E0= -.69404289E+03  d E =-.111423E+00  mag=    82.5345
       N       E                     dE             d eps       ncg     rms          rms(c)
DAV:   1    -0.693553747191E+03    0.89979E+00   -0.75659E+01 22784   0.118E+01    0.222E+00
RMM:   2    -0.693734380607E+03   -0.18063E+00   -0.17635E+00 22400   0.221E+00    0.200E+00
RMM:   3    -0.693770646389E+03   -0.36266E-01   -0.29796E-01 22952   0.879E-01    0.146E+00
RMM:   4    -0.693770206313E+03    0.44008E-03   -0.61987E-02 26426   0.408E-01    0.102E+00
RMM:   5    -0.693769024060E+03    0.11823E-02   -0.20463E-02 27596   0.204E-01    0.851E-01
RMM:   6    -0.693765338661E+03    0.36854E-02   -0.73926E-03 25820   0.121E-01    0.476E-01
RMM:   7    -0.693765385548E+03   -0.46887E-04   -0.53089E-03 23820   0.112E-01    0.489E-01
RMM:   8    -0.693764900746E+03    0.48480E-03   -0.27764E-03 23079   0.885E-02    0.165E-01
RMM:   9    -0.693764968627E+03   -0.67881E-04   -0.11021E-03 25237   0.417E-02    0.104E-01
RMM:  10    -0.693764952089E+03    0.16538E-04   -0.35905E-04 19333   0.229E-02
  17 F= -.69376495E+03 E0= -.69335675E+03  d E =0.688590E+00  mag=    82.5346
       N       E                     dE             d eps       ncg     rms          rms(c)
DAV:   1    -0.694288987527E+03   -0.52402E+00   -0.29927E+01 23280   0.746E+00    0.138E+00
RMM:   2    -0.694358041905E+03   -0.69054E-01   -0.68782E-01 22400   0.137E+00    0.126E+00
RMM:   3    -0.694373082075E+03   -0.15040E-01   -0.11438E-01 22763   0.542E-01    0.869E-01
RMM:   4    -0.694373127419E+03   -0.45343E-04   -0.24082E-02 25977   0.245E-01    0.618E-01
RMM:   5    -0.694372868342E+03    0.25908E-03   -0.71120E-03 25233   0.126E-01    0.522E-01
RMM:   6    -0.694371767079E+03    0.11013E-02   -0.28972E-03 23210   0.759E-02    0.317E-01
RMM:   7    -0.694372095766E+03   -0.32869E-03   -0.20953E-03 21908   0.708E-02    0.339E-01
RMM:   8    -0.694371915311E+03    0.18046E-03   -0.11145E-03 20627   0.569E-02    0.113E-01
RMM:   9    -0.694371982385E+03   -0.67075E-04   -0.41705E-04 18183   0.263E-02
  18 F= -.69437198E+03 E0= -.69396275E+03  d E =0.815599E-01  mag=    82.5343
       N       E                     dE             d eps       ncg     rms          rms(c)
DAV:   1    -0.694475924524E+03   -0.10401E+00   -0.36142E+00 23536   0.259E+00    0.483E-01
RMM:   2    -0.694483962877E+03   -0.80384E-02   -0.83282E-02 22372   0.478E-01    0.420E-01
RMM:   3    -0.694486540505E+03   -0.25776E-02   -0.14322E-02 22902   0.190E-01    0.342E-01
RMM:   4    -0.694486511640E+03    0.28864E-04   -0.31246E-03 25280   0.885E-02    0.249E-01
RMM:   5    -0.694486447536E+03    0.64104E-04   -0.10846E-03 22033   0.456E-02    0.171E-01
RMM:   6    -0.694486376147E+03    0.71390E-04   -0.39423E-04 17693   0.267E-02    0.108E-01
RMM:   7    -0.694486469880E+03   -0.93733E-04   -0.27457E-04 16048   0.269E-02    0.128E-01
RMM:   8    -0.694486468622E+03    0.12573E-05   -0.15360E-04 13920   0.223E-02
  19 F= -.69448647E+03 E0= -.69407649E+03  d E =-.329263E-01  mag=    82.5336
       N       E                     dE             d eps       ncg     rms          rms(c)
DAV:   1    -0.694488674366E+03   -0.22045E-02   -0.85178E-02 23872   0.398E-01    0.818E-02
RMM:   2    -0.694488884594E+03   -0.21023E-03   -0.20221E-03 20797   0.754E-02    0.784E-02
RMM:   3    -0.694488986801E+03   -0.10221E-03   -0.38784E-04 16193   0.318E-02    0.674E-02
RMM:   4    -0.694488994788E+03   -0.79870E-05   -0.83125E-05 12443   0.177E-02    0.413E-02
RMM:   5    -0.694489008807E+03   -0.14018E-04   -0.32835E-05 11493   0.995E-03    0.321E-02
RMM:   6    -0.694489028621E+03   -0.19815E-04   -0.14627E-05 10508   0.674E-03    0.180E-02
RMM:   7    -0.694489056624E+03   -0.28003E-04   -0.10815E-05 10468   0.593E-03    0.205E-02
RMM:   8    -0.694489078718E+03   -0.22094E-04   -0.62468E-06  9863   0.489E-03
  20 F= -.69448908E+03 E0= -.69407895E+03  d E =-.355364E-01  mag=    82.5330
       N       E                     dE             d eps       ncg     rms          rms(c)
DAV:   1    -0.694171135533E+03    0.31792E+00   -0.40471E+01 22624   0.820E+00    0.176E+00
RMM:   2    -0.694265370444E+03   -0.94235E-01   -0.91657E-01 22400   0.149E+00    0.172E+00
RMM:   3    -0.694283680027E+03   -0.18310E-01   -0.15505E-01 22920   0.613E-01    0.110E+00
RMM:   4    -0.694283858122E+03   -0.17809E-03   -0.32203E-02 25390   0.301E-01    0.714E-01
RMM:   5    -0.694283379523E+03    0.47860E-03   -0.12040E-02 25595   0.160E-01    0.536E-01
RMM:   6    -0.694281957676E+03    0.14218E-02   -0.45265E-03 24895   0.882E-02    0.296E-01
RMM:   7    -0.694282178965E+03   -0.22129E-03   -0.28898E-03 23736   0.764E-02    0.356E-01
RMM:   8    -0.694281952850E+03    0.22612E-03   -0.12771E-03 22987   0.528E-02    0.171E-01
RMM:   9    -0.694282096919E+03   -0.14407E-03   -0.55075E-04 20663   0.277E-02    0.110E-01
RMM:  10    -0.694282215375E+03   -0.11846E-03   -0.19384E-04 15682   0.192E-02    0.588E-02
RMM:  11    -0.694282410291E+03   -0.19492E-03   -0.12894E-04 13866   0.142E-02    0.491E-02
RMM:  12    -0.694282672501E+03   -0.26221E-03   -0.88068E-05 13369   0.129E-02    0.390E-02
RMM:  13    -0.694282831424E+03   -0.15892E-03   -0.50949E-05 12345   0.942E-03    0.263E-02
RMM:  14    -0.694282955776E+03   -0.12435E-03   -0.28057E-05 11239   0.735E-03    0.229E-02
RMM:  15    -0.694283059856E+03   -0.10408E-03   -0.17278E-05 10448   0.573E-03    0.188E-02
RMM:  16    -0.694283207473E+03   -0.14762E-03   -0.13973E-05 10357   0.517E-03    0.179E-02
RMM:  17    -0.694283303195E+03   -0.95721E-04   -0.12722E-05 10374   0.493E-03
  21 F= -.69428330E+03 E0= -.69387501E+03  d E =0.205776E+00  mag=    82.5266
       N       E                     dE             d eps       ncg     rms          rms(c)
DAV:   1    -0.694477874113E+03   -0.19467E+00   -0.23896E+01 23200   0.630E+00    0.134E+00
RMM:   2    -0.694530025951E+03   -0.52152E-01   -0.51683E-01 22400   0.112E+00    0.128E+00
RMM:   3    -0.694542455811E+03   -0.12430E-01   -0.90651E-02 22765   0.464E-01    0.863E-01
RMM:   4    -0.694541832085E+03    0.62373E-03   -0.17945E-02 24483   0.226E-01    0.542E-01
RMM:   5    -0.694541546017E+03    0.28607E-03   -0.66492E-03 24150   0.123E-01    0.430E-01
RMM:   6    -0.694540690976E+03    0.85504E-03   -0.25460E-03 22984   0.683E-02    0.250E-01
RMM:   7    -0.694540973006E+03   -0.28203E-03   -0.16155E-03 22165   0.570E-02    0.327E-01
RMM:   8    -0.694540659992E+03    0.31301E-03   -0.77771E-04 20770   0.430E-02    0.129E-01
RMM:   9    -0.694540823875E+03   -0.16388E-03   -0.32645E-04 16910   0.237E-02    0.783E-02
RMM:  10    -0.694540967111E+03   -0.14324E-03   -0.11068E-04 13483   0.171E-02    0.492E-02
RMM:  11    -0.694541132384E+03   -0.16527E-03   -0.58384E-05 12583   0.114E-02    0.347E-02
RMM:  12    -0.694541377747E+03   -0.24536E-03   -0.39855E-05 12152   0.929E-03    0.274E-02
RMM:  13    -0.694541545256E+03   -0.16751E-03   -0.23229E-05 11490   0.743E-03    0.183E-02
RMM:  14    -0.694541641305E+03   -0.96049E-04   -0.12702E-05 10419   0.579E-03
  22 F= -.69454164E+03 E0= -.69413201E+03  d E =-.525626E-01  mag=    82.5250
       N       E                     dE             d eps       ncg     rms          rms(c)
DAV:   1    -0.694535795696E+03    0.57496E-02   -0.12763E+00 23264   0.146E+00    0.311E-01
RMM:   2    -0.694538424373E+03   -0.26287E-02   -0.27473E-02 22197   0.260E-01    0.298E-01
RMM:   3    -0.694539484207E+03   -0.10598E-02   -0.46063E-03 21554   0.107E-01    0.198E-01
RMM:   4    -0.694539585320E+03   -0.10111E-03   -0.99967E-04 20193   0.533E-02    0.126E-01
RMM:   5    -0.694539659355E+03   -0.74035E-04   -0.37447E-04 16395   0.304E-02    0.993E-02
RMM:   6    -0.694539728953E+03   -0.69598E-04   -0.13819E-04 13164   0.179E-02    0.562E-02
RMM:   7    -0.694539860358E+03   -0.13140E-03   -0.82259E-05 12580   0.148E-02    0.748E-02
RMM:   8    -0.694539894241E+03   -0.33883E-04   -0.39315E-05 11796   0.117E-02
  23 F= -.69453989E+03 E0= -.69413054E+03  d E =-.508155E-01  mag=    82.5241
       N       E                     dE             d eps       ncg     rms          rms(c)
DAV:   1    -0.694548806492E+03   -0.89461E-02   -0.43437E-01 23360   0.850E-01    0.182E-01
RMM:   2    -0.694549555051E+03   -0.74856E-03   -0.92541E-03 21827   0.151E-01    0.180E-01
RMM:   3    -0.694549921890E+03   -0.36684E-03   -0.15551E-03 19965   0.625E-02    0.118E-01
RMM:   4    -0.694549913785E+03    0.81044E-05   -0.34464E-04 15736   0.322E-02    0.802E-02
RMM:   5    -0.694549895661E+03    0.18124E-04   -0.12320E-04 12599   0.192E-02    0.565E-02
RMM:   6    -0.694549862803E+03    0.32858E-04   -0.48259E-05 11372   0.110E-02    0.288E-02
RMM:   7    -0.694549857037E+03    0.57658E-05   -0.27464E-05 11240   0.816E-03    0.306E-02
RMM:   8    -0.694549861122E+03   -0.40848E-05   -0.12461E-05 10416   0.662E-03
  24 F= -.69454986E+03 E0= -.69414030E+03  d E =-.607824E-01  mag=    82.5233
       N       E                     dE             d eps       ncg     rms          rms(c)
DAV:   1    -0.694531510999E+03    0.18346E-01   -0.45691E+00 23456   0.264E+00    0.578E-01
RMM:   2    -0.694539918236E+03   -0.84072E-02   -0.94063E-02 22400   0.438E-01    0.624E-01
RMM:   3    -0.694542815091E+03   -0.28969E-02   -0.15850E-02 22138   0.190E-01    0.393E-01
RMM:   4    -0.694543040289E+03   -0.22520E-03   -0.34812E-03 21994   0.975E-02    0.257E-01
RMM:   5    -0.694542997424E+03    0.42865E-04   -0.12978E-03 21108   0.514E-02    0.160E-01
RMM:   6    -0.694542967538E+03    0.29885E-04   -0.48860E-04 17973   0.267E-02    0.120E-01
RMM:   7    -0.694543035584E+03   -0.68045E-04   -0.29942E-04 16362   0.250E-02    0.143E-01
RMM:   8    -0.694542986015E+03    0.49569E-04   -0.15826E-04 13780   0.208E-02
  25 F= -.69454299E+03 E0= -.69413394E+03  d E =0.687511E-02  mag=    82.5224
       N       E                     dE             d eps       ncg     rms          rms(c)
DAV:   1    -0.694566883996E+03   -0.23848E-01   -0.16030E+00 24096   0.156E+00    0.346E-01
RMM:   2    -0.694569604616E+03   -0.27206E-02   -0.32556E-02 22199   0.258E-01    0.382E-01
RMM:   3    -0.694570764160E+03   -0.11595E-02   -0.54826E-03 21066   0.112E-01    0.230E-01
RMM:   4    -0.694570867818E+03   -0.10366E-03   -0.12215E-03 19476   0.579E-02    0.155E-01
RMM:   5    -0.694570826591E+03    0.41227E-04   -0.42529E-04 16727   0.313E-02    0.957E-02
RMM:   6    -0.694570759009E+03    0.67582E-04   -0.16273E-04 13580   0.173E-02    0.673E-02
RMM:   7    -0.694570700913E+03    0.58096E-04   -0.10430E-04 12713   0.163E-02    0.873E-02
RMM:   8    -0.694570647949E+03    0.52963E-04   -0.57100E-05 11742   0.139E-02
  26 F= -.69457065E+03 E0= -.69416132E+03  d E =-.207868E-01  mag=    82.5216
       N       E                     dE             d eps       ncg     rms          rms(c)
DAV:   1    -0.694607340671E+03   -0.36640E-01   -0.10231E+00 23680   0.135E+00    0.273E-01
RMM:   2    -0.694609095782E+03   -0.17551E-02   -0.24002E-02 22172   0.250E-01    0.294E-01
RMM:   3    -0.694609849812E+03   -0.75403E-03   -0.39931E-03 21392   0.104E-01    0.174E-01
RMM:   4    -0.694609968128E+03   -0.11832E-03   -0.90935E-04 19799   0.523E-02    0.140E-01
RMM:   5    -0.694609950390E+03    0.17738E-04   -0.27938E-04 15401   0.270E-02    0.737E-02
RMM:   6    -0.694609981404E+03   -0.31014E-04   -0.11980E-04 12984   0.162E-02    0.770E-02
RMM:   7    -0.694609999806E+03   -0.18402E-04   -0.79957E-05 12598   0.146E-02    0.675E-02
RMM:   8    -0.694610012255E+03   -0.12449E-04   -0.47170E-05 11729   0.125E-02
  27 F= -.69461001E+03 E0= -.69420062E+03  d E =-.393643E-01  mag=    82.5211
       N       E                     dE             d eps       ncg     rms          rms(c)
DAV:   1    -0.694610160382E+03   -0.16058E-03   -0.35837E-03 23216   0.821E-02    0.208E-02
RMM:   2    -0.694610183350E+03   -0.22967E-04   -0.10049E-04 12643   0.164E-02    0.295E-02
RMM:   3    -0.694610192765E+03   -0.94157E-05   -0.19212E-05 11117   0.871E-03    0.143E-02
RMM:   4    -0.694610205189E+03   -0.12424E-04   -0.50149E-06  9644   0.443E-03    0.119E-02
RMM:   5    -0.694610214834E+03   -0.96448E-05   -0.17083E-06  6582   0.306E-03    0.691E-03
RMM:   6    -0.694610229147E+03   -0.14313E-04   -0.67092E-07  4786   0.269E-03    0.464E-03
RMM:   7    -0.694610246111E+03   -0.16964E-04   -0.42793E-07  4305   0.264E-03    0.365E-03
RMM:   8    -0.694610260219E+03   -0.14109E-04   -0.24077E-07  3848   0.257E-03
  28 F= -.69461026E+03 E0= -.69420082E+03  d E =-.396123E-01  mag=    82.5206
       N       E                     dE             d eps       ncg     rms          rms(c)
DAV:   1    -0.694627755561E+03   -0.17509E-01   -0.46812E-01 23520   0.874E-01    0.165E-01
RMM:   2    -0.694628545279E+03   -0.78972E-03   -0.98223E-03 21940   0.153E-01    0.139E-01
RMM:   3    -0.694628987435E+03   -0.44216E-03   -0.17276E-03 19986   0.622E-02    0.118E-01
RMM:   4    -0.694628966819E+03    0.20617E-04   -0.38023E-04 16233   0.308E-02    0.775E-02
RMM:   5    -0.694628959011E+03    0.78073E-05   -0.10278E-04 12559   0.167E-02    0.479E-02
RMM:   6    -0.694628945944E+03    0.13067E-04   -0.41943E-05 11706   0.102E-02    0.360E-02
RMM:   7    -0.694628939775E+03    0.61691E-05   -0.32896E-05 11304   0.931E-03    0.415E-02
RMM:   8    -0.694628933203E+03    0.65714E-05   -0.19092E-05 10620   0.813E-03
  29 F= -.69462893E+03 E0= -.69421940E+03  d E =-.186730E-01  mag=    82.5203
       N       E                     dE             d eps       ncg     rms          rms(c)
DAV:   1    -0.694629082756E+03   -0.14298E-03   -0.36470E-03 23264   0.774E-02    0.174E-02
RMM:   2    -0.694629093615E+03   -0.10859E-04   -0.85822E-05 12551   0.141E-02    0.150E-02
RMM:   3    -0.694629103373E+03   -0.97575E-05   -0.14482E-05 10766   0.702E-03    0.133E-02
RMM:   4    -0.694629107406E+03   -0.40336E-05   -0.37755E-06  8674   0.392E-03    0.794E-03
RMM:   5    -0.694629112369E+03   -0.49630E-05   -0.12805E-06  5102   0.282E-03    0.498E-03
RMM:   6    -0.694629118495E+03   -0.61253E-05   -0.35724E-07  3426   0.244E-03    0.348E-03
RMM:   7    -0.694629127732E+03   -0.92378E-05   -0.22339E-07  3363   0.245E-03    0.366E-03
RMM:   8    -0.694629135651E+03   -0.79181E-05   -0.15886E-07  3186   0.245E-03
  30 F= -.69462914E+03 E0= -.69421962E+03  d E =-.188754E-01  mag=    82.5200
       N       E                     dE             d eps       ncg     rms          rms(c)
DAV:   1    -0.694634651733E+03   -0.55240E-02   -0.13318E-01 23120   0.477E-01    0.100E-01
RMM:   2    -0.694634907147E+03   -0.25541E-03   -0.29449E-03 20523   0.844E-02    0.106E-01
RMM:   3    -0.694635020340E+03   -0.11319E-03   -0.51179E-04 16847   0.359E-02    0.643E-02
RMM:   4    -0.694635035025E+03   -0.14685E-04   -0.11328E-04 12672   0.189E-02    0.546E-02
RMM:   5    -0.694635028753E+03    0.62715E-05   -0.37810E-05 11298   0.117E-02    0.321E-02
RMM:   6    -0.694635030295E+03   -0.15413E-05   -0.16070E-05 10241   0.651E-03    0.243E-02
RMM:   7    -0.694635031662E+03   -0.13672E-05   -0.12973E-05 10234   0.649E-03    0.195E-02
RMM:   8    -0.694635033334E+03   -0.16717E-05   -0.66088E-06  9472   0.474E-03
  31 F= -.69463503E+03 E0= -.69422549E+03  d E =-.589768E-02  mag=    82.5196
       N       E                     dE             d eps       ncg     rms          rms(c)
DAV:   1    -0.694635123969E+03   -0.92307E-04   -0.35896E-03 23072   0.787E-02    0.179E-02
RMM:   2    -0.694635138380E+03   -0.14411E-04   -0.87613E-05 12424   0.146E-02    0.219E-02
RMM:   3    -0.694635142476E+03   -0.40960E-05   -0.14884E-05 10340   0.754E-03    0.134E-02
RMM:   4    -0.694635143851E+03   -0.13746E-05   -0.36831E-06  8081   0.394E-03    0.877E-03
RMM:   5    -0.694635145629E+03   -0.17779E-05   -0.10501E-06  4756   0.280E-03    0.475E-03
RMM:   6    -0.694635148736E+03   -0.31069E-05   -0.28984E-07  3298   0.241E-03    0.420E-03
RMM:   7    -0.694635152603E+03   -0.38669E-05   -0.25510E-07  3387   0.243E-03    0.383E-03
RMM:   8    -0.694635154890E+03   -0.22873E-05   -0.75177E-08  2647   0.230E-03
  32 F= -.69463515E+03 E0= -.69422562E+03  d E =-.601924E-02  mag=    82.5192
       N       E                     dE             d eps       ncg     rms          rms(c)
DAV:   1    -0.694637613424E+03   -0.24608E-02   -0.60052E-02 23040   0.316E-01    0.713E-02
RMM:   2    -0.694637742607E+03   -0.12918E-03   -0.11696E-03 18642   0.539E-02    0.473E-02
RMM:   3    -0.694637807512E+03   -0.64905E-04   -0.21828E-04 13989   0.233E-02    0.590E-02
RMM:   4    -0.694637797430E+03    0.10082E-04   -0.50023E-05 11847   0.136E-02    0.265E-02
RMM:   5    -0.694637808104E+03   -0.10674E-04   -0.16861E-05 10506   0.695E-03    0.227E-02
RMM:   6    -0.694637816073E+03   -0.79693E-05   -0.86088E-06  9758   0.531E-03    0.133E-02
RMM:   7    -0.694637827966E+03   -0.11893E-04   -0.59417E-06  9471   0.442E-03    0.134E-02
RMM:   8    -0.694637831780E+03   -0.38138E-05   -0.22031E-06  6890   0.336E-03
  33 F= -.69463783E+03 E0= -.69422825E+03  d E =-.267689E-02  mag=    82.5187
       N       E                     dE             d eps       ncg     rms          rms(c)
DAV:   1    -0.694638535826E+03   -0.70786E-03   -0.49745E-02 23328   0.287E-01    0.656E-02
RMM:   2    -0.694638642794E+03   -0.10697E-03   -0.97334E-04 18182   0.491E-02    0.446E-02
RMM:   3    -0.694638697799E+03   -0.55005E-04   -0.18452E-04 13675   0.218E-02    0.569E-02
RMM:   4    -0.694638688624E+03    0.91754E-05   -0.45349E-05 11717   0.130E-02    0.235E-02
RMM:   5    -0.694638698316E+03   -0.96923E-05   -0.14878E-05 10360   0.646E-03    0.211E-02
RMM:   6    -0.694638704684E+03   -0.63675E-05   -0.75141E-06  9655   0.504E-03    0.125E-02
RMM:   7    -0.694638714055E+03   -0.93710E-05   -0.49593E-06  9109   0.413E-03    0.115E-02
RMM:   8    -0.694638717325E+03   -0.32708E-05   -0.18338E-06  6270   0.320E-03
  34 F= -.69463872E+03 E0= -.69422906E+03  d E =-.356244E-02  mag=    82.5182
       N       E                     dE             d eps       ncg     rms          rms(c)
DAV:   1    -0.694641149562E+03   -0.24355E-02   -0.68097E-02 23376   0.333E-01    0.894E-02
RMM:   2    -0.694641285202E+03   -0.13564E-03   -0.13982E-03 18977   0.584E-02    0.700E-02
RMM:   3    -0.694641369727E+03   -0.84525E-04   -0.26823E-04 14765   0.269E-02    0.685E-02
RMM:   4    -0.694641362635E+03    0.70911E-05   -0.73492E-05 12119   0.162E-02    0.294E-02
RMM:   5    -0.694641371329E+03   -0.86939E-05   -0.23178E-05 10715   0.836E-03    0.246E-02
RMM:   6    -0.694641380109E+03   -0.87796E-05   -0.10231E-05  9733   0.546E-03    0.168E-02
RMM:   7    -0.694641388298E+03   -0.81891E-05   -0.66951E-06  9623   0.473E-03    0.191E-02
RMM:   8    -0.694641389963E+03   -0.16652E-05   -0.33352E-06  8474   0.380E-03
  35 F= -.69464139E+03 E0= -.69423161E+03  d E =-.267264E-02  mag=    82.5178
       N       E                     dE             d eps       ncg     rms          rms(c)
DAV:   1    -0.694642173851E+03   -0.78555E-03   -0.11179E-01 23408   0.426E-01    0.114E-01
RMM:   2    -0.694642397393E+03   -0.22354E-03   -0.22921E-03 20182   0.748E-02    0.888E-02
RMM:   3    -0.694642528185E+03   -0.13079E-03   -0.43727E-04 16270   0.340E-02    0.850E-02
RMM:   4    -0.694642514947E+03    0.13238E-04   -0.11752E-04 12996   0.199E-02    0.380E-02
RMM:   5    -0.694642526531E+03   -0.11584E-04   -0.37738E-05 11338   0.106E-02    0.321E-02
RMM:   6    -0.694642535892E+03   -0.93617E-05   -0.16339E-05 10782   0.672E-03    0.231E-02
RMM:   7    -0.694642543605E+03   -0.77123E-05   -0.10667E-05 10292   0.585E-03    0.238E-02
RMM:   8    -0.694642544311E+03   -0.70687E-06   -0.55576E-06  9571   0.459E-03
  36 F= -.69464254E+03 E0= -.69423264E+03  d E =-.382699E-02  mag=    82.5173
       N       E                     dE             d eps       ncg     rms          rms(c)
DAV:   1    -0.694643743158E+03   -0.11996E-02   -0.43571E-02 24336   0.260E-01    0.778E-02
RMM:   2    -0.694643854448E+03   -0.11129E-03   -0.83575E-04 17527   0.442E-02    0.466E-02
RMM:   3    -0.694643901736E+03   -0.47289E-04   -0.14617E-04 13408   0.195E-02    0.461E-02
RMM:   4    -0.694643899410E+03    0.23264E-05   -0.42024E-05 11501   0.121E-02    0.235E-02
RMM:   5    -0.694643906269E+03   -0.68592E-05   -0.13459E-05 10228   0.640E-03    0.187E-02
RMM:   6    -0.694643910307E+03   -0.40373E-05   -0.67575E-06  9515   0.461E-03    0.149E-02
RMM:   7    -0.694643912124E+03   -0.18170E-05   -0.40880E-06  9189   0.414E-03    0.129E-02
RMM:   8    -0.694643912044E+03    0.79162E-07   -0.12527E-06  5679   0.291E-03
  37 F= -.69464391E+03 E0= -.69423394E+03  d E =-.136773E-02  mag=    82.5169
       N       E                     dE             d eps       ncg     rms          rms(c)
DAV:   1    -0.694644128993E+03   -0.21687E-03   -0.25441E-01 23968   0.628E-01    0.188E-01
RMM:   2    -0.694644779203E+03   -0.65021E-03   -0.48513E-03 21424   0.107E-01    0.116E-01
RMM:   3    -0.694645025306E+03   -0.24610E-03   -0.87603E-04 18158   0.467E-02    0.126E-01
RMM:   4    -0.694644975669E+03    0.49638E-04   -0.24178E-04 14511   0.268E-02    0.544E-02
RMM:   5    -0.694644992961E+03   -0.17292E-04   -0.76123E-05 12443   0.141E-02    0.471E-02
RMM:   6    -0.694644998001E+03   -0.50403E-05   -0.34353E-05 11771   0.104E-02    0.363E-02
RMM:   7    -0.694645003339E+03   -0.53383E-05   -0.23766E-05 11191   0.870E-03    0.290E-02
RMM:   8    -0.694645001207E+03    0.21327E-05   -0.10035E-05 10268   0.593E-03
  38 F= -.69464500E+03 E0= -.69423487E+03  d E =-.245690E-02  mag=    82.5163
       N       E                     dE             d eps       ncg     rms          rms(c)
DAV:   1    -0.694646907393E+03   -0.19041E-02   -0.62741E-02 24272   0.322E-01    0.103E-01
RMM:   2    -0.694647086831E+03   -0.17944E-03   -0.13684E-03 19362   0.572E-02    0.976E-02
RMM:   3    -0.694647140129E+03   -0.53299E-04   -0.26809E-04 14763   0.253E-02    0.628E-02
RMM:   4    -0.694647136457E+03    0.36722E-05   -0.68235E-05 12365   0.156E-02    0.513E-02
RMM:   5    -0.694647127623E+03    0.88345E-05   -0.23598E-05 11424   0.919E-03    0.261E-02
RMM:   6    -0.694647126604E+03    0.10189E-05   -0.10252E-05 10291   0.585E-03    0.196E-02
RMM:   7    -0.694647125787E+03    0.81677E-06   -0.83119E-06  9987   0.537E-03    0.170E-02
RMM:   8    -0.694647123670E+03    0.21169E-05   -0.41115E-06  8855   0.408E-03
  39 F= -.69464712E+03 E0= -.69423696E+03  d E =-.212246E-02  mag=    82.5158
       N       E                     dE             d eps       ncg     rms          rms(c)
DAV:   1    -0.694648001211E+03   -0.87542E-03   -0.11493E-01 24048   0.436E-01    0.139E-01
RMM:   2    -0.694648319491E+03   -0.31828E-03   -0.24969E-03 20796   0.776E-02    0.129E-01
RMM:   3    -0.694648412653E+03   -0.93162E-04   -0.48020E-04 16673   0.338E-02    0.761E-02
RMM:   4    -0.694648418441E+03   -0.57882E-05   -0.12335E-04 13019   0.200E-02    0.677E-02
RMM:   5    -0.694648404822E+03    0.13620E-04   -0.43230E-05 11811   0.125E-02    0.352E-02
RMM:   6    -0.694648405857E+03   -0.10356E-05   -0.17671E-05 11018   0.736E-03    0.256E-02
RMM:   7    -0.694648407681E+03   -0.18235E-05   -0.13995E-05 10554   0.689E-03    0.225E-02
RMM:   8    -0.694648405876E+03    0.18049E-05   -0.70218E-06  9870   0.506E-03
  40 F= -.69464841E+03 E0= -.69423823E+03  d E =-.340467E-02  mag=    82.5151
       N       E                     dE             d eps       ncg     rms          rms(c)
DAV:   1    -0.694650351572E+03   -0.19439E-02   -0.45250E-02 23808   0.269E-01    0.827E-02
RMM:   2    -0.694650473003E+03   -0.12143E-03   -0.91561E-04 18010   0.457E-02    0.695E-02
RMM:   3    -0.694650499804E+03   -0.26801E-04   -0.17610E-04 13629   0.204E-02    0.453E-02
RMM:   4    -0.694650497955E+03    0.18487E-05   -0.47855E-05 11916   0.132E-02    0.375E-02
RMM:   5    -0.694650494376E+03    0.35791E-05   -0.17249E-05 10727   0.775E-03    0.213E-02
RMM:   6    -0.694650491524E+03    0.28526E-05   -0.75127E-06  9551   0.490E-03    0.169E-02
RMM:   7    -0.694650486697E+03    0.48270E-05   -0.54049E-06  9396   0.443E-03    0.141E-02
RMM:   8    -0.694650482633E+03    0.40634E-05   -0.25127E-06  7553   0.344E-03
  41 F= -.69465048E+03 E0= -.69424030E+03  d E =-.207676E-02  mag=    82.5145
       N       E                     dE             d eps       ncg     rms          rms(c)
DAV:   1    -0.694656461913E+03   -0.59752E-02   -0.40737E-01 23936   0.807E-01    0.247E-01
RMM:   2    -0.694657552486E+03   -0.10906E-02   -0.81363E-03 21944   0.136E-01    0.209E-01
RMM:   3    -0.694657794240E+03   -0.24175E-03   -0.15583E-03 20472   0.588E-02    0.143E-01
RMM:   4    -0.694657785055E+03    0.91847E-05   -0.40043E-04 16789   0.329E-02    0.119E-01
RMM:   5    -0.694657740480E+03    0.44575E-04   -0.12954E-04 13181   0.195E-02    0.636E-02
RMM:   6    -0.694657741597E+03   -0.11167E-05   -0.62079E-05 12144   0.130E-02    0.495E-02
RMM:   7    -0.694657745022E+03   -0.34254E-05   -0.45722E-05 11796   0.119E-02    0.404E-02
RMM:   8    -0.694657741579E+03    0.34431E-05   -0.22552E-05 11244   0.854E-03
  42 F= -.69465774E+03 E0= -.69424754E+03  d E =-.933570E-02  mag=    82.5139
       N       E                     dE             d eps       ncg     rms          rms(c)
DAV:   1    -0.694670601466E+03   -0.12856E-01   -0.16265E+00 23776   0.161E+00    0.495E-01
RMM:   2    -0.694674957532E+03   -0.43561E-02   -0.32298E-02 22393   0.273E-01    0.416E-01
RMM:   3    -0.694675855627E+03   -0.89810E-03   -0.62180E-03 23392   0.119E-01    0.289E-01
RMM:   4    -0.694675801161E+03    0.54467E-04   -0.16500E-03 21571   0.664E-02    0.233E-01
RMM:   5    -0.694675638189E+03    0.16297E-03   -0.56411E-04 18901   0.363E-02    0.126E-01
RMM:   6    -0.694675636381E+03    0.18077E-05   -0.24271E-04 15458   0.233E-02    0.102E-01
RMM:   7    -0.694675644953E+03   -0.85719E-05   -0.17490E-04 14292   0.223E-02    0.811E-02
RMM:   8    -0.694675642055E+03    0.28973E-05   -0.88617E-05 12537   0.157E-02
  43 F= -.69467564E+03 E0= -.69426539E+03  d E =-.272362E-01  mag=    82.5132
       N       E                     dE             d eps       ncg     rms          rms(c)
DAV:   1    -0.694617780772E+03    0.57864E-01   -0.65048E+00 23440   0.323E+00    0.986E-01
RMM:   2    -0.694635922888E+03   -0.18142E-01   -0.13182E-01 22400   0.551E-01    0.854E-01
RMM:   3    -0.694639731674E+03   -0.38088E-02   -0.25649E-02 24022   0.246E-01    0.666E-01
RMM:   4    -0.694638656817E+03    0.10749E-02   -0.67817E-03 24776   0.137E-01    0.458E-01
RMM:   5    -0.694638053492E+03    0.60333E-03   -0.23269E-03 23966   0.704E-02    0.251E-01
RMM:   6    -0.694637989392E+03    0.64100E-04   -0.97207E-04 21631   0.457E-02    0.199E-01
RMM:   7    -0.694638011502E+03   -0.22111E-04   -0.71797E-04 20690   0.417E-02    0.155E-01
RMM:   8    -0.694637999053E+03    0.12449E-04   -0.35340E-04 17885   0.287E-02
  44 F= -.69463800E+03 E0= -.69422746E+03  d E =0.104068E-01  mag=    82.5122
       N       E                     dE             d eps       ncg     rms          rms(c)
DAV:   1    -0.694661461912E+03   -0.23450E-01   -0.42911E+00 24208   0.263E+00    0.799E-01
RMM:   2    -0.694673039257E+03   -0.11577E-01   -0.85658E-02 22400   0.441E-01    0.673E-01
RMM:   3    -0.694675217743E+03   -0.21785E-02   -0.16022E-02 23503   0.189E-01    0.467E-01
RMM:   4    -0.694675005901E+03    0.21184E-03   -0.39312E-03 23756   0.999E-02    0.376E-01
RMM:   5    -0.694674470616E+03    0.53529E-03   -0.12305E-03 21181   0.555E-02    0.205E-01
RMM:   6    -0.694674395300E+03    0.75315E-04   -0.58407E-04 19024   0.369E-02    0.161E-01
RMM:   7    -0.694674375487E+03    0.19813E-04   -0.45373E-04 18331   0.352E-02    0.131E-01
RMM:   8    -0.694674344420E+03    0.31067E-04   -0.20635E-04 14845   0.237E-02
  45 F= -.69467434E+03 E0= -.69426426E+03  d E =-.259385E-01  mag=    82.5115
       N       E                     dE             d eps       ncg     rms          rms(c)
DAV:   1    -0.694675529866E+03   -0.11544E-02   -0.98986E-02 24800   0.400E-01    0.127E-01
RMM:   2    -0.694675757456E+03   -0.22759E-03   -0.21083E-03 20304   0.692E-02    0.118E-01
RMM:   3    -0.694675852519E+03   -0.95064E-04   -0.46179E-04 16853   0.332E-02    0.992E-02
RMM:   4    -0.694675820564E+03    0.31956E-04   -0.12353E-04 13096   0.200E-02    0.560E-02
RMM:   5    -0.694675816470E+03    0.40941E-05   -0.44016E-05 11865   0.113E-02    0.341E-02
RMM:   6    -0.694675813133E+03    0.33369E-05   -0.21072E-05 11203   0.805E-03    0.233E-02
RMM:   7    -0.694675808227E+03    0.49062E-05   -0.15070E-05 10563   0.654E-03    0.212E-02
RMM:   8    -0.694675804589E+03    0.36377E-05   -0.81911E-06  9789   0.521E-03
  46 F= -.69467580E+03 E0= -.69426565E+03  d E =-.273987E-01  mag=    82.5108
       N       E                     dE             d eps       ncg     rms          rms(c)
DAV:   1    -0.694676730641E+03   -0.92241E-03   -0.21101E-02 23792   0.182E-01    0.540E-02
RMM:   2    -0.694676791222E+03   -0.60581E-04   -0.38308E-04 15300   0.298E-02    0.405E-02
RMM:   3    -0.694676809262E+03   -0.18041E-04   -0.65785E-05 12362   0.136E-02    0.393E-02
RMM:   4    -0.694676805058E+03    0.42049E-05   -0.16601E-05 10802   0.815E-03    0.241E-02
RMM:   5    -0.694676805915E+03   -0.85775E-06   -0.58461E-06  9117   0.458E-03    0.136E-02
RMM:   6    -0.694676806517E+03   -0.60163E-06   -0.29712E-06  8035   0.364E-03    0.118E-02
RMM:   7    -0.694676806406E+03    0.11083E-06   -0.20357E-06  7479   0.326E-03    0.786E-03
RMM:   8    -0.694676805019E+03    0.13867E-05   -0.38234E-07  3908   0.256E-03
  47 F= -.69467681E+03 E0= -.69426664E+03  d E =-.100043E-02  mag=    82.5102
       N       E                     dE             d eps       ncg     rms          rms(c)
DAV:   1    -0.694677083055E+03   -0.27665E-03   -0.17843E-02 23760   0.167E-01    0.492E-02
RMM:   2    -0.694677131799E+03   -0.48744E-04   -0.33215E-04 14883   0.276E-02    0.353E-02
RMM:   3    -0.694677146666E+03   -0.14867E-04   -0.60703E-05 12120   0.132E-02    0.350E-02
RMM:   4    -0.694677143631E+03    0.30352E-05   -0.18674E-05 10303   0.836E-03    0.212E-02
RMM:   5    -0.694677144336E+03   -0.70501E-06   -0.58414E-06  8754   0.449E-03    0.121E-02
RMM:   6    -0.694677144097E+03    0.23842E-06   -0.25148E-06  7087   0.335E-03    0.976E-03
RMM:   7    -0.694677143470E+03    0.62678E-06   -0.17055E-06  6593   0.309E-03    0.676E-03
RMM:   8    -0.694677142238E+03    0.12321E-05   -0.38981E-07  3540   0.256E-03
  48 F= -.69467714E+03 E0= -.69426696E+03  d E =-.133765E-02  mag=    82.5096
       N       E                     dE             d eps       ncg     rms          rms(c)
DAV:   1    -0.694678482611E+03   -0.13391E-02   -0.14698E-03 21264   0.494E-02    0.160E-02
RMM:   2    -0.694678477650E+03    0.49612E-05   -0.50434E-05 11563   0.102E-02    0.229E-02
RMM:   3    -0.694678477705E+03   -0.55879E-07   -0.75313E-06  9102   0.515E-03    0.945E-03
RMM:   4    -0.694678477616E+03    0.89407E-07   -0.13912E-06  5484   0.290E-03    0.720E-03
RMM:   5    -0.694678476768E+03    0.84843E-06   -0.39305E-07  3649   0.242E-03    0.474E-03
RMM:   6    -0.694678475716E+03    0.10515E-05   -0.30336E-08  2484   0.220E-03    0.349E-03
RMM:   7    -0.694678474287E+03    0.14296E-05   -0.62377E-08  2573   0.222E-03    0.338E-03
RMM:   8    -0.694678473365E+03    0.92108E-06   -0.21956E-08  2341   0.220E-03
  49 F= -.69467847E+03 E0= -.69426832E+03  d E =-.133113E-02  mag=    82.5090
       N       E                     dE             d eps       ncg     rms          rms(c)
[...]
RMM:   8    -0.694703632968E+03   -0.30547E-06   -0.15724E-08  2244   0.226E-03
  87 F= -.69470363E+03 E0= -.69429402E+03  d E =-.147359E-03  mag=    82.5050
       N       E                     dE             d eps       ncg     rms          rms(c)
DAV:   1    -0.694703938300E+03   -0.30564E-03   -0.14431E-02 23712   0.149E-01    0.596E-02
RMM:   2    -0.694703984675E+03   -0.46375E-04   -0.36473E-04 15405   0.295E-02    0.636E-02
RMM:   3    -0.694703995033E+03   -0.10358E-04   -0.79729E-05 12400   0.151E-02    0.431E-02
RMM:   4    -0.694703991986E+03    0.30473E-05   -0.25617E-05 11001   0.102E-02    0.259E-02
RMM:   5    -0.694703992871E+03   -0.88476E-06   -0.94440E-06  9811   0.573E-03    0.189E-02
RMM:   6    -0.694703992633E+03    0.23749E-06   -0.45493E-06  8607   0.427E-03    0.124E-02
RMM:   7    -0.694703993649E+03   -0.10161E-05   -0.22160E-06  7293   0.336E-03    0.107E-02
RMM:   8    -0.694703993455E+03    0.19465E-06   -0.53134E-07  4236   0.273E-03
  88 F= -.69470399E+03 E0= -.69429438E+03  d E =-.507846E-03  mag=    82.5047
       N       E                     dE             d eps       ncg     rms          rms(c)
DAV:   1    -0.694704145355E+03   -0.15171E-03   -0.57784E-02 23328   0.298E-01    0.119E-01
RMM:   2    -0.694704330808E+03   -0.18545E-03   -0.14343E-03 20196   0.587E-02    0.124E-01
RMM:   3    -0.694704368363E+03   -0.37555E-04   -0.31166E-04 15417   0.279E-02    0.846E-02
RMM:   4    -0.694704355771E+03    0.12592E-04   -0.97441E-05 12638   0.195E-02    0.530E-02
RMM:   5    -0.694704357187E+03   -0.14165E-05   -0.39043E-05 11590   0.112E-02    0.387E-02
RMM:   6    -0.694704356441E+03    0.74599E-06   -0.18474E-05 11149   0.791E-03    0.275E-02
RMM:   7    -0.694704358207E+03   -0.17658E-05   -0.10627E-05 10669   0.601E-03    0.234E-02
RMM:   8    -0.694704356911E+03    0.12964E-05   -0.50015E-06  9668   0.451E-03
  89 F= -.69470436E+03 E0= -.69429475E+03  d E =-.871303E-03  mag=    82.5044
       N       E                     dE             d eps       ncg     rms          rms(c)
DAV:   1    -0.694704740914E+03   -0.38271E-03   -0.57790E-03 24016   0.943E-02    0.379E-02
RMM:   2    -0.694704758184E+03   -0.17270E-04   -0.14732E-04 13196   0.190E-02    0.403E-02
RMM:   3    -0.694704762666E+03   -0.44825E-05   -0.32999E-05 11950   0.106E-02    0.267E-02
RMM:   4    -0.694704761657E+03    0.10096E-05   -0.97812E-06 10283   0.644E-03    0.166E-02
RMM:   5    -0.694704762159E+03   -0.50198E-06   -0.33947E-06  8000   0.376E-03    0.107E-02
RMM:   6    -0.694704762266E+03   -0.10710E-06   -0.15665E-06  5708   0.305E-03    0.801E-03
RMM:   7    -0.694704762460E+03   -0.19372E-06   -0.75965E-07  4737   0.283E-03    0.516E-03
RMM:   8    -0.694704762375E+03    0.84750E-07   -0.14005E-07  3123   0.251E-03
  90 F= -.69470476E+03 E0= -.69429519E+03  d E =-.405464E-03  mag=    82.5041
       N       E                     dE             d eps       ncg     rms          rms(c)
DAV:   1    -0.694704945249E+03   -0.18279E-03   -0.52179E-02 23408   0.283E-01    0.113E-01
RMM:   2    -0.694705109704E+03   -0.16446E-03   -0.12519E-03 20070   0.556E-02    0.115E-01
RMM:   3    -0.694705148737E+03   -0.39033E-04   -0.28384E-04 15113   0.272E-02    0.822E-02
RMM:   4    -0.694705134775E+03    0.13961E-04   -0.89195E-05 12588   0.192E-02    0.534E-02
RMM:   5    -0.694705138224E+03   -0.34487E-05   -0.33715E-05 11717   0.104E-02    0.354E-02
RMM:   6    -0.694705140063E+03   -0.18384E-05   -0.16674E-05 11201   0.743E-03    0.299E-02
RMM:   7    -0.694705139589E+03    0.47404E-06   -0.97977E-06 10581   0.598E-03    0.183E-02
RMM:   8    -0.694705139212E+03    0.37625E-06   -0.43244E-06  9195   0.423E-03
  91 F= -.69470514E+03 E0= -.69429559E+03  d E =-.782302E-03  mag=    82.5038
       N       E                     dE             d eps       ncg     rms          rms(c)
DAV:   1    -0.694705175249E+03   -0.35660E-04   -0.36331E-03 23696   0.747E-02    0.301E-02
RMM:   2    -0.694705185388E+03   -0.10139E-04   -0.87487E-05 12669   0.148E-02    0.332E-02
RMM:   3    -0.694705188075E+03   -0.26869E-05   -0.19759E-05 11415   0.826E-03    0.258E-02
RMM:   4    -0.694705185949E+03    0.21262E-05   -0.58530E-06  9598   0.520E-03    0.149E-02
RMM:   5    -0.694705185755E+03    0.19372E-06   -0.13480E-06  6134   0.297E-03    0.957E-03
RMM:   6    -0.694705185020E+03    0.73481E-06   -0.43228E-07  4266   0.261E-03    0.705E-03
RMM:   7    -0.694705184661E+03    0.35949E-06   -0.25293E-07  3583   0.250E-03    0.385E-03
RMM:   8    -0.694705184644E+03    0.16764E-07   -0.26412E-08  2717   0.238E-03
  92 F= -.69470518E+03 E0= -.69429565E+03  d E =-.827733E-03  mag=    82.5035
       N       E                     dE             d eps       ncg     rms          rms(c)
DAV:   1    -0.694705624101E+03   -0.43944E-03   -0.22080E-03 23424   0.639E-02    0.199E-02
RMM:   2    -0.694705626182E+03   -0.20815E-05   -0.67413E-05 12195   0.130E-02    0.242E-02
RMM:   3    -0.694705628089E+03   -0.19064E-05   -0.12101E-05 10443   0.674E-03    0.142E-02
RMM:   4    -0.694705628452E+03   -0.36322E-06   -0.28037E-06  7284   0.367E-03    0.869E-03
RMM:   5    -0.694705629358E+03   -0.90618E-06   -0.73970E-07  4370   0.266E-03    0.561E-03
RMM:   6    -0.694705630714E+03   -0.13560E-05   -0.95105E-08  2798   0.234E-03    0.353E-03
RMM:   7    -0.694705632535E+03   -0.18207E-05   -0.12267E-07  2944   0.240E-03    0.315E-03
RMM:   8    -0.694705633635E+03   -0.10999E-05   -0.24275E-08  2388   0.233E-03
  93 F= -.69470563E+03 E0= -.69429610E+03  d E =-.448991E-03  mag=    82.5032
       N       E                     dE             d eps       ncg     rms          rms(c)
DAV:   1    -0.694706079008E+03   -0.44647E-03   -0.16446E-02 23520   0.174E-01    0.533E-02
RMM:   2    -0.694706106788E+03   -0.27780E-04   -0.48835E-04 16254   0.352E-02    0.629E-02
RMM:   3    -0.694706119273E+03   -0.12484E-04   -0.90728E-05 12463   0.168E-02    0.373E-02
RMM:   4    -0.694706121046E+03   -0.17732E-05   -0.25573E-05 11009   0.967E-03    0.238E-02
RMM:   5    -0.694706124211E+03   -0.31646E-05   -0.91263E-06  9544   0.558E-03    0.168E-02
RMM:   6    -0.694706127781E+03   -0.35707E-05   -0.35623E-06  7408   0.362E-03    0.997E-03
RMM:   7    -0.694706133481E+03   -0.56997E-05   -0.24594E-06  7886   0.343E-03    0.129E-02
RMM:   8    -0.694706136098E+03   -0.26170E-05   -0.80422E-07  5606   0.289E-03
  94 F= -.69470614E+03 E0= -.69429660E+03  d E =-.951454E-03  mag=    82.5031
       N       E                     dE             d eps       ncg     rms          rms(c)
DAV:   1    -0.694706485876E+03   -0.35239E-03   -0.32583E-03 23824   0.765E-02    0.211E-02
RMM:   2    -0.694706497323E+03   -0.11447E-04   -0.76968E-05 12412   0.147E-02    0.202E-02
RMM:   3    -0.694706503103E+03   -0.57798E-05   -0.13807E-05 11125   0.760E-03    0.210E-02
RMM:   4    -0.694706503035E+03    0.67987E-07   -0.34252E-06  8894   0.409E-03    0.869E-03
RMM:   5    -0.694706506004E+03   -0.29691E-05   -0.50246E-07  3704   0.249E-03    0.638E-03
RMM:   6    -0.694706509648E+03   -0.36443E-05   -0.20975E-07  3270   0.244E-03    0.419E-03
RMM:   7    -0.694706512571E+03   -0.29234E-05   -0.82926E-08  2883   0.240E-03    0.349E-03
RMM:   8    -0.694706514573E+03   -0.20014E-05   -0.10037E-07  2746   0.240E-03
  95 F= -.69470651E+03 E0= -.69429700E+03  d E =-.378475E-03  mag=    82.5029
       N       E                     dE             d eps       ncg     rms          rms(c)
DAV:   1    -0.694706692664E+03   -0.18009E-03   -0.83448E-03 23648   0.122E-01    0.330E-02
RMM:   2    -0.694706713861E+03   -0.21197E-04   -0.19149E-04 13376   0.229E-02    0.249E-02
RMM:   3    -0.694706724870E+03   -0.11009E-04   -0.32080E-05 11720   0.107E-02    0.230E-02
RMM:   4    -0.694706724835E+03    0.35390E-07   -0.85286E-06 10041   0.593E-03    0.133E-02
RMM:   5    -0.694706728186E+03   -0.33509E-05   -0.35732E-06  8283   0.390E-03    0.115E-02
RMM:   6    -0.694706731360E+03   -0.31749E-05   -0.12704E-06  5479   0.294E-03    0.472E-03
RMM:   7    -0.694706734633E+03   -0.32727E-05   -0.36141E-07  4007   0.264E-03    0.582E-03
RMM:   8    -0.694706735722E+03   -0.10887E-05   -0.68842E-08  2910   0.246E-03
  96 F= -.69470674E+03 E0= -.69429723E+03  d E =-.599624E-03  mag=    82.5027
       N       E                     dE             d eps       ncg     rms          rms(c)
DAV:   1    -0.694706968273E+03   -0.23364E-03   -0.16078E-03 23504   0.537E-02    0.181E-02
RMM:   2    -0.694706973937E+03   -0.56643E-05   -0.45887E-05 12241   0.109E-02    0.229E-02
RMM:   3    -0.694706974774E+03   -0.83633E-06   -0.96354E-06 10435   0.615E-03    0.134E-02
RMM:   4    -0.694706974751E+03    0.22352E-07   -0.24332E-06  7578   0.346E-03    0.704E-03
RMM:   5    -0.694706974545E+03    0.20582E-06   -0.40214E-07  3628   0.247E-03    0.478E-03
RMM:   6    -0.694706973987E+03    0.55879E-06   -0.31503E-08  2667   0.227E-03    0.382E-03
RMM:   7    -0.694706973446E+03    0.54110E-06   -0.30758E-08  2585   0.231E-03    0.315E-03
RMM:   8    -0.694706972864E+03    0.58115E-06   -0.18700E-07  3053   0.240E-03
  97 F= -.69470697E+03 E0= -.69429749E+03  d E =-.237143E-03  mag=    82.5025
       N       E                     dE             d eps       ncg     rms          rms(c)
DAV:   1    -0.694707086208E+03   -0.11276E-03   -0.32836E-03 23440   0.769E-02    0.257E-02
RMM:   2    -0.694707094633E+03   -0.84247E-05   -0.92266E-05 12520   0.155E-02    0.312E-02
RMM:   3    -0.694707095831E+03   -0.11977E-05   -0.19917E-05 10945   0.849E-03    0.186E-02
RMM:   4    -0.694707095093E+03    0.73761E-06   -0.53592E-06  9168   0.471E-03    0.969E-03
RMM:   5    -0.694707093858E+03    0.12349E-05   -0.15210E-06  5766   0.305E-03    0.707E-03
RMM:   6    -0.694707091785E+03    0.20731E-05   -0.28845E-07  3495   0.251E-03    0.457E-03
RMM:   7    -0.694707089557E+03    0.22277E-05   -0.23110E-07  3436   0.250E-03    0.484E-03
RMM:   8    -0.694707087791E+03    0.17667E-05   -0.86501E-08  2751   0.241E-03
  98 F= -.69470709E+03 E0= -.69429765E+03  d E =-.352069E-03  mag=    82.5023
       N       E                     dE             d eps       ncg     rms          rms(c)
DAV:   1    -0.694707228632E+03   -0.13907E-03   -0.21981E-03 23552   0.609E-02    0.206E-02
RMM:   2    -0.694707230913E+03   -0.22817E-05   -0.61138E-05 12378   0.123E-02    0.266E-02
RMM:   3    -0.694707230684E+03    0.22911E-06   -0.12620E-05 10678   0.688E-03    0.155E-02
RMM:   4    -0.694707230021E+03    0.66310E-06   -0.32690E-06  8336   0.380E-03    0.834E-03
RMM:   5    -0.694707228758E+03    0.12629E-05   -0.50327E-07  3970   0.255E-03    0.553E-03
RMM:   6    -0.694707227541E+03    0.12172E-05   -0.33845E-08  2376   0.229E-03    0.413E-03
RMM:   7    -0.694707226044E+03    0.14966E-05   -0.50612E-08  2469   0.233E-03    0.347E-03
RMM:   8    -0.694707224980E+03    0.10645E-05   -0.14013E-07  2713   0.242E-03
  99 F= -.69470722E+03 E0= -.69429781E+03  d E =-.137189E-03  mag=    82.5021
       N       E                     dE             d eps       ncg     rms          rms(c)
DAV:   1    -0.694707279293E+03   -0.53248E-04   -0.35308E-03 23344   0.772E-02    0.257E-02
RMM:   2    -0.694707284511E+03   -0.52182E-05   -0.96865E-05 12588   0.153E-02    0.311E-02
RMM:   3    -0.694707285342E+03   -0.83074E-06   -0.19468E-05 10967   0.825E-03    0.176E-02
RMM:   4    -0.694707284700E+03    0.64168E-06   -0.50653E-06  9326   0.456E-03    0.992E-03
RMM:   5    -0.694707283473E+03    0.12275E-05   -0.12142E-06  5523   0.293E-03    0.682E-03
RMM:   6    -0.694707282241E+03    0.12312E-05   -0.15517E-07  3083   0.247E-03    0.477E-03
RMM:   7    -0.694707280895E+03    0.13467E-05   -0.13324E-07  2762   0.247E-03    0.466E-03
RMM:   8    -0.694707279989E+03    0.90618E-06   -0.14393E-07  2906   0.250E-03
 100 F= -.69470728E+03 E0= -.69429789E+03  d E =-.192198E-03  mag=    82.5019
       N       E                     dE             d eps       ncg     rms          rms(c)
DAV:   1    -0.694707382930E+03   -0.10204E-03   -0.18561E-03 23552   0.523E-02    0.207E-02
RMM:   2    -0.694707388723E+03   -0.57928E-05   -0.47497E-05 12302   0.109E-02    0.241E-02
RMM:   3    -0.694707389525E+03   -0.80187E-06   -0.11237E-05 10257   0.629E-03    0.161E-02
RMM:   4    -0.694707389124E+03    0.40140E-06   -0.30922E-06  7885   0.385E-03    0.856E-03
RMM:   5    -0.694707389119E+03    0.46566E-08   -0.52508E-07  3904   0.253E-03    0.508E-03
RMM:   6    -0.694707389430E+03   -0.31106E-06   -0.60094E-08  2565   0.229E-03    0.512E-03
RMM:   7    -0.694707389624E+03   -0.19372E-06   -0.34445E-08  2426   0.227E-03    0.304E-03
RMM:   8    -0.694707390127E+03   -0.50291E-06   -0.60378E-08  2624   0.232E-03
 101 F= -.69470739E+03 E0= -.69429800E+03  d E =-.110138E-03  mag=    82.5017
       N       E                     dE             d eps       ncg     rms          rms(c)
DAV:   1    -0.694707439782E+03   -0.50158E-04   -0.42672E-03 23728   0.793E-02    0.317E-02
RMM:   2    -0.694707452701E+03   -0.12919E-04   -0.10772E-04 12706   0.164E-02    0.372E-02
RMM:   3    -0.694707454711E+03   -0.20098E-05   -0.26863E-05 11129   0.947E-03    0.248E-02
RMM:   4    -0.694707453744E+03    0.96671E-06   -0.75929E-06  9657   0.563E-03    0.125E-02
RMM:   5    -0.694707454068E+03   -0.32317E-06   -0.20977E-06  6634   0.326E-03    0.829E-03
RMM:   6    -0.694707454171E+03   -0.10338E-06   -0.57530E-07  4234   0.266E-03    0.674E-03
RMM:   7    -0.694707454191E+03   -0.19558E-07   -0.17490E-07  3159   0.250E-03    0.424E-03
RMM:   8    -0.694707454637E+03   -0.44610E-06   -0.83457E-08  2661   0.245E-03
 102 F= -.69470745E+03 E0= -.69429807E+03  d E =-.174648E-03  mag=    82.5016
       N       E                     dE             d eps       ncg     rms          rms(c)
DAV:   1    -0.694707528044E+03   -0.73854E-04   -0.14279E-03 22928   0.491E-02    0.184E-02
RMM:   2    -0.694707534786E+03   -0.67418E-05   -0.40983E-05 12193   0.108E-02    0.220E-02
RMM:   3    -0.694707536654E+03   -0.18673E-05   -0.88589E-06 10407   0.589E-03    0.143E-02
RMM:   4    -0.694707537629E+03   -0.97509E-06   -0.24216E-06  7485   0.357E-03    0.817E-03
RMM:   5    -0.694707538730E+03   -0.11008E-05   -0.26267E-07  3276   0.242E-03    0.521E-03
RMM:   6    -0.694707540586E+03   -0.18561E-05   -0.25534E-08  2426   0.228E-03    0.527E-03
RMM:   7    -0.694707541863E+03   -0.12778E-05   -0.20813E-08  2458   0.225E-03    0.278E-03
RMM:   8    -0.694707543127E+03   -0.12638E-05   -0.46767E-08  2580   0.232E-03
 103 F= -.69470754E+03 E0= -.69429816E+03  d E =-.884905E-04  mag=    82.5014
       N       E                     dE             d eps       ncg     rms          rms(c)
DAV:   1    -0.694707563966E+03   -0.22102E-04   -0.10010E-03 22528   0.412E-02    0.151E-02
RMM:   2    -0.694707569346E+03   -0.53803E-05   -0.28986E-05 11920   0.906E-03    0.171E-02
RMM:   3    -0.694707571255E+03   -0.19092E-05   -0.57145E-06  9787   0.478E-03    0.110E-02
RMM:   4    -0.694707572324E+03   -0.10692E-05   -0.13702E-06  6073   0.309E-03    0.657E-03
RMM:   5    -0.694707573570E+03   -0.12461E-05   -0.12764E-07  2826   0.234E-03    0.442E-03
RMM:   6    -0.694707575476E+03   -0.19055E-05   -0.67073E-09  2315   0.223E-03    0.444E-03
RMM:   7    -0.694707576743E+03   -0.12675E-05   -0.11570E-08  2356   0.222E-03    0.237E-03
RMM:   8    -0.694707578037E+03   -0.12936E-05   -0.10853E-08  2330   0.227E-03
 104 F= -.69470758E+03 E0= -.69429820E+03  d E =-.123400E-03  mag=    82.5012
       N       E                     dE             d eps       ncg     rms          rms(c)
DAV:   1    -0.694707632997E+03   -0.56254E-04   -0.14600E-03 23264   0.485E-02    0.182E-02
RMM:   2    -0.694707637574E+03   -0.45765E-05   -0.42697E-05 12177   0.107E-02    0.210E-02
RMM:   3    -0.694707640083E+03   -0.25090E-05   -0.81822E-06 10206   0.547E-03    0.129E-02
RMM:   4    -0.694707641336E+03   -0.12536E-05   -0.20988E-06  7226   0.341E-03    0.714E-03
RMM:   5    -0.694707643057E+03   -0.17211E-05   -0.41656E-07  3887   0.252E-03    0.565E-03
RMM:   6    -0.694707645102E+03   -0.20452E-05   -0.59267E-08  2787   0.227E-03    0.394E-03
RMM:   7    -0.694707647209E+03   -0.21067E-05   -0.85173E-09  2377   0.224E-03    0.326E-03
RMM:   8    -0.694707648613E+03   -0.14035E-05   -0.12132E-08  2406   0.228E-03
 105 F= -.69470765E+03 E0= -.69429829E+03  d E =-.705756E-04  mag=    82.5011
       N       E                     dE             d eps       ncg     rms          rms(c)
DAV:   1    -0.694707658780E+03   -0.11571E-04   -0.68981E-04 22720   0.335E-02    0.124E-02
RMM:   2    -0.694707662023E+03   -0.32429E-05   -0.21113E-05 11632   0.747E-03    0.152E-02
RMM:   3    -0.694707663651E+03   -0.16280E-05   -0.34437E-06  8494   0.381E-03    0.795E-03
RMM:   4    -0.694707665141E+03   -0.14901E-05   -0.57750E-07  4437   0.263E-03    0.544E-03
RMM:   5    -0.694707666727E+03   -0.15860E-05   -0.34820E-08  2536   0.224E-03    0.442E-03
RMM:   6    -0.694707668617E+03   -0.18906E-05   -0.11313E-08  2338   0.219E-03    0.329E-03
RMM:   7    -0.694707670743E+03   -0.21253E-05   -0.49527E-09  2377   0.220E-03    0.184E-03
RMM:   8    -0.694707672376E+03   -0.16335E-05   -0.27400E-09  2358   0.223E-03
 106 F= -.69470767E+03 E0= -.69429831E+03  d E =-.943393E-04  mag=    82.5010
       N       E                     dE             d eps       ncg     rms          rms(c)
DAV:   1    -0.694707712010E+03   -0.41267E-04   -0.15385E-03 23360   0.489E-02    0.186E-02
RMM:   2    -0.694707718021E+03   -0.60117E-05   -0.39168E-05 12168   0.103E-02    0.196E-02
RMM:   3    -0.694707720580E+03   -0.25583E-05   -0.77886E-06 10050   0.531E-03    0.129E-02
RMM:   4    -0.694707721399E+03   -0.81956E-06   -0.19540E-06  7263   0.336E-03    0.723E-03
RMM:   5    -0.694707722998E+03   -0.15991E-05   -0.23502E-07  3343   0.240E-03    0.514E-03
RMM:   6    -0.694707725291E+03   -0.22929E-05   -0.28745E-08  2547   0.221E-03    0.467E-03
RMM:   7    -0.694707726823E+03   -0.15320E-05   -0.10680E-08  2380   0.221E-03    0.319E-03
RMM:   8    -0.694707728138E+03   -0.13150E-05   -0.10112E-08  2376   0.227E-03
 107 F= -.69470773E+03 E0= -.69429836E+03  d E =-.557620E-04  mag=    82.5009
       N       E                     dE             d eps       ncg     rms          rms(c)
DAV:   1    -0.694707733019E+03   -0.61961E-05   -0.45659E-04 22576   0.269E-02    0.104E-02
RMM:   2    -0.694707735873E+03   -0.28536E-05   -0.12514E-05 11016   0.581E-03    0.110E-02
RMM:   3    -0.694707737113E+03   -0.12405E-05   -0.18664E-06  6353   0.315E-03    0.672E-03
RMM:   4    -0.694707737980E+03   -0.86706E-06   -0.15830E-07  3067   0.236E-03    0.343E-03
RMM:   5    -0.694707739265E+03   -0.12843E-05   -0.53473E-09  2150   0.220E-03    0.367E-03
RMM:   6    -0.694707740876E+03   -0.16112E-05   -0.23003E-09  2143   0.219E-03    0.240E-03
RMM:   7    -0.694707742317E+03   -0.14408E-05   -0.34334E-09  2190   0.222E-03    0.125E-03
RMM:   8    -0.694707743311E+03   -0.99465E-06   -0.14339E-09  2111   0.222E-03
 108 F= -.69470774E+03 E0= -.69429837E+03  d E =-.709351E-04  mag=    82.5008
       N       E                     dE             d eps       ncg     rms          rms(c)
DAV:   1    -0.694707768693E+03   -0.26376E-04   -0.18285E-03 23088   0.542E-02    0.190E-02
RMM:   2    -0.694707774931E+03   -0.62380E-05   -0.44648E-05 12192   0.108E-02    0.209E-02
RMM:   3    -0.694707777092E+03   -0.21616E-05   -0.96835E-06 10264   0.608E-03    0.163E-02
RMM:   4    -0.694707776823E+03    0.26915E-06   -0.26321E-06  7606   0.370E-03    0.722E-03
RMM:   5    -0.694707777830E+03   -0.10068E-05   -0.30049E-07  3350   0.239E-03    0.493E-03
RMM:   6    -0.694707779015E+03   -0.11856E-05   -0.22819E-08  2370   0.221E-03    0.480E-03
RMM:   7    -0.694707779852E+03   -0.83633E-06   -0.15032E-08  2301   0.220E-03    0.280E-03
RMM:   8    -0.694707780842E+03   -0.99000E-06   -0.59458E-08  2490   0.229E-03
 109 F= -.69470778E+03 E0= -.69429841E+03  d E =-.375304E-04  mag=    82.5008
