 ----------------------------------------------------
    OOO  PPPP  EEEEE N   N M   M PPPP
   O   O P   P E     NN  N MM MM P   P
   O   O PPPP  EEEEE N N N M M M PPPP   -- VERSION
   O   O P     E     N  NN M   M P
    OOO  P     EEEEE N   N M   M P
 ----------------------------------------------------
 running   16 mpi-ranks, with    4 threads/rank
 distrk:  each k-point on   16 cores,    1 groups
 distr:  one band on    1 cores,   16 groups
 vasp.6.2.1 16May21 (build Jul 28 2021 23:24:15) complex                        
  
 POSCAR found type information on POSCAR H IrO 
 POSCAR found :  3 types and     101 ions
 scaLAPACK will be used
 -----------------------------------------------------------------------------
|                                                                             |
|           W    W    AA    RRRRR   N    N  II  N    N   GGGG   !!!           |
|           W    W   A  A   R    R  NN   N  II  NN   N  G    G  !!!           |
|           W    W  A    A  R    R  N N  N  II  N N  N  G       !!!           |
|           W WW W  AAAAAA  RRRRR   N  N N  II  N  N N  G  GGG   !            |
|           WW  WW  A    A  R   R   N   NN  II  N   NN  G    G                |
|           W    W  A    A  R    R  N    N  II  N    N   GGGG   !!!           |
|                                                                             |
|     The real-space projection scheme for the treatment of the non-local     |
|     pseudopotentials has been switched on but on file POTCAR I have not     |
|     found any entries, signalling me that you have never performed a        |
|     real-space optimization of all non-local projectors! BE WARNED that     |
|     a calculation using the real-space projection scheme together with      |
|     non-local projectors which were not real-space optimized (according     |
|     to the plane-wave cutoff used in this calculation) might give more      |
|     or less inaccurate results. I hope you know what you are doing.         |
|                                                                             |
 -----------------------------------------------------------------------------

 LDA part: xc-table for Pade appr. of Perdew
 POSCAR, INCAR and KPOINTS ok, starting setup
 FFT: planning ...
 WAVECAR not read
 WARNING: random wavefunctions but no delay for mixing, default for NELMDL
 entering main loop
       N       E                     dE             d eps       ncg     rms          rms(c)
DAV:   1     0.756366455993E+04    0.75637E+04   -0.29597E+05 15120   0.125E+03
DAV:   2     0.595035583674E+03   -0.69686E+04   -0.62802E+04 16064   0.372E+02
DAV:   3    -0.756347041523E+03   -0.13514E+04   -0.12986E+04 18512   0.165E+02
DAV:   4    -0.829172625956E+03   -0.72826E+02   -0.71077E+02 20512   0.429E+01
DAV:   5    -0.830692189394E+03   -0.15196E+01   -0.15008E+01 19360   0.579E+00    0.187E+02
RMM:   6    -0.692727403036E+03    0.13796E+03   -0.62204E+02 14895   0.398E+01    0.168E+02
RMM:   7    -0.147100705310E+04   -0.77828E+03   -0.39955E+02 16419   0.271E+01    0.388E+02
RMM:   8    -0.134846031711E+04    0.12255E+03   -0.11566E+02 18844   0.111E+01    0.371E+02
RMM:   9    -0.146875954415E+04   -0.12030E+03   -0.52654E+01 15550   0.963E+00    0.382E+02
RMM:  10    -0.101279733176E+04    0.45596E+03   -0.50757E+02 22223   0.258E+01    0.318E+02
RMM:  11    -0.109298954671E+04   -0.80192E+02   -0.84161E+01 16580   0.111E+01    0.283E+02
RMM:  12    -0.114467587127E+04   -0.51686E+02   -0.21542E+02 19559   0.138E+01    0.166E+02
RMM:  13    -0.952939743573E+03    0.19174E+03   -0.26916E+02 21898   0.205E+01    0.165E+02
RMM:  14    -0.711398191724E+03    0.24154E+03   -0.39612E+01 16104   0.872E+00    0.146E+02
RMM:  15    -0.627280481839E+03    0.84118E+02   -0.48337E+01 17072   0.950E+00    0.122E+02
RMM:  16    -0.627187805590E+03    0.92676E-01   -0.22411E+01 15631   0.683E+00    0.109E+02
RMM:  17    -0.617456049998E+03    0.97318E+01   -0.81665E+00 16357   0.419E+00    0.970E+01
RMM:  18    -0.611279473610E+03    0.61766E+01   -0.58841E+00 15554   0.359E+00    0.830E+01
RMM:  19    -0.616050045352E+03   -0.47706E+01   -0.29445E+00 15782   0.265E+00    0.784E+01
RMM:  20    -0.620912429088E+03   -0.48624E+01   -0.49432E+00 16885   0.328E+00    0.638E+01
RMM:  21    -0.628583142980E+03   -0.76707E+01   -0.48732E+00 17316   0.327E+00    0.479E+01
RMM:  22    -0.640653004844E+03   -0.12070E+02   -0.48571E+00 17208   0.319E+00    0.319E+01
RMM:  23    -0.645413700756E+03   -0.47607E+01   -0.16086E+00 15701   0.194E+00    0.279E+01
RMM:  24    -0.656084623382E+03   -0.10671E+02   -0.47102E+00 17465   0.292E+00    0.207E+01
RMM:  25    -0.661215064464E+03   -0.51304E+01   -0.26868E+00 16705   0.235E+00    0.143E+01
RMM:  26    -0.665824121843E+03   -0.46091E+01   -0.15962E+00 15934   0.190E+00    0.128E+01
RMM:  27    -0.669402790020E+03   -0.35787E+01   -0.13841E+00 16074   0.166E+00    0.115E+01
RMM:  28    -0.673375368032E+03   -0.39726E+01   -0.10440E+00 15957   0.160E+00    0.112E+01
RMM:  29    -0.673024581023E+03    0.35079E+00   -0.59467E-01 15408   0.117E+00    0.125E+01
RMM:  30    -0.677525902529E+03   -0.45013E+01   -0.67802E-01 16237   0.117E+00    0.161E+01
RMM:  31    -0.677567991137E+03   -0.42089E-01   -0.27115E-01 14987   0.841E-01    0.153E+01
RMM:  32    -0.679699001312E+03   -0.21310E+01   -0.62885E-01 17373   0.103E+00    0.169E+01
RMM:  33    -0.681195909369E+03   -0.14969E+01   -0.29900E-01 16020   0.765E-01    0.154E+01
RMM:  34    -0.682588201263E+03   -0.13923E+01   -0.23524E-01 15884   0.680E-01    0.144E+01
RMM:  35    -0.684296031058E+03   -0.17078E+01   -0.16480E-01 15638   0.588E-01    0.153E+01
RMM:  36    -0.685495256641E+03   -0.11992E+01   -0.38434E-01 18256   0.804E-01    0.120E+01
RMM:  37    -0.685575501966E+03   -0.80245E-01   -0.12459E-01 15739   0.518E-01    0.107E+01
RMM:  38    -0.687349199381E+03   -0.17737E+01   -0.23172E-01 17235   0.602E-01    0.105E+01
RMM:  39    -0.686848268255E+03    0.50093E+00   -0.15617E-01 16942   0.508E-01    0.760E+00
RMM:  40    -0.688625067268E+03   -0.17768E+01   -0.73955E-02 15618   0.369E-01    0.685E+00
RMM:  41    -0.689285091627E+03   -0.66002E+00   -0.10689E-01 17147   0.431E-01    0.541E+00
RMM:  42    -0.689640552278E+03   -0.35546E+00   -0.13556E-01 17909   0.443E-01    0.458E+00
RMM:  43    -0.690159759734E+03   -0.51921E+00   -0.72564E-02 16545   0.331E-01    0.399E+00
RMM:  44    -0.690372094901E+03   -0.21234E+00   -0.10757E-01 18647   0.394E-01    0.414E+00
RMM:  45    -0.690310529226E+03    0.61566E-01   -0.64798E-02 17332   0.327E-01    0.530E+00
RMM:  46    -0.690475207986E+03   -0.16468E+00   -0.24019E-02 15545   0.211E-01    0.558E+00
RMM:  47    -0.690727175019E+03   -0.25197E+00   -0.13790E-02 15470   0.174E-01    0.550E+00
RMM:  48    -0.690811433857E+03   -0.84259E-01   -0.95467E-03 15421   0.150E-01    0.567E+00
RMM:  49    -0.691292278955E+03   -0.48085E+00   -0.18586E-02 17631   0.175E-01    0.608E+00
RMM:  50    -0.691513177602E+03   -0.22090E+00   -0.58563E-03 15434   0.113E-01    0.601E+00
RMM:  51    -0.690483351138E+03    0.10298E+01   -0.16663E-01 24640   0.487E-01    0.291E+00
RMM:  52    -0.690693968225E+03   -0.21062E+00   -0.49233E-03 15481   0.129E-01    0.226E+00
RMM:  53    -0.690919848517E+03   -0.22588E+00   -0.72031E-03 16647   0.122E-01    0.191E+00
RMM:  54    -0.691074874524E+03   -0.15503E+00   -0.61705E-03 16595   0.109E-01    0.194E+00
RMM:  55    -0.691205684557E+03   -0.13081E+00   -0.40913E-03 16105   0.916E-02    0.182E+00
RMM:  56    -0.691249932833E+03   -0.44248E-01   -0.24223E-02 21642   0.214E-01    0.752E-01
RMM:  57    -0.691425987307E+03   -0.17605E+00   -0.54331E-03 16834   0.984E-02    0.770E-01
RMM:  58    -0.691556071204E+03   -0.13008E+00   -0.27968E-03 15260   0.704E-02    0.657E-01
RMM:  59    -0.691675589616E+03   -0.11952E+00   -0.17949E-03 14928   0.562E-02    0.556E-01
RMM:  60    -0.691762855158E+03   -0.87266E-01   -0.94562E-04 13874   0.442E-02    0.497E-01
RMM:  61    -0.691794890920E+03   -0.32036E-01   -0.99326E-04 13869   0.452E-02    0.427E-01
RMM:  62    -0.691909510979E+03   -0.11462E+00   -0.12833E-03 14002   0.456E-02    0.237E-01
RMM:  63    -0.691968177425E+03   -0.58666E-01   -0.50477E-04 12347   0.304E-02    0.168E-01
RMM:  64    -0.691993417446E+03   -0.25240E-01   -0.23061E-04 10156   0.232E-02    0.125E-01
RMM:  65    -0.692006645893E+03   -0.13228E-01   -0.12429E-04  9196   0.180E-02    0.931E-02
RMM:  66    -0.692015141653E+03   -0.84958E-02   -0.81727E-05  8960   0.146E-02    0.742E-02
RMM:  67    -0.692020545402E+03   -0.54037E-02   -0.60492E-05  8846   0.125E-02    0.600E-02
RMM:  68    -0.692024258143E+03   -0.37127E-02   -0.45942E-05  8450   0.104E-02    0.523E-02
RMM:  69    -0.692029641133E+03   -0.53830E-02   -0.75040E-05  8898   0.108E-02    0.525E-02
RMM:  70    -0.692034748746E+03   -0.51076E-02   -0.10462E-04  9109   0.122E-02    0.493E-02
RMM:  71    -0.692037592489E+03   -0.28437E-02   -0.13762E-04  9391   0.144E-02    0.582E-02
RMM:  72    -0.692041046260E+03   -0.34538E-02   -0.11801E-04  9106   0.138E-02    0.405E-02
RMM:  73    -0.692042995335E+03   -0.19491E-02   -0.92567E-05  8881   0.121E-02    0.310E-02
RMM:  74    -0.692043390498E+03   -0.39516E-03   -0.68883E-05  8588   0.107E-02    0.270E-02
RMM:  75    -0.692044414317E+03   -0.10238E-02   -0.49876E-05  8233   0.960E-03    0.237E-02
RMM:  76    -0.692045158686E+03   -0.74437E-03   -0.21816E-05  7376   0.743E-03    0.180E-02
RMM:  77    -0.692045483018E+03   -0.32433E-03   -0.13672E-05  6902   0.577E-03    0.168E-02
RMM:  78    -0.692045881818E+03   -0.39880E-03   -0.14580E-05  7405   0.599E-03    0.167E-02
RMM:  79    -0.692046535649E+03   -0.65383E-03   -0.15529E-05  7428   0.611E-03    0.164E-02
RMM:  80    -0.692046935837E+03   -0.40019E-03   -0.18235E-05  7486   0.641E-03
 -----------------------------------------------------------------------------
|                                                                             |
|           W    W    AA    RRRRR   N    N  II  N    N   GGGG   !!!           |
|           W    W   A  A   R    R  NN   N  II  NN   N  G    G  !!!           |
|           W    W  A    A  R    R  N N  N  II  N N  N  G       !!!           |
|           W WW W  AAAAAA  RRRRR   N  N N  II  N  N N  G  GGG   !            |
|           WW  WW  A    A  R   R   N   NN  II  N   NN  G    G                |
|           W    W  A    A  R    R  N    N  II  N    N   GGGG   !!!           |
|                                                                             |
|     The electronic self-consistency was not achieved in the given           |
|     number of steps (NELM). The forces and other quantities evaluated       |
|     might not be reliable so examine the results carefully. If you find     |
|     spurious results, we suggest increasing NELM, if you were close to      |
|     convergence or switching to a different ALGO or adjusting the           |
|     density mixing parameters otherwise.                                    |
|                                                                             |
 -----------------------------------------------------------------------------

   1 F= -.69204694E+03 E0= -.69146515E+03  d E =-.692047E+03  mag=     3.2394
 curvature:   0.00 expect dE= 0.000E+00 dE for cont linesearch  0.000E+00
 trial: gam= 0.00000 g(F)=  0.169E+01 g(S)=  0.000E+00 ort = 0.000E+00 (trialstep = 0.100E+01)
 search vector abs. value=  0.169E+01
 bond charge predicted
       N       E                     dE             d eps       ncg     rms          rms(c)
DAV:   1    -0.689917339887E+03    0.21292E+01   -0.28858E+02 15280   0.206E+01    0.573E+00
RMM:   2    -0.690783185318E+03   -0.86585E+00   -0.10491E+01 14849   0.469E+00    0.126E+01
RMM:   3    -0.692084462497E+03   -0.13013E+01   -0.26038E+00 16168   0.211E+00    0.178E+01
RMM:   4    -0.690557676519E+03    0.15268E+01   -0.46579E-01 14969   0.117E+00    0.753E+00
RMM:   5    -0.690231035954E+03    0.32664E+00   -0.14566E-01 14861   0.756E-01    0.399E+00
RMM:   6    -0.690162409375E+03    0.68627E-01   -0.74356E-02 14923   0.466E-01    0.271E+00
RMM:   7    -0.690154427759E+03    0.79816E-02   -0.52388E-02 15269   0.354E-01    0.218E+00
RMM:   8    -0.690141798077E+03    0.12630E-01   -0.50584E-02 15789   0.322E-01    0.150E+00
RMM:   9    -0.690135312487E+03    0.64856E-02   -0.21428E-02 15229   0.238E-01    0.105E+00
RMM:  10    -0.690133161419E+03    0.21511E-02   -0.74768E-03 14953   0.146E-01    0.501E-01
RMM:  11    -0.690135778779E+03   -0.26174E-02   -0.28574E-03 14606   0.861E-02    0.508E-01
RMM:  12    -0.690135865114E+03   -0.86335E-04   -0.84355E-04 13209   0.514E-02
   2 F= -.69013587E+03 E0= -.68955743E+03  d E =0.191107E+01  mag=     3.2186
 trial-energy change:    1.911071  1 .order    3.301109   -1.686107    8.288326
 step:   0.1690(harm=  0.1690)  dis= 0.02203  next Energy=  -692.189448 (dE=-0.143E+00)
 bond charge predicted
       N       E                     dE             d eps       ncg     rms          rms(c)
DAV:   1    -0.692854481579E+03   -0.27187E+01   -0.20074E+02 15440   0.175E+01    0.107E+01
RMM:   2    -0.699603875487E+03   -0.67494E+01   -0.16698E+01 15003   0.466E+00    0.303E+01
RMM:   3    -0.702212286082E+03   -0.26084E+01   -0.31231E+00 15161   0.270E+00    0.378E+01
RMM:   4    -0.694424787677E+03    0.77875E+01   -0.10347E+00 14920   0.183E+00    0.145E+01
RMM:   5    -0.692855666592E+03    0.15691E+01   -0.83542E-01 15246   0.131E+00    0.773E+00
RMM:   6    -0.692511268684E+03    0.34440E+00   -0.36653E-01 15881   0.817E-01    0.452E+00
RMM:   7    -0.692477427171E+03    0.33842E-01   -0.13184E-01 15796   0.500E-01    0.391E+00
RMM:   8    -0.692373816421E+03    0.10361E+00   -0.10139E-01 16035   0.421E-01    0.228E+00
RMM:   9    -0.692365636178E+03    0.81802E-02   -0.45703E-02 15748   0.305E-01    0.181E+00
RMM:  10    -0.692360107451E+03    0.55287E-02   -0.36136E-02 15933   0.270E-01    0.148E+00
RMM:  11    -0.692356174275E+03    0.39332E-02   -0.14688E-02 15551   0.189E-01    0.113E+00
RMM:  12    -0.692352477943E+03    0.36963E-02   -0.55164E-03 15646   0.119E-01    0.615E-01
RMM:  13    -0.692351402813E+03    0.10751E-02   -0.18891E-03 14224   0.659E-02    0.504E-01
RMM:  14    -0.692349815500E+03    0.15873E-02   -0.12270E-03 13542   0.504E-02    0.302E-01
RMM:  15    -0.692348751892E+03    0.10636E-02   -0.63038E-04 12433   0.369E-02    0.196E-01
RMM:  16    -0.692347941082E+03    0.81081E-03   -0.21387E-04 10008   0.242E-02    0.179E-01
RMM:  17    -0.692346271800E+03    0.16693E-02   -0.15899E-04  9400   0.201E-02    0.133E-01
RMM:  18    -0.692343717272E+03    0.25545E-02   -0.14807E-04  9340   0.175E-02    0.107E-01
RMM:  19    -0.692341498897E+03    0.22184E-02   -0.74123E-05  8751   0.147E-02    0.850E-02
RMM:  20    -0.692340492869E+03    0.10060E-02   -0.32315E-05  7983   0.950E-03    0.788E-02
RMM:  21    -0.692340117710E+03    0.37516E-03   -0.13192E-05  7124   0.659E-03    0.776E-02
RMM:  22    -0.692340901345E+03   -0.78364E-03   -0.65965E-06  6545   0.528E-03    0.830E-02
RMM:  23    -0.692338813765E+03    0.20876E-02   -0.35135E-05  8082   0.874E-03    0.844E-02
RMM:  24    -0.692335411394E+03    0.34024E-02   -0.10088E-04  8585   0.140E-02    0.897E-02
RMM:  25    -0.692331059082E+03    0.43523E-02   -0.18270E-04  9062   0.181E-02    0.913E-02
RMM:  26    -0.692330154513E+03    0.90457E-03   -0.33597E-05  7694   0.109E-02    0.979E-02
RMM:  27    -0.692334358721E+03   -0.42042E-02   -0.18190E-04  8721   0.209E-02    0.947E-02
RMM:  28    -0.692332566238E+03    0.17925E-02   -0.57853E-05  7740   0.140E-02    0.828E-02
RMM:  29    -0.692329783703E+03    0.27825E-02   -0.14974E-04  8524   0.172E-02    0.913E-02
RMM:  30    -0.692326625483E+03    0.31582E-02   -0.38206E-04  9884   0.253E-02    0.969E-02
RMM:  31    -0.692322699663E+03    0.39258E-02   -0.49924E-04 10660   0.286E-02    0.926E-02
RMM:  32    -0.692319715498E+03    0.29842E-02   -0.27670E-04  9517   0.228E-02    0.957E-02
RMM:  33    -0.692320219685E+03   -0.50419E-03   -0.57697E-05  8048   0.142E-02    0.924E-02
RMM:  34    -0.692321835067E+03   -0.16154E-02   -0.12167E-04  8588   0.148E-02    0.925E-02
RMM:  35    -0.692325299430E+03   -0.34644E-02   -0.25433E-04  9628   0.204E-02    0.833E-02
RMM:  36    -0.692330135313E+03   -0.48359E-02   -0.51406E-05  8144   0.135E-02    0.688E-02
RMM:  37    -0.692332018096E+03   -0.18828E-02   -0.44587E-05  7945   0.931E-03    0.760E-02
RMM:  38    -0.692337669786E+03   -0.56517E-02   -0.10025E-04  8506   0.147E-02    0.765E-02
RMM:  39    -0.692343642874E+03   -0.59731E-02   -0.26036E-04  9604   0.198E-02    0.842E-02
RMM:  40    -0.692345566462E+03   -0.19236E-02   -0.53056E-05  8149   0.114E-02    0.808E-02
RMM:  41    -0.692347902996E+03   -0.23365E-02   -0.13978E-04  8784   0.157E-02    0.101E-01
RMM:  42    -0.692349187586E+03   -0.12846E-02   -0.45385E-05  7875   0.105E-02    0.953E-02
RMM:  43    -0.692349634134E+03   -0.44655E-03   -0.30246E-05  7539   0.935E-03    0.791E-02
RMM:  44    -0.692349965555E+03   -0.33142E-03   -0.11750E-05  6486   0.564E-03    0.729E-02
RMM:  45    -0.692350239335E+03   -0.27378E-03   -0.15044E-05  7293   0.608E-03    0.602E-02
RMM:  46    -0.692350416211E+03   -0.17688E-03   -0.48906E-05  7947   0.984E-03    0.439E-02
RMM:  47    -0.692350736177E+03   -0.31997E-03   -0.32156E-05  7399   0.788E-03    0.349E-02
RMM:  48    -0.692351082375E+03   -0.34620E-03   -0.80530E-06  5979   0.520E-03    0.306E-02
RMM:  49    -0.692351572783E+03   -0.49041E-03   -0.29003E-05  7510   0.744E-03    0.201E-02
RMM:  50    -0.692352013811E+03   -0.44103E-03   -0.99117E-06  6174   0.517E-03    0.146E-02
RMM:  51    -0.692352297134E+03   -0.28332E-03   -0.13951E-05  7003   0.567E-03    0.957E-03
RMM:  52    -0.692352443129E+03   -0.14600E-03   -0.48236E-06  4968   0.421E-03    0.666E-03
RMM:  53    -0.692352611136E+03   -0.16801E-03   -0.35716E-06  4360   0.350E-03    0.641E-03
RMM:  54    -0.692352728199E+03   -0.11706E-03   -0.24312E-06  4229   0.340E-03    0.519E-03
RMM:  55    -0.692352827512E+03   -0.99313E-04   -0.16556E-06  3643   0.313E-03
   3 F= -.69235283E+03 E0= -.69177551E+03  d E =-.305892E+00  mag=     2.7316
 curvature:  -0.08 expect dE=-0.186E+00 dE for cont linesearch -0.997E-01
 ZBRENT: interpolating
 opt :   0.2899  next Energy=  -692.438022 (dE=-0.391E+00)
 bond charge predicted
       N       E                     dE             d eps       ncg     rms          rms(c)
DAV:   1    -0.692487725497E+03   -0.13500E+00   -0.41268E+00 15600   0.243E+00    0.108E+00
RMM:   2    -0.692625328972E+03   -0.13760E+00   -0.15913E-01 14848   0.504E-01    0.526E+00
RMM:   3    -0.692528561017E+03    0.96768E-01   -0.26339E-02 14862   0.287E-01    0.284E+00
RMM:   4    -0.692505987949E+03    0.22573E-01   -0.98769E-03 14878   0.184E-01    0.211E+00
RMM:   5    -0.692491662114E+03    0.14326E-01   -0.43151E-03 14647   0.120E-01    0.150E+00
RMM:   6    -0.692487530605E+03    0.41315E-02   -0.17419E-03 13957   0.723E-02    0.122E+00
RMM:   7    -0.692483526496E+03    0.40041E-02   -0.21700E-03 14433   0.624E-02    0.677E-01
RMM:   8    -0.692482006998E+03    0.15195E-02   -0.18521E-03 14875   0.548E-02    0.260E-01
RMM:   9    -0.692482159173E+03   -0.15218E-03   -0.45309E-04 12253   0.358E-02    0.154E-01
RMM:  10    -0.692482245977E+03   -0.86804E-04   -0.14735E-04  8974   0.220E-02
   4 F= -.69248225E+03 E0= -.69190549E+03  d E =-.435310E+00  mag=     2.7332
 curvature:  -0.07 expect dE=-0.135E+00 dE for cont linesearch -0.106E-01
 ZBRENT: interpolating
 opt :   0.3520  next Energy=  -692.498571 (dE=-0.452E+00)
 bond charge predicted
       N       E                     dE             d eps       ncg     rms          rms(c)
DAV:   1    -0.692490731730E+03   -0.85726E-02   -0.10970E+00 15600   0.125E+00    0.621E-01
RMM:   2    -0.692516831207E+03   -0.26099E-01   -0.45772E-02 14664   0.274E-01    0.234E+00
RMM:   3    -0.692510607766E+03    0.62234E-02   -0.81021E-03 14712   0.153E-01    0.184E+00
RMM:   4    -0.692494203239E+03    0.16405E-01   -0.31025E-03 14560   0.104E-01    0.924E-01
RMM:   5    -0.692490663877E+03    0.35394E-02   -0.13259E-03 13581   0.676E-02    0.540E-01
RMM:   6    -0.692489766960E+03    0.89692E-03   -0.48851E-04 11463   0.381E-02    0.406E-01
RMM:   7    -0.692489157487E+03    0.60947E-03   -0.32463E-04 10370   0.267E-02    0.247E-01
RMM:   8    -0.692488861099E+03    0.29639E-03   -0.26037E-04  9944   0.237E-02    0.148E-01
RMM:   9    -0.692488754354E+03    0.10675E-03   -0.97861E-05  8509   0.184E-02    0.828E-02
RMM:  10    -0.692488716877E+03    0.37477E-04   -0.31188E-05  8015   0.116E-02
   5 F= -.69248872E+03 E0= -.69191173E+03  d E =-.441781E+00  mag=     2.7383
 curvature:  -0.11 expect dE=-0.208E+00 dE for cont linesearch -0.934E-02
 ZBRENT: interpolating
 opt :   0.3252  next Energy=  -692.493751 (dE=-0.447E+00)
 bond charge predicted
       N       E                     dE             d eps       ncg     rms          rms(c)
DAV:   1    -0.692492995478E+03   -0.42411E-02   -0.20333E-01 15520   0.539E-01    0.307E-01
RMM:   2    -0.692507444608E+03   -0.14449E-01   -0.97911E-03 14387   0.131E-01    0.167E+00
RMM:   3    -0.692498203461E+03    0.92411E-02   -0.22532E-03 14216   0.868E-02    0.951E-01
RMM:   4    -0.692493291832E+03    0.49116E-02   -0.74060E-04 12869   0.553E-02    0.337E-01
RMM:   5    -0.692492866582E+03    0.42525E-03   -0.34461E-04  9987   0.308E-02    0.237E-01
RMM:   6    -0.692492732107E+03    0.13448E-03   -0.15734E-04  8888   0.201E-02    0.178E-01
RMM:   7    -0.692492631676E+03    0.10043E-03   -0.10708E-04  8247   0.156E-02    0.890E-02
RMM:   8    -0.692492638363E+03   -0.66878E-05   -0.54751E-05  7801   0.129E-02
   6 F= -.69249264E+03 E0= -.69191553E+03  d E =-.445703E+00  mag=     2.7429
 curvature:  -0.06 expect dE=-0.102E+00 dE for cont linesearch -0.196E-03
 trial: gam= 0.96756 g(F)=  0.171E+01 g(S)=  0.000E+00 ort = 0.743E-01 (trialstep = 0.425E+00)
 search vector abs. value=  0.343E+01
 bond charge predicted
       N       E                     dE             d eps       ncg     rms          rms(c)
DAV:   1    -0.691058084805E+03    0.14345E+01   -0.13577E+02 15024   0.164E+01    0.434E+00
RMM:   2    -0.691822350084E+03   -0.76427E+00   -0.38791E+00 14849   0.288E+00    0.110E+01
RMM:   3    -0.691908460601E+03   -0.86111E-01   -0.62745E-01 15232   0.132E+00    0.115E+01
RMM:   4    -0.691266447410E+03    0.64201E+00   -0.16939E-01 15006   0.753E-01    0.490E+00
RMM:   5    -0.691247217985E+03    0.19229E-01   -0.75468E-02 15005   0.513E-01    0.469E+00
RMM:   6    -0.691207393911E+03    0.39824E-01   -0.38010E-02 14943   0.355E-01    0.377E+00
RMM:   7    -0.691163845616E+03    0.43548E-01   -0.27658E-02 15200   0.286E-01    0.278E+00
RMM:   8    -0.691133483432E+03    0.30362E-01   -0.28364E-02 15596   0.238E-01    0.927E-01
RMM:   9    -0.691134503227E+03   -0.10198E-02   -0.75058E-03 14836   0.144E-01    0.894E-01
RMM:  10    -0.691134350786E+03    0.15244E-03   -0.23617E-03 14604   0.880E-02    0.667E-01
RMM:  11    -0.691134962188E+03   -0.61140E-03   -0.10976E-03 13750   0.559E-02    0.473E-01
RMM:  12    -0.691135986265E+03   -0.10241E-02   -0.91789E-04 13668   0.472E-02    0.358E-01
RMM:  13    -0.691136602362E+03   -0.61610E-03   -0.67234E-04 12814   0.377E-02    0.255E-01
RMM:  14    -0.691136951972E+03   -0.34961E-03   -0.19818E-04  9748   0.238E-02    0.221E-01
RMM:  15    -0.691137100670E+03   -0.14870E-03   -0.77310E-05  8847   0.172E-02    0.179E-01
RMM:  16    -0.691137253471E+03   -0.15280E-03   -0.37088E-05  8523   0.106E-02    0.122E-01
RMM:  17    -0.691137411858E+03   -0.15839E-03   -0.19758E-05  7874   0.786E-03    0.697E-02
RMM:  18    -0.691137627649E+03   -0.21579E-03   -0.13002E-05  7367   0.584E-03    0.459E-02
RMM:  19    -0.691137829439E+03   -0.20179E-03   -0.72138E-06  6234   0.449E-03    0.431E-02
RMM:  20    -0.691138069441E+03   -0.24000E-03   -0.62396E-06  5632   0.390E-03    0.351E-02
RMM:  21    -0.691138368357E+03   -0.29892E-03   -0.73972E-06  5836   0.398E-03    0.156E-02
RMM:  22    -0.691138579339E+03   -0.21098E-03   -0.46199E-06  5493   0.376E-03    0.990E-03
RMM:  23    -0.691138743377E+03   -0.16404E-03   -0.29323E-06  4627   0.338E-03    0.776E-03
RMM:  24    -0.691138884616E+03   -0.14124E-03   -0.16794E-06  3771   0.308E-03    0.673E-03
RMM:  25    -0.691139094952E+03   -0.21034E-03   -0.29601E-06  4423   0.326E-03    0.588E-03
RMM:  26    -0.691139262143E+03   -0.16719E-03   -0.21182E-06  4045   0.315E-03    0.450E-03
RMM:  27    -0.691139407031E+03   -0.14489E-03   -0.19925E-06  3752   0.309E-03    0.526E-03
RMM:  28    -0.691139502036E+03   -0.95005E-04   -0.14113E-06  3356   0.299E-03
   7 F= -.69113950E+03 E0= -.69056288E+03  d E =0.135314E+01  mag=     2.7813
 trial-energy change:    1.353136  1 .order    0.871710   -0.756347    2.499768
 step:   0.0558(harm=  0.0988)  dis= 0.01113  next Energy=  -692.541160 (dE=-0.485E-01)
 bond charge predicted
       N       E                     dE             d eps       ncg     rms          rms(c)
DAV:   1    -0.692598327416E+03   -0.14589E+01   -0.10277E+02 15184   0.145E+01    0.646E+00
RMM:   2    -0.694937882339E+03   -0.23396E+01   -0.58544E+00 14994   0.305E+00    0.179E+01
RMM:   3    -0.696153040916E+03   -0.12152E+01   -0.94751E-01 14924   0.172E+00    0.240E+01
RMM:   4    -0.693074013962E+03    0.30790E+01   -0.29053E-01 14895   0.105E+00    0.817E+00
RMM:   5    -0.692732759912E+03    0.34125E+00   -0.27133E-01 15244   0.743E-01    0.575E+00
RMM:   6    -0.692535701346E+03    0.19706E+00   -0.12570E-01 15531   0.514E-01    0.289E+00
RMM:   7    -0.692512352934E+03    0.23348E-01   -0.61418E-02 16040   0.313E-01    0.217E+00
RMM:   8    -0.692508031293E+03    0.43216E-02   -0.24679E-02 16076   0.208E-01    0.166E+00
RMM:   9    -0.692501990475E+03    0.60408E-02   -0.21646E-02 15971   0.216E-01    0.138E+00
RMM:  10    -0.692496586352E+03    0.54041E-02   -0.71758E-03 14876   0.154E-01    0.981E-01
RMM:  11    -0.692497347775E+03   -0.76142E-03   -0.33858E-03 15036   0.952E-02    0.635E-01
RMM:  12    -0.692501562064E+03   -0.42143E-02   -0.11949E-03 13841   0.578E-02    0.473E-01
RMM:  13    -0.692504851874E+03   -0.32898E-02   -0.12245E-03 13573   0.501E-02    0.277E-01
RMM:  14    -0.692506776973E+03   -0.19251E-02   -0.89009E-04 12574   0.383E-02    0.175E-01
RMM:  15    -0.692507944034E+03   -0.11671E-02   -0.24719E-04 10308   0.243E-02    0.147E-01
RMM:  16    -0.692509489734E+03   -0.15457E-02   -0.12780E-04  9087   0.185E-02    0.124E-01
RMM:  17    -0.692510390836E+03   -0.90110E-03   -0.69794E-05  8638   0.150E-02    0.899E-02
RMM:  18    -0.692511662692E+03   -0.12719E-02   -0.10159E-04  8887   0.146E-02    0.575E-02
RMM:  19    -0.692512072341E+03   -0.40965E-03   -0.45661E-05  8253   0.112E-02    0.454E-02
RMM:  20    -0.692512474071E+03   -0.40173E-03   -0.33966E-05  7775   0.865E-03    0.353E-02
RMM:  21    -0.692513099658E+03   -0.62559E-03   -0.68728E-05  8478   0.107E-02    0.404E-02
RMM:  22    -0.692513495809E+03   -0.39615E-03   -0.86415E-05  8633   0.126E-02    0.360E-02
RMM:  23    -0.692513592394E+03   -0.96585E-04   -0.26653E-05  7706   0.914E-03
   8 F= -.69251359E+03 E0= -.69193596E+03  d E =-.209540E-01  mag=     2.8297
 curvature:  -0.09 expect dE=-0.465E-01 dE for cont linesearch -0.227E-01
 ZBRENT: interpolating
 opt :   0.0369  next Energy=  -692.522227 (dE=-0.296E-01)
 bond charge predicted
       N       E                     dE             d eps       ncg     rms          rms(c)
DAV:   1    -0.692523715647E+03   -0.10220E-01   -0.26642E-01 15408   0.725E-01    0.262E-01
RMM:   2    -0.692529147355E+03   -0.54317E-02   -0.96046E-03 14476   0.140E-01    0.111E+00
RMM:   3    -0.692526468602E+03    0.26788E-02   -0.14870E-03 13766   0.751E-02    0.643E-01
RMM:   4    -0.692524979736E+03    0.14889E-02   -0.46533E-04 11792   0.391E-02    0.436E-01
RMM:   5    -0.692524548748E+03    0.43099E-03   -0.31183E-04  9976   0.302E-02    0.315E-01
RMM:   6    -0.692524484881E+03    0.63867E-04   -0.18258E-04  9095   0.229E-02    0.244E-01
RMM:   7    -0.692524490151E+03   -0.52705E-05   -0.11406E-04  8506   0.183E-02    0.137E-01
RMM:   8    -0.692524566117E+03   -0.75965E-04   -0.57883E-05  7978   0.134E-02
   9 F= -.69252457E+03 E0= -.69194713E+03  d E =-.319278E-01  mag=     2.8242
 curvature:  -0.04 expect dE=-0.114E-01 dE for cont linesearch -0.824E-04
 ZBRENT: interpolating
 opt :   0.0349  next Energy=  -692.524657 (dE=-0.320E-01)
 bond charge predicted
       N       E                     dE             d eps       ncg     rms          rms(c)
DAV:   1    -0.692524652229E+03   -0.16208E-03   -0.28389E-03 15696   0.791E-02    0.637E-02
RMM:   2    -0.692525232488E+03   -0.58026E-03   -0.18367E-04  8786   0.223E-02    0.308E-01
RMM:   3    -0.692524906607E+03    0.32588E-03   -0.99385E-05  8078   0.207E-02    0.216E-01
RMM:   4    -0.692524656849E+03    0.24976E-03   -0.28097E-05  7979   0.117E-02    0.471E-02
RMM:   5    -0.692524665769E+03   -0.89194E-05   -0.87593E-06  6950   0.622E-03    0.363E-02
RMM:   6    -0.692524669000E+03   -0.32311E-05   -0.28422E-06  5004   0.375E-03    0.241E-02
RMM:   7    -0.692524648276E+03    0.20724E-04   -0.17405E-06  3583   0.318E-03    0.274E-02
RMM:   8    -0.692524629600E+03    0.18675E-04   -0.75054E-07  3104   0.298E-03
  10 F= -.69252463E+03 E0= -.69194725E+03  d E =-.319912E-01  mag=     2.8177
 curvature:  -0.04 expect dE=-0.133E-01 dE for cont linesearch -0.858E-06
 trial: gam=-0.05966 g(F)=  0.338E+00 g(S)=  0.000E+00 ort = 0.865E-02 (trialstep = 0.347E+00)
 search vector abs. value=  0.349E+00
 bond charge predicted
       N       E                     dE             d eps       ncg     rms          rms(c)
DAV:   1    -0.692394201091E+03    0.13045E+00   -0.79866E+00 15568   0.409E+00    0.137E+00
RMM:   2    -0.692756602309E+03   -0.36240E+00   -0.27857E-01 14848   0.900E-01    0.819E+00
RMM:   3    -0.692430712296E+03    0.32589E+00   -0.50680E-02 14978   0.420E-01    0.251E+00
RMM:   4    -0.692479111355E+03   -0.48399E-01   -0.19624E-02 14892   0.257E-01    0.380E+00
RMM:   5    -0.692421630628E+03    0.57481E-01   -0.13495E-02 15241   0.178E-01    0.234E+00
RMM:   6    -0.692412484972E+03    0.91457E-02   -0.58592E-03 15527   0.113E-01    0.183E+00
RMM:   7    -0.692399414104E+03    0.13071E-01   -0.28873E-03 14565   0.838E-02    0.919E-01
RMM:   8    -0.692396591294E+03    0.28228E-02   -0.27703E-03 15296   0.787E-02    0.692E-01
RMM:   9    -0.692394195185E+03    0.23961E-02   -0.79766E-04 13394   0.550E-02    0.569E-01
RMM:  10    -0.692392690210E+03    0.15050E-02   -0.34742E-04 11433   0.343E-02    0.539E-01
RMM:  11    -0.692390309044E+03    0.23812E-02   -0.18597E-04  9700   0.253E-02    0.390E-01
RMM:  12    -0.692388023992E+03    0.22851E-02   -0.16675E-04  9288   0.203E-02    0.198E-01
RMM:  13    -0.692387140110E+03    0.88388E-03   -0.87795E-05  8821   0.167E-02    0.113E-01
RMM:  14    -0.692387100483E+03    0.39627E-04   -0.34930E-05  8286   0.111E-02
  11 F= -.69238710E+03 E0= -.69181078E+03  d E =0.137529E+00  mag=     2.7826
 trial-energy change:    0.137529  1 .order    0.102431   -0.117273    0.322136
 step:   0.0668(harm=  0.0927)  dis= 0.00432  next Energy=  -692.535662 (dE=-0.110E-01)
 bond charge predicted
       N       E                     dE             d eps       ncg     rms          rms(c)
DAV:   1    -0.692521141964E+03   -0.13400E+00   -0.51988E+00 15552   0.329E+00    0.102E+00
RMM:   2    -0.692773266185E+03   -0.25212E+00   -0.16191E-01 14848   0.685E-01    0.674E+00
RMM:   3    -0.692539573191E+03    0.23369E+00   -0.28588E-02 14910   0.320E-01    0.176E+00
RMM:   4    -0.692570360787E+03   -0.30788E-01   -0.10645E-02 14934   0.187E-01    0.274E+00
RMM:   5    -0.692546786122E+03    0.23575E-01   -0.44199E-03 14710   0.120E-01    0.189E+00
RMM:   6    -0.692541500333E+03    0.52858E-02   -0.23336E-03 14671   0.798E-02    0.152E+00
RMM:   7    -0.692534047019E+03    0.74533E-02   -0.32301E-03 15620   0.815E-02    0.649E-01
RMM:   8    -0.692533117318E+03    0.92970E-03   -0.20698E-03 15266   0.697E-02    0.375E-01
RMM:   9    -0.692532509233E+03    0.60808E-03   -0.58616E-04 12809   0.435E-02    0.241E-01
RMM:  10    -0.692532420993E+03    0.88240E-04   -0.22093E-04  9975   0.258E-02
  12 F= -.69253242E+03 E0= -.69195629E+03  d E =-.779139E-02  mag=     2.7624
 curvature:  -0.05 expect dE=-0.499E-02 dE for cont linesearch -0.265E-03
 ZBRENT: interpolating
 opt :   0.0796  next Energy=  -692.532702 (dE=-0.807E-02)
 bond charge predicted
       N       E                     dE             d eps       ncg     rms          rms(c)
DAV:   1    -0.692532713469E+03   -0.20424E-03   -0.10792E-02 15664   0.156E-01    0.131E-01
RMM:   2    -0.692541835922E+03   -0.91225E-02   -0.11117E-03 14139   0.503E-02    0.118E+00
RMM:   3    -0.692533389920E+03    0.84460E-02   -0.43389E-04 12263   0.447E-02    0.218E-01
RMM:   4    -0.692533257591E+03    0.13233E-03   -0.13669E-04  8646   0.238E-02    0.787E-02
RMM:   5    -0.692533548395E+03   -0.29080E-03   -0.66262E-05  8256   0.145E-02    0.648E-02
RMM:   6    -0.692534028808E+03   -0.48041E-03   -0.52139E-05  8060   0.121E-02    0.655E-02
RMM:   7    -0.692534554969E+03   -0.52616E-03   -0.40216E-05  7982   0.103E-02    0.553E-02
RMM:   8    -0.692534852389E+03   -0.29742E-03   -0.17304E-05  7042   0.702E-03    0.456E-02
RMM:   9    -0.692535208508E+03   -0.35612E-03   -0.14614E-05  6730   0.571E-03    0.427E-02
RMM:  10    -0.692535593329E+03   -0.38482E-03   -0.12044E-05  6502   0.540E-03    0.336E-02
RMM:  11    -0.692536163838E+03   -0.57051E-03   -0.21352E-05  7282   0.588E-03    0.212E-02
RMM:  12    -0.692536555649E+03   -0.39181E-03   -0.13892E-05  6579   0.509E-03    0.199E-02
RMM:  13    -0.692536896755E+03   -0.34111E-03   -0.12601E-05  6720   0.515E-03    0.211E-02
RMM:  14    -0.692537116160E+03   -0.21940E-03   -0.68859E-06  5610   0.449E-03    0.115E-02
RMM:  15    -0.692537353779E+03   -0.23762E-03   -0.43783E-06  5133   0.390E-03    0.956E-03
RMM:  16    -0.692537552387E+03   -0.19861E-03   -0.20446E-06  4244   0.334E-03    0.897E-03
RMM:  17    -0.692537747872E+03   -0.19548E-03   -0.12348E-06  3480   0.306E-03    0.721E-03
RMM:  18    -0.692537986125E+03   -0.23825E-03   -0.19263E-06  3975   0.317E-03    0.442E-03
RMM:  19    -0.692538154283E+03   -0.16816E-03   -0.13620E-06  3351   0.295E-03    0.451E-03
RMM:  20    -0.692538319773E+03   -0.16549E-03   -0.19746E-06  3508   0.299E-03    0.570E-03
RMM:  21    -0.692538384567E+03   -0.64794E-04   -0.17201E-06  3439   0.298E-03
  13 F= -.69253838E+03 E0= -.69196132E+03  d E =-.137550E-01  mag=     2.7505
 curvature:  -0.05 expect dE=-0.700E-02 dE for cont linesearch -0.692E-04
 trial: gam= 0.47528 g(F)=  0.139E+00 g(S)=  0.000E+00 ort =-0.219E-01 (trialstep = 0.294E+00)
 search vector abs. value=  0.197E+00
 bond charge predicted
       N       E                     dE             d eps       ncg     rms          rms(c)
DAV:   1    -0.692516653456E+03    0.21666E-01   -0.36302E+00 15472   0.272E+00    0.520E-01
RMM:   2    -0.692591663197E+03   -0.75010E-01   -0.81258E-02 14848   0.537E-01    0.375E+00
RMM:   3    -0.692535165290E+03    0.56498E-01   -0.14367E-02 15140   0.220E-01    0.178E+00
RMM:   4    -0.692547068683E+03   -0.11903E-01   -0.39849E-03 15603   0.111E-01    0.219E+00
RMM:   5    -0.692528165793E+03    0.18903E-01   -0.23974E-03 14638   0.803E-02    0.130E+00
RMM:   6    -0.692526570303E+03    0.15955E-02   -0.11568E-03 14016   0.606E-02    0.106E+00
RMM:   7    -0.692526616783E+03   -0.46481E-04   -0.67597E-04 13062   0.444E-02    0.970E-01
RMM:   8    -0.692524363318E+03    0.22535E-02   -0.10398E-03 13862   0.454E-02    0.649E-01
RMM:   9    -0.692522724154E+03    0.16392E-02   -0.30315E-04 10951   0.291E-02    0.333E-01
RMM:  10    -0.692522485409E+03    0.23874E-03   -0.12370E-04  8946   0.216E-02    0.288E-01
RMM:  11    -0.692522177165E+03    0.30824E-03   -0.56630E-05  8745   0.144E-02    0.246E-01
RMM:  12    -0.692521728300E+03    0.44886E-03   -0.69960E-05  8650   0.132E-02    0.174E-01
RMM:  13    -0.692521529834E+03    0.19847E-03   -0.41402E-05  8329   0.117E-02    0.116E-01
RMM:  14    -0.692521702407E+03   -0.17257E-03   -0.19756E-05  7771   0.817E-03    0.922E-02
RMM:  15    -0.692521947797E+03   -0.24539E-03   -0.14491E-05  7329   0.623E-03    0.676E-02
RMM:  16    -0.692522135093E+03   -0.18730E-03   -0.14467E-05  7140   0.551E-03    0.351E-02
RMM:  17    -0.692522244297E+03   -0.10920E-03   -0.86933E-06  6453   0.492E-03    0.212E-02
RMM:  18    -0.692522394803E+03   -0.15051E-03   -0.86320E-06  6189   0.452E-03    0.159E-02
RMM:  19    -0.692522542096E+03   -0.14729E-03   -0.50272E-06  4950   0.392E-03    0.134E-02
RMM:  20    -0.692522773162E+03   -0.23107E-03   -0.66964E-06  5761   0.407E-03    0.107E-02
RMM:  21    -0.692523044564E+03   -0.27140E-03   -0.57207E-06  5451   0.393E-03    0.110E-02
RMM:  22    -0.692523185389E+03   -0.14082E-03   -0.72857E-06  5654   0.402E-03    0.835E-03
RMM:  23    -0.692523234594E+03   -0.49205E-04   -0.47856E-06  5041   0.383E-03
  14 F= -.69252323E+03 E0= -.69194597E+03  d E =0.151500E-01  mag=     2.7355
 trial-energy change:    0.015150  1 .order    0.037902   -0.037717    0.113521
 step:   0.1394(harm=  0.0733)  dis= 0.00474  next Energy=  -692.549762 (dE=-0.114E-01)
 bond charge predicted
       N       E                     dE             d eps       ncg     rms          rms(c)
DAV:   1    -0.692548516229E+03   -0.25331E-01   -0.10014E+00 15184   0.144E+00    0.279E-01
RMM:   2    -0.692569565503E+03   -0.21049E-01   -0.22327E-02 14848   0.278E-01    0.199E+00
RMM:   3    -0.692553303118E+03    0.16262E-01   -0.38956E-03 15008   0.115E-01    0.928E-01
RMM:   4    -0.692556804244E+03   -0.35011E-02   -0.11427E-03 14345   0.583E-02    0.115E+00
RMM:   5    -0.692551689610E+03    0.51146E-02   -0.62158E-04 13030   0.426E-02    0.699E-01
RMM:   6    -0.692551199653E+03    0.48996E-03   -0.29748E-04 10882   0.322E-02    0.563E-01
RMM:   7    -0.692551289108E+03   -0.89454E-04   -0.22233E-04  9804   0.256E-02    0.495E-01
RMM:   8    -0.692550839363E+03    0.44974E-03   -0.26301E-04 10302   0.258E-02    0.330E-01
RMM:   9    -0.692550448957E+03    0.39041E-03   -0.10598E-04  8780   0.183E-02    0.136E-01
RMM:  10    -0.692550476205E+03   -0.27249E-04   -0.41168E-05  8400   0.132E-02
  15 F= -.69255048E+03 E0= -.69197344E+03  d E =-.120916E-01  mag=     2.7352
 curvature:  -0.05 expect dE=-0.189E-01 dE for cont linesearch -0.537E-04
 trial: gam= 2.42053 g(F)=  0.369E+00 g(S)=  0.000E+00 ort = 0.144E-01 (trialstep = 0.325E-01)
 search vector abs. value=  0.159E+01
 bond charge predicted
       N       E                     dE             d eps       ncg     rms          rms(c)
DAV:   1    -0.692551006207E+03   -0.55725E-03   -0.37674E-01 15440   0.808E-01    0.171E-01
RMM:   2    -0.692559100860E+03   -0.80947E-02   -0.77825E-03 14841   0.148E-01    0.123E+00
RMM:   3    -0.692551801465E+03    0.72994E-02   -0.12252E-03 13430   0.646E-02    0.390E-01
RMM:   4    -0.692552663861E+03   -0.86240E-03   -0.38997E-04 10464   0.333E-02    0.504E-01
RMM:   5    -0.692552276640E+03    0.38722E-03   -0.15104E-04  8875   0.226E-02    0.438E-01
RMM:   6    -0.692552062596E+03    0.21404E-03   -0.83792E-05  8385   0.183E-02    0.362E-01
RMM:   7    -0.692551793085E+03    0.26951E-03   -0.14874E-04  8791   0.180E-02    0.204E-01
RMM:   8    -0.692551697405E+03    0.95680E-04   -0.76280E-05  8281   0.158E-02
  16 F= -.69255170E+03 E0= -.69197476E+03  d E =-.122120E-02  mag=     2.7363
 trial-energy change:   -0.001221  1 .order    0.000308   -0.013121    0.013737
 step:   0.0186(harm=  0.0159)  dis= 0.00199  next Energy=  -692.554516 (dE=-0.404E-02)
 bond charge predicted
       N       E                     dE             d eps       ncg     rms          rms(c)
DAV:   1    -0.692554649890E+03   -0.28568E-02   -0.69375E-02 15520   0.349E-01    0.885E-02
RMM:   2    -0.692558389234E+03   -0.37393E-02   -0.16418E-03 13688   0.658E-02    0.815E-01
RMM:   3    -0.692554700423E+03    0.36888E-02   -0.29217E-04  9980   0.353E-02    0.183E-01
RMM:   4    -0.692554898605E+03   -0.19818E-03   -0.84114E-05  8289   0.188E-02    0.211E-01
RMM:   5    -0.692554976430E+03   -0.77826E-04   -0.25695E-05  7573   0.989E-03    0.231E-01
RMM:   6    -0.692554932943E+03    0.43487E-04   -0.20483E-05  7509   0.841E-03    0.206E-01
RMM:   7    -0.692554743851E+03    0.18909E-03   -0.43263E-05  7965   0.105E-02    0.640E-02
RMM:   8    -0.692554753344E+03   -0.94932E-05   -0.20579E-05  7500   0.906E-03
  17 F= -.69255475E+03 E0= -.69197765E+03  d E =-.427714E-02  mag=     2.7373
 curvature:  -0.03 expect dE=-0.719E-02 dE for cont linesearch -0.748E-05
 trial: gam= 0.06525 g(F)=  0.236E+00 g(S)=  0.000E+00 ort =-0.198E-01 (trialstep = 0.297E-01)
 search vector abs. value=  0.240E+00
 bond charge predicted
       N       E                     dE             d eps       ncg     rms          rms(c)
DAV:   1    -0.692559406176E+03   -0.46623E-02   -0.47758E-02 15568   0.342E-01    0.554E-02
RMM:   2    -0.692559989282E+03   -0.58311E-03   -0.10021E-03 13883   0.615E-02    0.309E-01
RMM:   3    -0.692559443063E+03    0.54622E-03   -0.18462E-04  8942   0.259E-02    0.902E-02
RMM:   4    -0.692559526681E+03   -0.83618E-04   -0.46755E-05  8072   0.156E-02    0.132E-01
RMM:   5    -0.692559481978E+03    0.44703E-04   -0.13534E-05  7781   0.777E-03    0.970E-02
RMM:   6    -0.692559419836E+03    0.62142E-04   -0.98954E-06  7101   0.594E-03    0.638E-02
RMM:   7    -0.692559380729E+03    0.39107E-04   -0.99287E-06  7151   0.595E-03    0.365E-02
RMM:   8    -0.692559346472E+03    0.34257E-04   -0.59386E-06  6988   0.506E-03
  18 F= -.69255935E+03 E0= -.69198223E+03  d E =-.459313E-02  mag=     2.7392
 trial-energy change:   -0.004593  1 .order   -0.004746   -0.006971   -0.002520
 step:   0.0466(harm=  0.0466)  dis= 0.00096  next Energy=  -692.560212 (dE=-0.546E-02)
 bond charge predicted
       N       E                     dE             d eps       ncg     rms          rms(c)
DAV:   1    -0.692560058719E+03   -0.67799E-03   -0.15226E-02 15552   0.193E-01    0.357E-02
RMM:   2    -0.692560149628E+03   -0.90909E-04   -0.32723E-04  9876   0.349E-02    0.128E-01
RMM:   3    -0.692560112922E+03    0.36706E-04   -0.59152E-05  8030   0.171E-02    0.100E-01
RMM:   4    -0.692560068364E+03    0.44558E-04   -0.13730E-05  7857   0.842E-03    0.473E-02
RMM:   5    -0.692560058301E+03    0.10063E-04   -0.35165E-06  6126   0.417E-03    0.337E-02
RMM:   6    -0.692560041031E+03    0.17270E-04   -0.18647E-06  4492   0.344E-03    0.363E-02
RMM:   7    -0.692560030246E+03    0.10784E-04   -0.25753E-06  5159   0.367E-03    0.395E-02
RMM:   8    -0.692560014920E+03    0.15326E-04   -0.14852E-06  4117   0.327E-03
  19 F= -.69256001E+03 E0= -.69198288E+03  d E =-.526158E-02  mag=     2.7413
 curvature:  -0.02 expect dE=-0.173E-02 dE for cont linesearch -0.227E-05
 trial: gam= 0.27078 g(F)=  0.726E-01 g(S)=  0.000E+00 ort = 0.478E-02 (trialstep = 0.331E-01)
 search vector abs. value=  0.928E-01
 bond charge predicted
       N       E                     dE             d eps       ncg     rms          rms(c)
DAV:   1    -0.692562010148E+03   -0.19799E-02   -0.15058E-02 15680   0.175E-01    0.384E-02
RMM:   2    -0.692562202254E+03   -0.19211E-03   -0.35021E-04 10312   0.375E-02    0.190E-01
RMM:   3    -0.692562035702E+03    0.16655E-03   -0.67980E-05  8099   0.164E-02    0.678E-02
RMM:   4    -0.692562140958E+03   -0.10526E-03   -0.25832E-05  7906   0.101E-02    0.149E-01
RMM:   5    -0.692562041897E+03    0.99062E-04   -0.12344E-05  7199   0.709E-03    0.806E-02
RMM:   6    -0.692562015905E+03    0.25992E-04   -0.62463E-06  6302   0.488E-03    0.520E-02
RMM:   7    -0.692561999103E+03    0.16802E-04   -0.36870E-06  5915   0.421E-03    0.211E-02
RMM:   8    -0.692561994373E+03    0.47298E-05   -0.15441E-06  4199   0.332E-03
  20 F= -.69256199E+03 E0= -.69198488E+03  d E =-.197945E-02  mag=     2.7433
 trial-energy change:   -0.001979  1 .order   -0.002016   -0.002447   -0.001586
 step:   0.0941(harm=  0.0941)  dis= 0.00111  next Energy=  -692.563491 (dE=-0.348E-02)
 bond charge predicted
       N       E                     dE             d eps       ncg     rms          rms(c)
DAV:   1    -0.692563444580E+03   -0.14455E-02   -0.50917E-02 15520   0.322E-01    0.669E-02
RMM:   2    -0.692564271339E+03   -0.82676E-03   -0.11589E-03 14378   0.687E-02    0.380E-01
RMM:   3    -0.692563628721E+03    0.64262E-03   -0.25092E-04  9551   0.275E-02    0.180E-01
RMM:   4    -0.692563840710E+03   -0.21199E-03   -0.72539E-05  8263   0.177E-02    0.253E-01
RMM:   5    -0.692563556914E+03    0.28380E-03   -0.39405E-05  8056   0.119E-02    0.140E-01
RMM:   6    -0.692563512904E+03    0.44010E-04   -0.23063E-05  7678   0.895E-03    0.947E-02
RMM:   7    -0.692563480013E+03    0.32891E-04   -0.15127E-05  7532   0.741E-03    0.533E-02
RMM:   8    -0.692563475599E+03    0.44144E-05   -0.70726E-06  6647   0.524E-03
  21 F= -.69256348E+03 E0= -.69198634E+03  d E =-.346068E-02  mag=     2.7454
 curvature:  -0.06 expect dE=-0.169E-02 dE for cont linesearch -0.338E-09
 trial: gam= 0.41587 g(F)=  0.285E-01 g(S)=  0.000E+00 ort =-0.231E-04 (trialstep = 0.453E-01)
 search vector abs. value=  0.446E-01
 bond charge predicted
       N       E                     dE             d eps       ncg     rms          rms(c)
DAV:   1    -0.692564387001E+03   -0.90699E-03   -0.76684E-03 15536   0.128E-01    0.426E-02
RMM:   2    -0.692564724062E+03   -0.33706E-03   -0.20520E-04  8994   0.259E-02    0.240E-01
RMM:   3    -0.692564493328E+03    0.23073E-03   -0.66772E-05  8021   0.175E-02    0.134E-01
RMM:   4    -0.692564413220E+03    0.80108E-04   -0.16550E-05  7784   0.937E-03    0.482E-02
RMM:   5    -0.692564401773E+03    0.11447E-04   -0.48112E-06  6229   0.469E-03    0.289E-02
RMM:   6    -0.692564405312E+03   -0.35390E-05   -0.19713E-06  4644   0.353E-03    0.277E-02
RMM:   7    -0.692564411599E+03   -0.62861E-05   -0.15010E-06  4055   0.334E-03    0.213E-02
RMM:   8    -0.692564418886E+03   -0.72875E-05   -0.10650E-06  3549   0.317E-03
  22 F= -.69256442E+03 E0= -.69198732E+03  d E =-.943287E-03  mag=     2.7477
 trial-energy change:   -0.000943  1 .order   -0.000916   -0.001292   -0.000540
 step:   0.0779(harm=  0.0779)  dis= 0.00076  next Energy=  -692.564586 (dE=-0.111E-02)
 bond charge predicted
       N       E                     dE             d eps       ncg     rms          rms(c)
DAV:   1    -0.692564579258E+03   -0.16766E-03   -0.39436E-03 15600   0.916E-02    0.254E-02
RMM:   2    -0.692564625736E+03   -0.46478E-04   -0.94692E-05  8078   0.182E-02    0.865E-02
RMM:   3    -0.692564626967E+03   -0.12315E-05   -0.21571E-05  7752   0.104E-02    0.721E-02
RMM:   4    -0.692564600301E+03    0.26667E-04   -0.53090E-06  6582   0.491E-03    0.194E-02
RMM:   5    -0.692564605832E+03   -0.55307E-05   -0.13424E-06  3873   0.326E-03    0.218E-02
RMM:   6    -0.692564618634E+03   -0.12802E-04   -0.91187E-07  3465   0.305E-03    0.241E-02
RMM:   7    -0.692564629598E+03   -0.10964E-04   -0.59497E-07  2927   0.296E-03    0.185E-02
RMM:   8    -0.692564642054E+03   -0.12456E-04   -0.49948E-07  2185   0.288E-03
  23 F= -.69256464E+03 E0= -.69198754E+03  d E =-.116646E-02  mag=     2.7497
 curvature:  -0.06 expect dE=-0.161E-02 dE for cont linesearch -0.535E-05
 trial: gam= 0.88588 g(F)=  0.266E-01 g(S)=  0.000E+00 ort =-0.198E-02 (trialstep = 0.398E-01)
 search vector abs. value=  0.580E-01
 bond charge predicted
       N       E                     dE             d eps       ncg     rms          rms(c)
DAV:   1    -0.692565302468E+03   -0.67287E-03   -0.78942E-03 15584   0.124E-01    0.388E-02
RMM:   2    -0.692565368674E+03   -0.66206E-04   -0.18223E-04  8579   0.264E-02    0.112E-01
RMM:   3    -0.692565340368E+03    0.28306E-04   -0.41344E-05  7911   0.144E-02    0.520E-02
RMM:   4    -0.692565357896E+03   -0.17527E-04   -0.12269E-05  7291   0.663E-03    0.746E-02
RMM:   5    -0.692565344557E+03    0.13339E-04   -0.54239E-06  6560   0.521E-03    0.337E-02
RMM:   6    -0.692565361520E+03   -0.16963E-04   -0.46923E-06  6156   0.411E-03    0.413E-02
RMM:   7    -0.692565370295E+03   -0.87751E-05   -0.27659E-06  5647   0.396E-03    0.294E-02
RMM:   8    -0.692565378256E+03   -0.79606E-05   -0.94358E-07  3316   0.305E-03
  24 F= -.69256538E+03 E0= -.69198829E+03  d E =-.736201E-03  mag=     2.7515
 trial-energy change:   -0.000736  1 .order   -0.000625   -0.000987   -0.000263
 step:   0.0543(harm=  0.0543)  dis= 0.00063  next Energy=  -692.565315 (dE=-0.673E-03)
 bond charge predicted
       N       E                     dE             d eps       ncg     rms          rms(c)
DAV:   1    -0.692565425203E+03   -0.54908E-04   -0.10457E-03 15264   0.453E-02    0.133E-02
RMM:   2    -0.692565451467E+03   -0.26264E-04   -0.25861E-05  7879   0.984E-03    0.473E-02
RMM:   3    -0.692565445358E+03    0.61090E-05   -0.57166E-06  7177   0.565E-03    0.299E-02
RMM:   4    -0.692565442723E+03    0.26352E-05   -0.38308E-07  2454   0.272E-03    0.129E-02
RMM:   5    -0.692565450653E+03   -0.79303E-05   -0.11972E-07  1959   0.259E-03    0.127E-02
RMM:   6    -0.692565466456E+03   -0.15802E-04   -0.21340E-07  1927   0.266E-03    0.143E-02
RMM:   7    -0.692565476873E+03   -0.10417E-04   -0.59169E-08  1531   0.267E-03    0.859E-03
RMM:   8    -0.692565490648E+03   -0.13775E-04   -0.87668E-08  1418   0.264E-03
  25 F= -.69256549E+03 E0= -.69198842E+03  d E =-.848593E-03  mag=     2.7529
 curvature:  -0.06 expect dE=-0.724E-03 dE for cont linesearch -0.202E-05
 trial: gam= 0.15628 g(F)=  0.114E-01 g(S)=  0.000E+00 ort =-0.136E-02 (trialstep = 0.427E-01)
 search vector abs. value=  0.124E-01
 bond charge predicted
       N       E                     dE             d eps       ncg     rms          rms(c)
DAV:   1    -0.692565829146E+03   -0.35227E-03   -0.37847E-03 15616   0.922E-02    0.223E-02
RMM:   2    -0.692565919529E+03   -0.90383E-04   -0.93315E-05  7934   0.198E-02    0.120E-01
RMM:   3    -0.692565852285E+03    0.67245E-04   -0.18867E-05  7897   0.983E-03    0.353E-02
RMM:   4    -0.692565859372E+03   -0.70871E-05   -0.54411E-06  6646   0.484E-03    0.461E-02
RMM:   5    -0.692565859720E+03   -0.34850E-06   -0.20072E-06  4936   0.363E-03    0.336E-02
RMM:   6    -0.692565864754E+03   -0.50334E-05   -0.61011E-07  3110   0.296E-03    0.202E-02
RMM:   7    -0.692565877430E+03   -0.12676E-04   -0.90449E-07  3424   0.310E-03    0.192E-02
RMM:   8    -0.692565885540E+03   -0.81103E-05   -0.53215E-07  2533   0.296E-03
  26 F= -.69256589E+03 E0= -.69198885E+03  d E =-.394892E-03  mag=     2.7541
 trial-energy change:   -0.000395  1 .order   -0.000338   -0.000478   -0.000198
 step:   0.0729(harm=  0.0729)  dis= 0.00088  next Energy=  -692.565899 (dE=-0.408E-03)
 bond charge predicted
       N       E                     dE             d eps       ncg     rms          rms(c)
DAV:   1    -0.692565961309E+03   -0.83879E-04   -0.18780E-03 15184   0.651E-02    0.165E-02
RMM:   2    -0.692566020894E+03   -0.59585E-04   -0.46887E-05  7932   0.141E-02    0.888E-02
RMM:   3    -0.692565980431E+03    0.40463E-04   -0.10309E-05  7758   0.730E-03    0.281E-02
RMM:   4    -0.692565980200E+03    0.23042E-06   -0.28329E-06  5654   0.381E-03    0.290E-02
RMM:   5    -0.692565983456E+03   -0.32556E-05   -0.30700E-07  2535   0.281E-03    0.221E-02
RMM:   6    -0.692565992529E+03   -0.90725E-05   -0.39699E-07  2615   0.295E-03    0.198E-02
RMM:   7    -0.692566000827E+03   -0.82985E-05   -0.17877E-07  2072   0.280E-03    0.117E-02
RMM:   8    -0.692566007974E+03   -0.71470E-05   -0.22788E-07  1832   0.279E-03
  27 F= -.69256601E+03 E0= -.69198898E+03  d E =-.517326E-03  mag=     2.7551
 curvature:  -0.04 expect dE=-0.211E-03 dE for cont linesearch -0.176E-07
 trial: gam= 0.44067 g(F)=  0.523E-02 g(S)=  0.000E+00 ort = 0.736E-04 (trialstep = 0.487E-01)
 search vector abs. value=  0.770E-02
 bond charge predicted
       N       E                     dE             d eps       ncg     rms          rms(c)
DAV:   1    -0.692566131372E+03   -0.13055E-03   -0.32673E-03 15472   0.837E-02    0.186E-02
RMM:   2    -0.692566187877E+03   -0.56505E-04   -0.72037E-05  7886   0.170E-02    0.924E-02
RMM:   3    -0.692566149276E+03    0.38601E-04   -0.13238E-05  7833   0.839E-03    0.273E-02
RMM:   4    -0.692566153260E+03   -0.39842E-05   -0.28790E-06  5691   0.385E-03    0.329E-02
RMM:   5    -0.692566161377E+03   -0.81162E-05   -0.66831E-07  3166   0.296E-03    0.369E-02
RMM:   6    -0.692566168689E+03   -0.73121E-05   -0.55411E-07  3029   0.296E-03    0.284E-02
RMM:   7    -0.692566180048E+03   -0.11360E-04   -0.21560E-06  4861   0.341E-03    0.143E-02
RMM:   8    -0.692566185381E+03   -0.53326E-05   -0.41006E-07  2331   0.281E-03
  28 F= -.69256619E+03 E0= -.69198917E+03  d E =-.177407E-03  mag=     2.7557
 trial-energy change:   -0.000177  1 .order   -0.000121   -0.000256    0.000014
 step:   0.0462(harm=  0.0462)  dis= 0.00041  next Energy=  -692.566130 (dE=-0.122E-03)
 bond charge predicted
       N       E                     dE             d eps       ncg     rms          rms(c)
DAV:   1    -0.692566189360E+03   -0.93118E-05   -0.10183E-05  8608   0.550E-03    0.754E-03
RMM:   2    -0.692566222107E+03   -0.32746E-04   -0.26327E-06  5602   0.366E-03    0.634E-02
RMM:   3    -0.692566198482E+03    0.23624E-04   -0.10466E-06  3989   0.308E-03    0.216E-02
RMM:   4    -0.692566198069E+03    0.41328E-06   -0.34145E-08  1538   0.225E-03    0.102E-02
RMM:   5    -0.692566200926E+03   -0.28565E-05   -0.19839E-09  1064   0.220E-03    0.126E-02
RMM:   6    -0.692566203723E+03   -0.27969E-05   -0.12572E-10  1005   0.222E-03    0.127E-02
RMM:   7    -0.692566207605E+03   -0.38821E-05   -0.43903E-10   986   0.225E-03    0.947E-03
RMM:   8    -0.692566218146E+03   -0.10541E-04   -0.88924E-09  1115   0.232E-03
  29 F= -.69256622E+03 E0= -.69198919E+03  d E =-.210172E-03  mag=     2.7561
 curvature:  -0.03 expect dE=-0.490E-04 dE for cont linesearch -0.162E-07
 trial: gam= 0.29805 g(F)=  0.145E-02 g(S)=  0.000E+00 ort = 0.607E-04 (trialstep = 0.482E-01)
 search vector abs. value=  0.217E-02
 bond charge predicted
       N       E                     dE             d eps       ncg     rms          rms(c)
DAV:   1    -0.692566274557E+03   -0.66952E-04   -0.93541E-04 14752   0.384E-02    0.117E-02
RMM:   2    -0.692566283209E+03   -0.86526E-05   -0.20513E-05  7656   0.911E-03    0.331E-02
RMM:   3    -0.692566282745E+03    0.46426E-06   -0.38751E-06  6293   0.465E-03    0.184E-02
RMM:   4    -0.692566282586E+03    0.15885E-06   -0.23137E-07  1985   0.252E-03    0.146E-02
RMM:   5    -0.692566287522E+03   -0.49358E-05   -0.12226E-07  1794   0.256E-03    0.216E-02
RMM:   6    -0.692566290640E+03   -0.31184E-05   -0.14398E-07  1741   0.262E-03    0.146E-02
RMM:   7    -0.692566296015E+03   -0.53747E-05   -0.26391E-07  1883   0.275E-03    0.876E-03
RMM:   8    -0.692566299243E+03   -0.32276E-05   -0.22163E-07  1618   0.270E-03
  30 F= -.69256630E+03 E0= -.69198929E+03  d E =-.810967E-04  mag=     2.7564
 trial-energy change:   -0.000081  1 .order   -0.000054   -0.000071   -0.000038
 step:   0.1029(harm=  0.1029)  dis= 0.00042  next Energy=  -692.566294 (dE=-0.754E-04)
 reached required accuracy - stopping structural energy minimisation
 writing wavefunctions
