       N       E                     dE             d eps       ncg     rms          rms(c)
DAV:   1    -0.104288694273E+02   -0.10429E+02   -0.21171E-05299456   0.159E-02    0.416E-02
RMM:   2    -0.104288917278E+02   -0.22300E-04   -0.56192E-06167160   0.109E-02
   1 F= -.10428892E+02 E0= -.10428837E+02  d E =-.104289E+02  mag=     0.5052
