       N       E                     dE             d eps       ncg     rms          rms(c)
DAV:   1     0.909203127499E+04    0.90920E+04   -0.34147E+05 22240   0.123E+03
DAV:   2     0.954790233830E+03   -0.81372E+04   -0.74283E+04 28304   0.335E+02
DAV:   3    -0.840396791998E+03   -0.17952E+04   -0.17632E+04 25632   0.167E+02
DAV:   4    -0.937434180567E+03   -0.97037E+02   -0.96309E+02 28224   0.470E+01
DAV:   5    -0.942345779474E+03   -0.49116E+01   -0.49001E+01 35328   0.917E+00    0.168E+02
RMM:   6    -0.100349314729E+04   -0.61147E+02   -0.28380E+03 25367   0.106E+02    0.356E+02
RMM:   7    -0.745596086744E+03    0.25790E+03   -0.35950E+02 22103   0.380E+01    0.171E+02
RMM:   8    -0.116498649157E+04   -0.41939E+03   -0.22697E+02 22979   0.195E+01    0.252E+02
RMM:   9    -0.777673104728E+03    0.38731E+03   -0.20519E+02 22059   0.276E+01    0.130E+02
RMM:  10    -0.696195687809E+03    0.81477E+02   -0.70524E+01 22190   0.155E+01    0.975E+01
RMM:  11    -0.695932075859E+03    0.26361E+00   -0.47330E+01 22271   0.125E+01    0.102E+02
RMM:  12    -0.678788769073E+03    0.17143E+02   -0.23561E+01 22212   0.904E+00    0.664E+01
RMM:  13    -0.672669963306E+03    0.61188E+01   -0.12672E+01 22623   0.618E+00    0.570E+01
RMM:  14    -0.666883823584E+03    0.57861E+01   -0.12758E+01 23958   0.527E+00    0.521E+01
RMM:  15    -0.667093535984E+03   -0.20971E+00   -0.10074E+01 23920   0.521E+00    0.503E+01
RMM:  16    -0.664385613779E+03    0.27079E+01   -0.49390E+00 24008   0.345E+00    0.399E+01
RMM:  17    -0.667623962652E+03   -0.32383E+01   -0.38194E+00 24143   0.283E+00    0.425E+01
RMM:  18    -0.667024540357E+03    0.59942E+00   -0.38626E+00 24729   0.301E+00    0.421E+01
RMM:  19    -0.665901341991E+03    0.11232E+01   -0.33893E+00 25174   0.290E+00    0.376E+01
RMM:  20    -0.663751669325E+03    0.21497E+01   -0.21983E+00 25370   0.215E+00    0.305E+01
RMM:  21    -0.663921333857E+03   -0.16966E+00   -0.48897E-01 23942   0.102E+00    0.285E+01
RMM:  22    -0.663814545713E+03    0.10679E+00   -0.23078E-01 27706   0.652E-01    0.276E+01
RMM:  23    -0.664124857854E+03   -0.31031E+00   -0.41108E-01 27314   0.854E-01    0.270E+01
RMM:  24    -0.663994261524E+03    0.13060E+00   -0.26732E-01 26225   0.735E-01    0.251E+01
RMM:  25    -0.664716573103E+03   -0.72231E+00   -0.53370E-01 29523   0.104E+00    0.231E+01
RMM:  26    -0.664795713008E+03   -0.79140E-01   -0.17559E+00 33144   0.194E+00    0.179E+01
RMM:  27    -0.664006687857E+03    0.78903E+00   -0.14952E+00 32789   0.172E+00    0.156E+01
RMM:  28    -0.663847240340E+03    0.15945E+00   -0.56534E-01 30182   0.113E+00    0.118E+01
RMM:  29    -0.663976106626E+03   -0.12887E+00   -0.26008E-01 27986   0.745E-01    0.103E+01
RMM:  30    -0.664060185735E+03   -0.84079E-01   -0.18950E-01 27832   0.636E-01    0.876E+00
RMM:  31    -0.664188752308E+03   -0.12857E+00   -0.14513E-01 27620   0.509E-01    0.736E+00
RMM:  32    -0.664383791646E+03   -0.19504E+00   -0.13573E-01 27951   0.485E-01    0.619E+00
RMM:  33    -0.664526094844E+03   -0.14230E+00   -0.76169E-02 26736   0.383E-01    0.547E+00
RMM:  34    -0.664592760567E+03   -0.66666E-01   -0.21330E-02 24331   0.213E-01    0.515E+00
RMM:  35    -0.664712849399E+03   -0.12009E+00   -0.29566E-02 25536   0.228E-01    0.479E+00
RMM:  36    -0.664872111181E+03   -0.15926E+00   -0.39791E-02 27428   0.269E-01    0.426E+00
RMM:  37    -0.665003669275E+03   -0.13156E+00   -0.28141E-02 26684   0.227E-01    0.404E+00
RMM:  38    -0.665031191922E+03   -0.27523E-01   -0.32751E-03 25927   0.747E-02    0.402E+00
RMM:  39    -0.665111478501E+03   -0.80287E-01   -0.12925E-02 27516   0.156E-01    0.402E+00
RMM:  40    -0.665172273760E+03   -0.60795E-01   -0.82494E-03 25783   0.112E-01    0.393E+00
RMM:  41    -0.665355752214E+03   -0.18348E+00   -0.46725E-02 32289   0.275E-01    0.371E+00
RMM:  42    -0.665645395952E+03   -0.28964E+00   -0.14695E-01 35188   0.499E-01    0.341E+00
RMM:  43    -0.665745142761E+03   -0.99747E-01   -0.86307E-02 35009   0.393E-01    0.313E+00
RMM:  44    -0.665752119856E+03   -0.69771E-02   -0.27571E-02 32744   0.229E-01    0.266E+00
RMM:  45    -0.665717007610E+03    0.35112E-01   -0.28276E-02 32268   0.241E-01    0.198E+00
RMM:  46    -0.665698890409E+03    0.18117E-01   -0.12992E-02 30551   0.169E-01    0.171E+00
RMM:  47    -0.665699765914E+03   -0.87551E-03   -0.15178E-02 30898   0.185E-01    0.154E+00
RMM:  48    -0.665674917523E+03    0.24848E-01   -0.99873E-03 29285   0.150E-01    0.134E+00
RMM:  49    -0.665654605259E+03    0.20312E-01   -0.47789E-03 26366   0.105E-01    0.118E+00
RMM:  50    -0.665645601941E+03    0.90033E-02   -0.25218E-03 24000   0.788E-02    0.101E+00
RMM:  51    -0.665640265613E+03    0.53363E-02   -0.24577E-03 24859   0.758E-02    0.991E-01
RMM:  52    -0.665634808373E+03    0.54572E-02   -0.14295E-03 22311   0.570E-02    0.911E-01
RMM:  53    -0.665625095176E+03    0.97132E-02   -0.31909E-03 26431   0.773E-02    0.760E-01
RMM:  54    -0.665612303813E+03    0.12791E-01   -0.38688E-03 27764   0.903E-02    0.699E-01
RMM:  55    -0.665573337891E+03    0.38966E-01   -0.50383E-03 28969   0.996E-02    0.675E-01
RMM:  56    -0.665547918448E+03    0.25419E-01   -0.99845E-03 30949   0.154E-01    0.751E-01
RMM:  57    -0.665559663478E+03   -0.11745E-01   -0.58724E-03 26572   0.106E-01    0.563E-01
RMM:  58    -0.665555723808E+03    0.39397E-02   -0.14204E-03 21457   0.523E-02    0.571E-01
RMM:  59    -0.665544612035E+03    0.11112E-01   -0.14625E-03 22161   0.476E-02    0.608E-01
RMM:  60    -0.665531271299E+03    0.13341E-01   -0.11820E-03 20447   0.444E-02    0.543E-01
RMM:  61    -0.665541650498E+03   -0.10379E-01   -0.13665E-03 21419   0.503E-02    0.479E-01
RMM:  62    -0.665525796200E+03    0.15854E-01   -0.18320E-03 21527   0.502E-02    0.469E-01
RMM:  63    -0.665503696661E+03    0.22100E-01   -0.29744E-03 23698   0.590E-02    0.452E-01
RMM:  64    -0.665470548331E+03    0.33148E-01   -0.49100E-03 26088   0.796E-02    0.425E-01
RMM:  65    -0.665432975524E+03    0.37573E-01   -0.48351E-03 26537   0.771E-02    0.490E-01
RMM:  66    -0.665424444781E+03    0.85307E-02   -0.17848E-03 22844   0.535E-02    0.431E-01
RMM:  67    -0.665412988200E+03    0.11457E-01   -0.19165E-03 22288   0.492E-02    0.369E-01
RMM:  68    -0.665433766841E+03   -0.20779E-01   -0.16675E-03 21667   0.453E-02    0.333E-01
RMM:  69    -0.665463828181E+03   -0.30061E-01   -0.65384E-04 18000   0.322E-02    0.297E-01
RMM:  70    -0.665487714020E+03   -0.23886E-01   -0.35181E-04 15925   0.257E-02    0.284E-01
RMM:  71    -0.665516517516E+03   -0.28803E-01   -0.50930E-04 16926   0.300E-02    0.270E-01
RMM:  72    -0.665539835851E+03   -0.23318E-01   -0.24659E-04 14473   0.230E-02    0.272E-01
RMM:  73    -0.665565209828E+03   -0.25374E-01   -0.31342E-04 15212   0.255E-02    0.264E-01
RMM:  74    -0.665584888429E+03   -0.19679E-01   -0.24092E-04 13738   0.231E-02    0.267E-01
RMM:  75    -0.665587471195E+03   -0.25828E-02   -0.38355E-05 11470   0.110E-02    0.266E-01
RMM:  76    -0.665583105720E+03    0.43655E-02   -0.92093E-05 12413   0.156E-02    0.258E-01
RMM:  77    -0.665585707938E+03   -0.26022E-02   -0.21780E-05 10832   0.909E-03    0.255E-01
RMM:  78    -0.665585651771E+03    0.56167E-04   -0.65616E-06  9260   0.483E-03
   1 F= -.66558565E+03 E0= -.66519793E+03  d E =-.665586E+03  mag=    64.3104
       N       E                     dE             d eps       ncg     rms          rms(c)
DAV:   1    -0.664951164665E+03    0.63454E+00   -0.57310E+01 23840   0.953E+00    0.339E+00
RMM:   2    -0.665230616745E+03   -0.27945E+00   -0.16799E+00 21760   0.218E+00    0.446E+00
RMM:   3    -0.665265593517E+03   -0.34977E-01   -0.35576E-01 22223   0.975E-01    0.333E+00
RMM:   4    -0.665275927448E+03   -0.10334E-01   -0.12768E-01 23162   0.584E-01    0.193E+00
RMM:   5    -0.665279436568E+03   -0.35091E-02   -0.37967E-02 23728   0.269E-01    0.142E+00
RMM:   6    -0.665280673338E+03   -0.12368E-02   -0.17491E-02 21718   0.210E-01    0.101E+00
RMM:   7    -0.665278883995E+03    0.17893E-02   -0.11839E-02 22295   0.147E-01    0.668E-01
RMM:   8    -0.665285174389E+03   -0.62904E-02   -0.32742E-03 20782   0.912E-02    0.427E-01
RMM:   9    -0.665290127761E+03   -0.49534E-02   -0.15394E-03 20817   0.612E-02    0.351E-01
RMM:  10    -0.665295664751E+03   -0.55370E-02   -0.77685E-04 19904   0.400E-02    0.296E-01
RMM:  11    -0.665304010762E+03   -0.83460E-02   -0.57775E-04 18658   0.358E-02    0.272E-01
RMM:  12    -0.665315616418E+03   -0.11606E-01   -0.39899E-04 16720   0.314E-02    0.208E-01
RMM:  13    -0.665326194515E+03   -0.10578E-01   -0.21465E-04 14265   0.234E-02    0.200E-01
RMM:  14    -0.665335070884E+03   -0.88764E-02   -0.11793E-04 12566   0.196E-02    0.193E-01
RMM:  15    -0.665348512199E+03   -0.13441E-01   -0.12630E-04 12862   0.185E-02    0.188E-01
RMM:  16    -0.665377300763E+03   -0.28789E-01   -0.31193E-04 14795   0.269E-02    0.179E-01
RMM:  17    -0.665410066253E+03   -0.32765E-01   -0.36333E-04 15391   0.293E-02    0.176E-01
RMM:  18    -0.665431344816E+03   -0.21279E-01   -0.17632E-04 13129   0.224E-02    0.170E-01
RMM:  19    -0.665458769494E+03   -0.27425E-01   -0.21849E-04 13898   0.220E-02    0.165E-01
RMM:  20    -0.665510413876E+03   -0.51644E-01   -0.52486E-04 16378   0.321E-02    0.158E-01
RMM:  21    -0.665567890495E+03   -0.57477E-01   -0.65490E-04 17235   0.368E-02    0.162E-01
RMM:  22    -0.665627985293E+03   -0.60095E-01   -0.79712E-04 18155   0.406E-02    0.146E-01
RMM:  23    -0.665666586687E+03   -0.38601E-01   -0.47075E-04 16341   0.317E-02    0.124E-01
RMM:  24    -0.665700228524E+03   -0.33642E-01   -0.38047E-04 15729   0.279E-02    0.125E-01
RMM:  25    -0.665746186005E+03   -0.45957E-01   -0.54507E-04 16947   0.318E-02    0.110E-01
RMM:  26    -0.665798495825E+03   -0.52310E-01   -0.48192E-04 16319   0.288E-02    0.934E-02
RMM:  27    -0.665863334849E+03   -0.64839E-01   -0.47526E-04 16252   0.264E-02    0.828E-02
RMM:  28    -0.665901155640E+03   -0.37821E-01   -0.23609E-04 14312   0.196E-02    0.780E-02
RMM:  29    -0.665939939789E+03   -0.38784E-01   -0.30103E-04 15166   0.188E-02    0.595E-02
RMM:  30    -0.665958708866E+03   -0.18769E-01   -0.13732E-04 12652   0.143E-02    0.500E-02
RMM:  31    -0.665966302961E+03   -0.75941E-02   -0.55290E-05 11134   0.108E-02    0.441E-02
RMM:  32    -0.665976524593E+03   -0.10222E-01   -0.58348E-05 11869   0.109E-02    0.412E-02
RMM:  33    -0.665984085115E+03   -0.75605E-02   -0.62148E-05 11906   0.124E-02    0.353E-02
RMM:  34    -0.665990005489E+03   -0.59204E-02   -0.72232E-05 11841   0.130E-02    0.318E-02
RMM:  35    -0.665993212301E+03   -0.32068E-02   -0.57610E-05 11663   0.122E-02    0.264E-02
RMM:  36    -0.665995499756E+03   -0.22875E-02   -0.45299E-05 11319   0.106E-02    0.229E-02
RMM:  37    -0.665997349164E+03   -0.18494E-02   -0.40460E-05 11308   0.103E-02    0.211E-02
RMM:  38    -0.665998725988E+03   -0.13768E-02   -0.31153E-05 10905   0.890E-03    0.193E-02
RMM:  39    -0.666000420958E+03   -0.16950E-02   -0.33849E-05 11140   0.943E-03    0.171E-02
RMM:  40    -0.666001873155E+03   -0.14522E-02   -0.27592E-05 10761   0.819E-03    0.138E-02
RMM:  41    -0.666002828029E+03   -0.95487E-03   -0.16326E-05 10262   0.672E-03    0.118E-02
RMM:  42    -0.666003513935E+03   -0.68591E-03   -0.11575E-05  9848   0.562E-03    0.103E-02
RMM:  43    -0.666004053395E+03   -0.53946E-03   -0.80833E-06  9134   0.500E-03    0.836E-03
RMM:  44    -0.666004574222E+03   -0.52083E-03   -0.46123E-06  8129   0.401E-03    0.748E-03
RMM:  45    -0.666005080312E+03   -0.50609E-03   -0.31222E-06  7775   0.361E-03    0.686E-03
RMM:  46    -0.666005707715E+03   -0.62740E-03   -0.26977E-06  7210   0.328E-03    0.654E-03
RMM:  47    -0.666006456780E+03   -0.74907E-03   -0.35393E-06  7731   0.334E-03    0.593E-03
RMM:  48    -0.666007156431E+03   -0.69965E-03   -0.37016E-06  7533   0.323E-03    0.569E-03
RMM:  49    -0.666007587347E+03   -0.43092E-03   -0.33714E-06  7096   0.311E-03    0.528E-03
RMM:  50    -0.666007806709E+03   -0.21936E-03   -0.31333E-06  6756   0.308E-03    0.443E-03
RMM:  51    -0.666007918183E+03   -0.11147E-03   -0.26863E-06  6486   0.306E-03    0.385E-03
RMM:  52    -0.666008002271E+03   -0.84088E-04   -0.19250E-06  5997   0.292E-03
   2 F= -.66600800E+03 E0= -.66562858E+03  d E =-.422351E+00  mag=    64.4876
       N       E                     dE             d eps       ncg     rms          rms(c)
DAV:   1    -0.666177303117E+03   -0.16938E+00   -0.21607E+01 23808   0.583E+00    0.204E+00
RMM:   2    -0.666261448011E+03   -0.84145E-01   -0.58965E-01 21760   0.129E+00    0.168E+00
RMM:   3    -0.666282036686E+03   -0.20589E-01   -0.10701E-01 22993   0.503E-01    0.153E+00
RMM:   4    -0.666280855485E+03    0.11812E-02   -0.36280E-02 22626   0.310E-01    0.122E+00
RMM:   5    -0.666279125723E+03    0.17298E-02   -0.12888E-02 22747   0.153E-01    0.570E-01
RMM:   6    -0.666278965855E+03    0.15987E-03   -0.56477E-03 20724   0.112E-01    0.509E-01
RMM:   7    -0.666278746258E+03    0.21960E-03   -0.33951E-03 20305   0.939E-02    0.424E-01
RMM:   8    -0.666278234414E+03    0.51184E-03   -0.10371E-03 18753   0.491E-02    0.184E-01
RMM:   9    -0.666278174779E+03    0.59635E-04   -0.48391E-04 16761   0.298E-02
   3 F= -.66627817E+03 E0= -.66589701E+03  d E =-.692523E+00  mag=    64.4895
       N       E                     dE             d eps       ncg     rms          rms(c)
DAV:   1    -0.666346852377E+03   -0.68618E-01   -0.35805E+00 23536   0.238E+00    0.834E-01
RMM:   2    -0.666361019304E+03   -0.14167E-01   -0.99237E-02 21489   0.528E-01    0.648E-01
RMM:   3    -0.666364669005E+03   -0.36497E-02   -0.17605E-02 22272   0.203E-01    0.547E-01
RMM:   4    -0.666364746357E+03   -0.77352E-04   -0.59065E-03 20401   0.130E-01    0.520E-01
RMM:   5    -0.666364314959E+03    0.43140E-03   -0.23355E-03 20838   0.656E-02    0.240E-01
RMM:   6    -0.666363799617E+03    0.51534E-03   -0.10401E-03 18200   0.458E-02    0.245E-01
RMM:   7    -0.666363106366E+03    0.69325E-03   -0.59214E-04 17043   0.394E-02    0.201E-01
RMM:   8    -0.666362618913E+03    0.48745E-03   -0.24502E-04 14032   0.253E-02    0.120E-01
RMM:   9    -0.666362287143E+03    0.33177E-03   -0.10982E-04 12405   0.162E-02    0.108E-01
RMM:  10    -0.666361771348E+03    0.51579E-03   -0.72474E-05 11876   0.151E-02    0.897E-02
RMM:  11    -0.666360838624E+03    0.93272E-03   -0.92646E-05 12110   0.154E-02    0.767E-02
RMM:  12    -0.666359817517E+03    0.10211E-02   -0.87471E-05 12092   0.153E-02    0.644E-02
RMM:  13    -0.666359112820E+03    0.70470E-03   -0.55209E-05 11291   0.125E-02    0.532E-02
RMM:  14    -0.666358674843E+03    0.43798E-03   -0.31942E-05 10929   0.950E-03    0.523E-02
RMM:  15    -0.666358379121E+03    0.29572E-03   -0.18560E-05 10326   0.688E-03    0.501E-02
RMM:  16    -0.666358099616E+03    0.27950E-03   -0.12920E-05  9875   0.613E-03    0.511E-02
RMM:  17    -0.666357761058E+03    0.33856E-03   -0.15240E-05 10255   0.638E-03    0.523E-02
RMM:  18    -0.666357720973E+03    0.40084E-04   -0.43099E-06  7619   0.410E-03
   4 F= -.66635772E+03 E0= -.66597343E+03  d E =-.772069E+00  mag=    64.4990
       N       E                     dE             d eps       ncg     rms          rms(c)
DAV:   1    -0.666361585018E+03   -0.38240E-02   -0.16105E-01 23504   0.504E-01    0.184E-01
RMM:   2    -0.666362083385E+03   -0.49837E-03   -0.44777E-03 20054   0.113E-01    0.158E-01
RMM:   3    -0.666362115773E+03   -0.32388E-04   -0.79512E-04 17018   0.446E-02    0.135E-01
RMM:   4    -0.666361958825E+03    0.15695E-03   -0.30898E-04 13739   0.307E-02    0.125E-01
RMM:   5    -0.666361623575E+03    0.33525E-03   -0.10846E-04 11761   0.159E-02    0.752E-02
RMM:   6    -0.666361113913E+03    0.50966E-03   -0.72289E-05 11424   0.141E-02    0.969E-02
RMM:   7    -0.666360761878E+03    0.35204E-03   -0.33338E-05 10773   0.965E-03    0.757E-02
RMM:   8    -0.666360378258E+03    0.38362E-03   -0.28312E-05 10432   0.899E-03    0.856E-02
RMM:   9    -0.666360326990E+03    0.51267E-04   -0.74999E-06  8187   0.472E-03
   5 F= -.66636033E+03 E0= -.66597535E+03  d E =-.774675E+00  mag=    64.5035
       N       E                     dE             d eps       ncg     rms          rms(c)
DAV:   1    -0.666101072818E+03    0.25931E+00   -0.28698E+01 23456   0.618E+00    0.339E+00
RMM:   2    -0.666274503682E+03   -0.17343E+00   -0.72168E-01 21760   0.147E+00    0.462E+00
RMM:   3    -0.666290647830E+03   -0.16144E-01   -0.23460E-01 22257   0.808E-01    0.310E+00
RMM:   4    -0.666274049312E+03    0.16599E-01   -0.82362E-02 23595   0.470E-01    0.168E+00
RMM:   5    -0.666273362645E+03    0.68667E-03   -0.20505E-02 24514   0.200E-01    0.119E+00
RMM:   6    -0.666271577473E+03    0.17852E-02   -0.10287E-02 22176   0.164E-01    0.970E-01
RMM:   7    -0.666271135307E+03    0.44217E-03   -0.68628E-03 22185   0.124E-01    0.351E-01
RMM:   8    -0.666273979255E+03   -0.28439E-02   -0.21733E-03 20547   0.804E-02    0.301E-01
RMM:   9    -0.666275259507E+03   -0.12803E-02   -0.82910E-04 19414   0.472E-02    0.164E-01
RMM:  10    -0.666276577851E+03   -0.13183E-02   -0.38305E-04 16555   0.258E-02    0.134E-01
RMM:  11    -0.666278182430E+03   -0.16046E-02   -0.17829E-04 13659   0.221E-02    0.963E-02
RMM:  12    -0.666280026728E+03   -0.18443E-02   -0.13460E-04 13183   0.183E-02    0.605E-02
RMM:  13    -0.666280936383E+03   -0.90965E-03   -0.67180E-05 12284   0.143E-02    0.523E-02
RMM:  14    -0.666281727810E+03   -0.79143E-03   -0.43291E-05 11634   0.111E-02    0.431E-02
RMM:  15    -0.666282656773E+03   -0.92896E-03   -0.33574E-05 11380   0.932E-03    0.344E-02
RMM:  16    -0.666284333070E+03   -0.16763E-02   -0.45031E-05 11728   0.996E-03    0.326E-02
RMM:  17    -0.666285260418E+03   -0.92735E-03   -0.28587E-05 11036   0.809E-03    0.309E-02
RMM:  18    -0.666285875013E+03   -0.61459E-03   -0.18094E-05 10389   0.691E-03    0.262E-02
RMM:  19    -0.666286219764E+03   -0.34475E-03   -0.10581E-05  9220   0.496E-03    0.253E-02
RMM:  20    -0.666286549917E+03   -0.33015E-03   -0.77262E-06  8950   0.447E-03    0.241E-02
RMM:  21    -0.666286770851E+03   -0.22093E-03   -0.53522E-06  8124   0.388E-03    0.246E-02
RMM:  22    -0.666287029644E+03   -0.25879E-03   -0.62511E-06  8585   0.409E-03    0.240E-02
RMM:  23    -0.666287155778E+03   -0.12613E-03   -0.40462E-06  6925   0.333E-03    0.240E-02
RMM:  24    -0.666287190385E+03   -0.34607E-04   -0.22386E-06  5236   0.285E-03
   6 F= -.66628719E+03 E0= -.66590518E+03  d E =0.731366E-01  mag=    64.5211
       N       E                     dE             d eps       ncg     rms          rms(c)
DAV:   1    -0.666270549619E+03    0.16606E-01   -0.16161E+01 23312   0.464E+00    0.249E+00
RMM:   2    -0.666355853834E+03   -0.85304E-01   -0.35166E-01 21760   0.100E+00    0.187E+00
RMM:   3    -0.666381183969E+03   -0.25330E-01   -0.72286E-02 22394   0.434E-01    0.155E+00
RMM:   4    -0.666379314393E+03    0.18696E-02   -0.33219E-02 23043   0.311E-01    0.132E+00
RMM:   5    -0.666377764047E+03    0.15503E-02   -0.10082E-02 22748   0.150E-01    0.659E-01
RMM:   6    -0.666378740006E+03   -0.97596E-03   -0.58777E-03 21610   0.119E-01    0.705E-01
RMM:   7    -0.666377968966E+03    0.77104E-03   -0.33157E-03 21206   0.927E-02    0.320E-01
RMM:   8    -0.666377335959E+03    0.63301E-03   -0.10216E-03 19953   0.520E-02    0.256E-01
RMM:   9    -0.666376790606E+03    0.54535E-03   -0.43902E-04 17188   0.322E-02    0.180E-01
RMM:  10    -0.666375827586E+03    0.96302E-03   -0.23585E-04 14420   0.229E-02    0.139E-01
RMM:  11    -0.666373923073E+03    0.19045E-02   -0.29395E-04 14658   0.244E-02    0.136E-01
RMM:  12    -0.666372304597E+03    0.16185E-02   -0.16284E-04 13163   0.204E-02    0.127E-01
RMM:  13    -0.666372329284E+03   -0.24687E-04   -0.36363E-05 11439   0.103E-02
   7 F= -.66637233E+03 E0= -.66598622E+03  d E =-.120023E-01  mag=    64.5297
       N       E                     dE             d eps       ncg     rms          rms(c)
DAV:   1    -0.666357868263E+03    0.14436E-01   -0.40229E+00 23904   0.226E+00    0.131E+00
RMM:   2    -0.666378021286E+03   -0.20153E-01   -0.88020E-02 21761   0.509E-01    0.163E+00
RMM:   3    -0.666381336444E+03   -0.33152E-02   -0.31152E-02 21875   0.299E-01    0.137E+00
RMM:   4    -0.666376571943E+03    0.47645E-02   -0.12104E-02 21497   0.182E-01    0.603E-01
RMM:   5    -0.666374577220E+03    0.19947E-02   -0.31019E-03 21141   0.825E-02    0.516E-01
RMM:   6    -0.666371555550E+03    0.30217E-02   -0.14394E-03 18692   0.598E-02    0.229E-01
RMM:   7    -0.666370692650E+03    0.86290E-03   -0.86711E-04 18221   0.429E-02    0.185E-01
RMM:   8    -0.666370168048E+03    0.52460E-03   -0.24142E-04 14688   0.264E-02    0.154E-01
RMM:   9    -0.666369832299E+03    0.33575E-03   -0.90408E-05 12197   0.160E-02    0.145E-01
RMM:  10    -0.666370311057E+03   -0.47876E-03   -0.38058E-05 11564   0.113E-02    0.138E-01
RMM:  11    -0.666371600226E+03   -0.12892E-02   -0.14267E-04 12570   0.189E-02    0.133E-01
RMM:  12    -0.666373704039E+03   -0.21038E-02   -0.29562E-04 13763   0.236E-02    0.110E-01
RMM:  13    -0.666375597515E+03   -0.18935E-02   -0.17943E-04 12543   0.202E-02    0.118E-01
RMM:  14    -0.666377943980E+03   -0.23465E-02   -0.25748E-04 13391   0.228E-02    0.113E-01
RMM:  15    -0.666383025761E+03   -0.50818E-02   -0.11058E-03 17804   0.444E-02    0.116E-01
RMM:  16    -0.666385265090E+03   -0.22393E-02   -0.29752E-04 13926   0.258E-02    0.123E-01
RMM:  17    -0.666383638085E+03    0.16270E-02   -0.11252E-04 12033   0.202E-02    0.124E-01
RMM:  18    -0.666382132027E+03    0.15061E-02   -0.11892E-04 11909   0.167E-02    0.126E-01
RMM:  19    -0.666383847759E+03   -0.17157E-02   -0.12027E-04 11718   0.195E-02    0.121E-01
RMM:  20    -0.666387953573E+03   -0.41058E-02   -0.13957E-03 18056   0.531E-02    0.120E-01
RMM:  21    -0.666390575860E+03   -0.26223E-02   -0.12459E-03 18393   0.519E-02    0.131E-01
RMM:  22    -0.666390501261E+03    0.74599E-04   -0.75062E-05 11817   0.170E-02
   8 F= -.66639050E+03 E0= -.66600843E+03  d E =-.181720E-01  mag=    64.5168
       N       E                     dE             d eps       ncg     rms          rms(c)
DAV:   1    -0.666389914060E+03    0.66180E-03   -0.93767E-02 24080   0.358E-01    0.236E-01
RMM:   2    -0.666391029888E+03   -0.11158E-02   -0.27632E-03 19920   0.871E-02    0.428E-01
RMM:   3    -0.666390774583E+03    0.25530E-03   -0.94972E-04 17077   0.533E-02    0.158E-01
RMM:   4    -0.666390686339E+03    0.88244E-04   -0.30022E-04 13737   0.296E-02    0.196E-01
RMM:   5    -0.666390355764E+03    0.33057E-03   -0.12521E-04 12241   0.193E-02    0.144E-01
RMM:   6    -0.666389894366E+03    0.46140E-03   -0.12167E-04 12073   0.188E-02    0.106E-01
RMM:   7    -0.666389490996E+03    0.40337E-03   -0.64470E-05 11499   0.132E-02    0.485E-02
RMM:   8    -0.666389321018E+03    0.16998E-03   -0.24128E-05 10846   0.900E-03    0.476E-02
RMM:   9    -0.666389228151E+03    0.92867E-04   -0.10420E-05  9725   0.600E-03
   9 F= -.66638923E+03 E0= -.66600666E+03  d E =-.168989E-01  mag=    64.5219
       N       E                     dE             d eps       ncg     rms          rms(c)
DAV:   1    -0.666388113377E+03    0.12076E-02   -0.15231E+00 23296   0.149E+00    0.733E-01
RMM:   2    -0.666394510150E+03   -0.63968E-02   -0.36071E-02 21761   0.334E-01    0.813E-01
RMM:   3    -0.666396097329E+03   -0.15872E-02   -0.96973E-03 21733   0.168E-01    0.691E-01
RMM:   4    -0.666395064254E+03    0.10331E-02   -0.39121E-03 20049   0.105E-01    0.346E-01
RMM:   5    -0.666394736813E+03    0.32744E-03   -0.11137E-03 19604   0.482E-02    0.252E-01
RMM:   6    -0.666394534074E+03    0.20274E-03   -0.49636E-04 16812   0.377E-02    0.187E-01
RMM:   7    -0.666394736142E+03   -0.20207E-03   -0.35456E-04 15178   0.293E-02    0.102E-01
RMM:   8    -0.666394970814E+03   -0.23467E-03   -0.10408E-04 12433   0.189E-02    0.658E-02
RMM:   9    -0.666395098001E+03   -0.12719E-03   -0.42914E-05 11567   0.126E-02    0.408E-02
RMM:  10    -0.666395253621E+03   -0.15562E-03   -0.18162E-05 10683   0.707E-03    0.386E-02
RMM:  11    -0.666395371390E+03   -0.11777E-03   -0.10041E-05 10124   0.574E-03    0.403E-02
RMM:  12    -0.666395404697E+03   -0.33307E-04   -0.42032E-06  7973   0.392E-03
  10 F= -.66639540E+03 E0= -.66601286E+03  d E =-.617655E-02  mag=    64.5265
       N       E                     dE             d eps       ncg     rms          rms(c)
DAV:   1    -0.666395046948E+03    0.32444E-03   -0.76735E-02 23760   0.335E-01    0.167E-01
RMM:   2    -0.666395808282E+03   -0.76133E-03   -0.17691E-03 20198   0.742E-02    0.153E-01
RMM:   3    -0.666396075089E+03   -0.26681E-03   -0.37037E-04 14962   0.331E-02    0.127E-01
RMM:   4    -0.666396112000E+03   -0.36911E-04   -0.17199E-04 12845   0.248E-02    0.965E-02
RMM:   5    -0.666396177477E+03   -0.65477E-04   -0.53058E-05 11467   0.120E-02    0.610E-02
RMM:   6    -0.666396133474E+03    0.44003E-04   -0.46217E-05 11362   0.113E-02    0.745E-02
RMM:   7    -0.666396048642E+03    0.84832E-04   -0.16761E-05 10286   0.717E-03    0.523E-02
RMM:   8    -0.666395861109E+03    0.18753E-03   -0.22937E-05 10389   0.810E-03    0.715E-02
RMM:   9    -0.666395856081E+03    0.50287E-05   -0.43555E-06  7190   0.392E-03
  11 F= -.66639586E+03 E0= -.66601286E+03  d E =-.662793E-02  mag=    64.5304
       N       E                     dE             d eps       ncg     rms          rms(c)
DAV:   1    -0.666407142439E+03   -0.11281E-01   -0.41105E-01 23056   0.796E-01    0.363E-01
RMM:   2    -0.666408391951E+03   -0.12495E-02   -0.10980E-02 21714   0.183E-01    0.444E-01
RMM:   3    -0.666408383797E+03    0.81542E-05   -0.28625E-03 20034   0.913E-02    0.373E-01
RMM:   4    -0.666407833733E+03    0.55006E-03   -0.99173E-04 17512   0.540E-02    0.163E-01
RMM:   5    -0.666407407066E+03    0.42667E-03   -0.34340E-04 15045   0.288E-02    0.174E-01
RMM:   6    -0.666406791349E+03    0.61572E-03   -0.19551E-04 13280   0.238E-02    0.890E-02
RMM:   7    -0.666406616753E+03    0.17460E-03   -0.10090E-04 12309   0.171E-02    0.820E-02
RMM:   8    -0.666406441908E+03    0.17484E-03   -0.42763E-05 11697   0.128E-02    0.673E-02
RMM:   9    -0.666406379622E+03    0.62285E-04   -0.12287E-05  9896   0.602E-03
  12 F= -.66640638E+03 E0= -.66602279E+03  d E =-.105235E-01  mag=    64.5347
       N       E                     dE             d eps       ncg     rms          rms(c)
DAV:   1    -0.666396664064E+03    0.97778E-02   -0.37001E+00 22880   0.238E+00    0.108E+00
RMM:   2    -0.666412551975E+03   -0.15888E-01   -0.98412E-02 21764   0.548E-01    0.124E+00
RMM:   3    -0.666415074965E+03   -0.25230E-02   -0.24358E-02 22519   0.261E-01    0.101E+00
RMM:   4    -0.666412822076E+03    0.22529E-02   -0.89234E-03 22020   0.160E-01    0.588E-01
RMM:   5    -0.666411981324E+03    0.84075E-03   -0.30735E-03 21697   0.824E-02    0.510E-01
RMM:   6    -0.666410439170E+03    0.15422E-02   -0.18670E-03 19649   0.704E-02    0.316E-01
RMM:   7    -0.666410494978E+03   -0.55809E-04   -0.83736E-04 18798   0.464E-02    0.180E-01
RMM:   8    -0.666410483314E+03    0.11664E-04   -0.29549E-04 15587   0.314E-02
  13 F= -.66641048E+03 E0= -.66602661E+03  d E =-.146272E-01  mag=    64.5398
       N       E                     dE             d eps       ncg     rms          rms(c)
DAV:   1    -0.666411525932E+03   -0.10310E-02   -0.78848E-01 23952   0.110E+00    0.498E-01
RMM:   2    -0.666415933522E+03   -0.44076E-02   -0.20433E-02 21762   0.249E-01    0.509E-01
RMM:   3    -0.666417488468E+03   -0.15549E-02   -0.42713E-03 21088   0.109E-01    0.412E-01
RMM:   4    -0.666417455577E+03    0.32891E-04   -0.18608E-03 18887   0.740E-02    0.329E-01
RMM:   5    -0.666417484976E+03   -0.29400E-04   -0.53793E-04 16996   0.359E-02    0.227E-01
RMM:   6    -0.666417211145E+03    0.27383E-03   -0.57119E-04 16573   0.384E-02    0.247E-01
RMM:   7    -0.666416701611E+03    0.50953E-03   -0.19837E-04 13659   0.221E-02    0.153E-01
RMM:   8    -0.666415914061E+03    0.78755E-03   -0.12066E-04 12463   0.198E-02    0.159E-01
RMM:   9    -0.666415498792E+03    0.41527E-03   -0.40895E-05 11367   0.103E-02    0.152E-01
RMM:  10    -0.666415734146E+03   -0.23535E-03   -0.11541E-05  9890   0.670E-03    0.154E-01
RMM:  11    -0.666416747550E+03   -0.10134E-02   -0.43264E-05 11255   0.115E-02    0.151E-01
RMM:  12    -0.666419434005E+03   -0.26865E-02   -0.33689E-04 13801   0.252E-02    0.127E-01
RMM:  13    -0.666424086532E+03   -0.46525E-02   -0.11176E-03 17689   0.451E-02    0.144E-01
RMM:  14    -0.666425885880E+03   -0.17993E-02   -0.24565E-04 13415   0.236E-02    0.148E-01
RMM:  15    -0.666425946195E+03   -0.60315E-04   -0.34740E-05 10839   0.109E-02
  14 F= -.66642595E+03 E0= -.66604302E+03  d E =-.300901E-01  mag=    64.5344
       N       E                     dE             d eps       ncg     rms          rms(c)
DAV:   1    -0.666426606368E+03   -0.72049E-03   -0.38903E-02 22688   0.245E-01    0.181E-01
RMM:   2    -0.666426585735E+03    0.20633E-04   -0.14393E-03 19034   0.648E-02    0.335E-01
RMM:   3    -0.666426243616E+03    0.34212E-03   -0.56551E-04 15656   0.415E-02    0.138E-01
RMM:   4    -0.666425854141E+03    0.38948E-03   -0.13573E-04 12375   0.203E-02    0.959E-02
RMM:   5    -0.666425471545E+03    0.38260E-03   -0.46605E-05 11219   0.120E-02    0.693E-02
RMM:   6    -0.666424672165E+03    0.79938E-03   -0.90106E-05 11592   0.146E-02    0.983E-02
RMM:   7    -0.666424236324E+03    0.43584E-03   -0.33184E-05 10561   0.100E-02    0.505E-02
RMM:   8    -0.666423820658E+03    0.41567E-03   -0.29972E-05 10945   0.918E-03    0.597E-02
RMM:   9    -0.666423728030E+03    0.92627E-04   -0.75959E-06  8296   0.475E-03
  15 F= -.66642373E+03 E0= -.66604029E+03  d E =-.278719E-01  mag=    64.5389
       N       E                     dE             d eps       ncg     rms          rms(c)
DAV:   1    -0.666429533544E+03   -0.57129E-02   -0.55415E-01 23504   0.951E-01    0.339E-01
RMM:   2    -0.666430883684E+03   -0.13501E-02   -0.14852E-02 21530   0.206E-01    0.358E-01
RMM:   3    -0.666430723340E+03    0.16034E-03   -0.31789E-03 20229   0.905E-02    0.308E-01
RMM:   4    -0.666430162031E+03    0.56131E-03   -0.97405E-04 17759   0.547E-02    0.184E-01
RMM:   5    -0.666429485792E+03    0.67624E-03   -0.40741E-04 15651   0.303E-02    0.158E-01
RMM:   6    -0.666428636089E+03    0.84970E-03   -0.21543E-04 13650   0.246E-02    0.119E-01
RMM:   7    -0.666428201543E+03    0.43455E-03   -0.13199E-04 12467   0.187E-02    0.923E-02
RMM:   8    -0.666427792945E+03    0.40860E-03   -0.49113E-05 11495   0.127E-02    0.785E-02
RMM:   9    -0.666427651046E+03    0.14190E-03   -0.17534E-05 10368   0.743E-03    0.756E-02
RMM:  10    -0.666427675826E+03   -0.24780E-04   -0.57149E-06  8098   0.442E-03
  16 F= -.66642768E+03 E0= -.66604372E+03  d E =-.394780E-02  mag=    64.5436
       N       E                     dE             d eps       ncg     rms          rms(c)
DAV:   1    -0.666427280594E+03    0.37045E-03   -0.97611E-02 23616   0.399E-01    0.156E-01
RMM:   2    -0.666427245820E+03    0.34774E-04   -0.25886E-03 19948   0.861E-02    0.162E-01
RMM:   3    -0.666427240396E+03    0.54236E-05   -0.57275E-04 16174   0.395E-02    0.187E-01
RMM:   4    -0.666427060825E+03    0.17957E-03   -0.14506E-04 12736   0.220E-02    0.970E-02
RMM:   5    -0.666426648987E+03    0.41184E-03   -0.82961E-05 11591   0.152E-02    0.129E-01
RMM:   6    -0.666426257211E+03    0.39178E-03   -0.34733E-05 10803   0.950E-03    0.115E-01
RMM:   7    -0.666425641018E+03    0.61619E-03   -0.51339E-05 11235   0.114E-02    0.134E-01
RMM:   8    -0.666425387395E+03    0.25362E-03   -0.15508E-05  9607   0.625E-03    0.127E-01
RMM:   9    -0.666425458147E+03   -0.70752E-04   -0.39184E-06  7112   0.406E-03
  17 F= -.66642546E+03 E0= -.66604064E+03  d E =-.173012E-02  mag=    64.5472
       N       E                     dE             d eps       ncg     rms          rms(c)
DAV:   1    -0.666426525322E+03   -0.11379E-02   -0.26114E-02 23440   0.208E-01    0.132E-01
RMM:   2    -0.666425825177E+03    0.70015E-03   -0.89264E-04 17277   0.502E-02    0.234E-01
RMM:   3    -0.666425316850E+03    0.50833E-03   -0.41040E-04 14281   0.344E-02    0.161E-01
RMM:   4    -0.666424744466E+03    0.57238E-03   -0.70185E-05 11394   0.127E-02    0.118E-01
RMM:   5    -0.666424663950E+03    0.80517E-04   -0.15443E-05  9665   0.724E-03    0.126E-01
RMM:   6    -0.666425535752E+03   -0.87180E-03   -0.32901E-05 10284   0.959E-03    0.118E-01
RMM:   7    -0.666426453750E+03   -0.91800E-03   -0.39619E-05 10717   0.914E-03    0.120E-01
RMM:   8    -0.666428401161E+03   -0.19474E-02   -0.16455E-04 12388   0.184E-02    0.136E-01
RMM:   9    -0.666430196279E+03   -0.17951E-02   -0.16312E-04 12455   0.174E-02    0.138E-01
RMM:  10    -0.666433511371E+03   -0.33151E-02   -0.51101E-04 15138   0.312E-02    0.153E-01
RMM:  11    -0.666436707877E+03   -0.31965E-02   -0.62581E-04 16104   0.345E-02    0.179E-01
RMM:  12    -0.666437082065E+03   -0.37419E-03   -0.52137E-05 11249   0.132E-02    0.182E-01
RMM:  13    -0.666436415684E+03    0.66638E-03   -0.28801E-05 10141   0.105E-02    0.174E-01
RMM:  14    -0.666435810197E+03    0.60549E-03   -0.22061E-05 10340   0.773E-03    0.173E-01
RMM:  15    -0.666435749160E+03    0.61037E-04   -0.27441E-06  6685   0.348E-03
  18 F= -.66643575E+03 E0= -.66605311E+03  d E =-.120211E-01  mag=    64.5394
       N       E                     dE             d eps       ncg     rms          rms(c)
DAV:   1    -0.666439564125E+03   -0.37539E-02   -0.66624E-02 23136   0.344E-01    0.200E-01
RMM:   2    -0.666439761107E+03   -0.19698E-03   -0.20695E-03 20090   0.780E-02    0.310E-01
RMM:   3    -0.666439505935E+03    0.25517E-03   -0.78061E-04 16481   0.479E-02    0.211E-01
RMM:   4    -0.666439189927E+03    0.31601E-03   -0.15258E-04 12478   0.221E-02    0.791E-02
RMM:   5    -0.666438723819E+03    0.46611E-03   -0.12519E-04 11957   0.179E-02    0.153E-01
RMM:   6    -0.666438062163E+03    0.66166E-03   -0.70169E-05 11380   0.145E-02    0.772E-02
RMM:   7    -0.666437494779E+03    0.56738E-03   -0.59637E-05 11475   0.123E-02    0.894E-02
RMM:   8    -0.666436993016E+03    0.50176E-03   -0.31832E-05 10777   0.956E-03    0.636E-02
RMM:   9    -0.666436741206E+03    0.25181E-03   -0.15486E-05  9876   0.671E-03    0.642E-02
RMM:  10    -0.666436895163E+03   -0.15396E-03   -0.42117E-06  7288   0.440E-03    0.634E-02
RMM:  11    -0.666437382068E+03   -0.48691E-03   -0.11744E-05  9154   0.621E-03    0.650E-02
RMM:  12    -0.666439434186E+03   -0.20521E-02   -0.26821E-04 13030   0.238E-02    0.651E-02
RMM:  13    -0.666442239237E+03   -0.28051E-02   -0.81089E-04 16374   0.389E-02    0.773E-02
RMM:  14    -0.666443166794E+03   -0.92756E-03   -0.14995E-04 12264   0.195E-02    0.786E-02
RMM:  15    -0.666442767156E+03    0.39964E-03   -0.33215E-05 10511   0.119E-02    0.754E-02
RMM:  16    -0.666442289143E+03    0.47801E-03   -0.23203E-05 10212   0.816E-03    0.744E-02
RMM:  17    -0.666441625584E+03    0.66356E-03   -0.44549E-05 10883   0.102E-02    0.736E-02
RMM:  18    -0.666440806010E+03    0.81957E-03   -0.71507E-05 11213   0.121E-02    0.748E-02
RMM:  19    -0.666441652689E+03   -0.84668E-03   -0.60105E-05 10623   0.148E-02    0.706E-02
RMM:  20    -0.666443954883E+03   -0.23022E-02   -0.96405E-04 16450   0.452E-02    0.745E-02
RMM:  21    -0.666445398609E+03   -0.14437E-02   -0.87513E-04 16899   0.435E-02    0.961E-02
RMM:  22    -0.666445697590E+03   -0.29898E-03   -0.53949E-05 11237   0.135E-02    0.980E-02
RMM:  23    -0.666445721728E+03   -0.24138E-04   -0.14490E-05 10072   0.734E-03
  19 F= -.66644572E+03 E0= -.66606469E+03  d E =-.997257E-02  mag=    64.5199
       N       E                     dE             d eps       ncg     rms          rms(c)
DAV:   1    -0.666445783989E+03   -0.86399E-04   -0.27736E-04 19232   0.261E-02    0.968E-02
RMM:   2    -0.666445857960E+03   -0.73971E-04   -0.26336E-04 12987   0.233E-02    0.225E-01
RMM:   3    -0.666445720780E+03    0.13718E-03   -0.77073E-05 11026   0.167E-02    0.946E-02
RMM:   4    -0.666445577051E+03    0.14373E-03   -0.23061E-05  9798   0.755E-03    0.122E-01
RMM:   5    -0.666445308585E+03    0.26847E-03   -0.27433E-05 10579   0.946E-03    0.894E-02
RMM:   6    -0.666444978887E+03    0.32970E-03   -0.31191E-05 10711   0.105E-02    0.656E-02
RMM:   7    -0.666444793492E+03    0.18539E-03   -0.19895E-05 10360   0.782E-03    0.402E-02
RMM:   8    -0.666444690794E+03    0.10270E-03   -0.10230E-05  9416   0.579E-03    0.265E-02
RMM:   9    -0.666444638113E+03    0.52681E-04   -0.63725E-06  8398   0.465E-03
  20 F= -.66644464E+03 E0= -.66606357E+03  d E =-.888895E-02  mag=    64.5235
       N       E                     dE             d eps       ncg     rms          rms(c)
DAV:   1    -0.666444796672E+03   -0.10588E-03   -0.10796E-03 20624   0.452E-02    0.268E-02
RMM:   2    -0.666444786821E+03    0.98515E-05   -0.36642E-05 11643   0.109E-02    0.336E-02
RMM:   3    -0.666444773263E+03    0.13558E-04   -0.71288E-06  9973   0.573E-03    0.251E-02
RMM:   4    -0.666444755506E+03    0.17757E-04   -0.23284E-06  7150   0.354E-03    0.244E-02
RMM:   5    -0.666444735015E+03    0.20490E-04   -0.10779E-06  4726   0.283E-03    0.239E-02
RMM:   6    -0.666444714902E+03    0.20113E-04   -0.12109E-06  5246   0.288E-03    0.240E-02
RMM:   7    -0.666444710155E+03    0.47470E-05   -0.23130E-07  3250   0.238E-03    0.240E-02
RMM:   8    -0.666444732152E+03   -0.21997E-04   -0.24871E-07  3477   0.247E-03
  21 F= -.66644473E+03 E0= -.66606352E+03  d E =-.898299E-02  mag=    64.5251
       N       E                     dE             d eps       ncg     rms          rms(c)
DAV:   1    -0.666445005128E+03   -0.29497E-03   -0.42753E-03 22752   0.878E-02    0.373E-02
RMM:   2    -0.666444991865E+03    0.13263E-04   -0.11885E-04 12371   0.188E-02    0.371E-02
RMM:   3    -0.666444969632E+03    0.22233E-04   -0.22510E-05 10690   0.953E-03    0.377E-02
RMM:   4    -0.666444945615E+03    0.24017E-04   -0.63906E-06  9264   0.528E-03    0.267E-02
RMM:   5    -0.666444888627E+03    0.56988E-04   -0.67180E-06  8173   0.473E-03    0.317E-02
RMM:   6    -0.666444825037E+03    0.63589E-04   -0.57190E-06  8434   0.445E-03    0.268E-02
RMM:   7    -0.666444793504E+03    0.31534E-04   -0.21706E-06  6083   0.324E-03    0.262E-02
RMM:   8    -0.666444740084E+03    0.53419E-04   -0.33865E-06  7355   0.372E-03
  22 F= -.66644474E+03 E0= -.66606331E+03  d E =-.899092E-02  mag=    64.5273
       N       E                     dE             d eps       ncg     rms          rms(c)
DAV:   1    -0.666444684210E+03    0.10929E-03   -0.17034E-02 23136   0.174E-01    0.583E-02
RMM:   2    -0.666444711222E+03   -0.27012E-04   -0.44749E-04 15150   0.358E-02    0.558E-02
RMM:   3    -0.666444697240E+03    0.13982E-04   -0.80907E-05 11845   0.163E-02    0.533E-02
RMM:   4    -0.666444663490E+03    0.33750E-04   -0.19865E-05 10484   0.925E-03    0.349E-02
RMM:   5    -0.666444589356E+03    0.74134E-04   -0.16019E-05  9958   0.703E-03    0.437E-02
RMM:   6    -0.666444518222E+03    0.71133E-04   -0.82455E-06  8954   0.530E-03    0.322E-02
RMM:   7    -0.666444415317E+03    0.10291E-03   -0.12382E-05  9825   0.605E-03    0.393E-02
RMM:   8    -0.666444359320E+03    0.55997E-04   -0.43011E-06  7298   0.384E-03
  23 F= -.66644436E+03 E0= -.66606274E+03  d E =-.861016E-02  mag=    64.5304
       N       E                     dE             d eps       ncg     rms          rms(c)
DAV:   1    -0.666444440594E+03   -0.25277E-04   -0.50197E-03 22736   0.945E-02    0.447E-02
RMM:   2    -0.666444346797E+03    0.93797E-04   -0.14601E-04 12484   0.209E-02    0.755E-02
RMM:   3    -0.666444303032E+03    0.43764E-04   -0.48665E-05 11091   0.131E-02    0.486E-02
RMM:   4    -0.666444235901E+03    0.67132E-04   -0.78710E-06  8956   0.531E-03    0.314E-02
RMM:   5    -0.666444149468E+03    0.86433E-04   -0.48401E-06  7766   0.422E-03    0.358E-02
RMM:   6    -0.666444033921E+03    0.11555E-03   -0.55304E-06  8084   0.431E-03    0.360E-02
RMM:   7    -0.666443981153E+03    0.52768E-04   -0.21544E-06  5935   0.317E-03    0.357E-02
RMM:   8    -0.666443965190E+03    0.15963E-04   -0.49909E-07  3875   0.257E-03
  24 F= -.66644397E+03 E0= -.66606212E+03  d E =-.821603E-02  mag=    64.5322
       N       E                     dE             d eps       ncg     rms          rms(c)
DAV:   1    -0.666447574160E+03   -0.35930E-02   -0.74392E-02 22960   0.350E-01    0.139E-01
RMM:   2    -0.666447812154E+03   -0.23799E-03   -0.16778E-03 20203   0.688E-02    0.102E-01
RMM:   3    -0.666447826737E+03   -0.14583E-04   -0.32574E-04 14453   0.306E-02    0.110E-01
RMM:   4    -0.666447786747E+03    0.39989E-04   -0.93523E-05 12211   0.189E-02    0.471E-02
RMM:   5    -0.666447697510E+03    0.89238E-04   -0.42336E-05 11387   0.111E-02    0.648E-02
RMM:   6    -0.666447556873E+03    0.14064E-03   -0.23231E-05 10671   0.833E-03    0.429E-02
RMM:   7    -0.666447434964E+03    0.12191E-03   -0.21100E-05 10556   0.839E-03    0.513E-02
RMM:   8    -0.666447353422E+03    0.81541E-04   -0.89808E-06  9368   0.569E-03
  25 F= -.66644735E+03 E0= -.66606523E+03  d E =-.338823E-02  mag=    64.5358
       N       E                     dE             d eps       ncg     rms          rms(c)
DAV:   1    -0.666446271979E+03    0.11630E-02   -0.66959E-01 22848   0.105E+00    0.408E-01
RMM:   2    -0.666448866276E+03   -0.25943E-02   -0.14986E-02 21656   0.206E-01    0.294E-01
RMM:   3    -0.666449461195E+03   -0.59492E-03   -0.27764E-03 21675   0.866E-02    0.221E-01
RMM:   4    -0.666449451098E+03    0.10097E-04   -0.79592E-04 18353   0.498E-02    0.173E-01
RMM:   5    -0.666449402266E+03    0.48832E-04   -0.36501E-04 15402   0.301E-02    0.138E-01
RMM:   6    -0.666449340687E+03    0.61580E-04   -0.17198E-04 13279   0.211E-02    0.776E-02
RMM:   7    -0.666449317720E+03    0.22967E-04   -0.12236E-04 12593   0.194E-02    0.883E-02
RMM:   8    -0.666449259596E+03    0.58124E-04   -0.37773E-05 11850   0.120E-02
  26 F= -.66644926E+03 E0= -.66606660E+03  d E =-.529441E-02  mag=    64.5397
       N       E                     dE             d eps       ncg     rms          rms(c)
DAV:   1    -0.666450101905E+03   -0.78419E-03   -0.10170E-01 23616   0.411E-01    0.162E-01
RMM:   2    -0.666450296307E+03   -0.19440E-03   -0.22918E-03 20723   0.811E-02    0.167E-01
RMM:   3    -0.666450364072E+03   -0.67765E-04   -0.52899E-04 16068   0.402E-02    0.172E-01
RMM:   4    -0.666450236697E+03    0.12737E-03   -0.17822E-04 12912   0.253E-02    0.659E-02
RMM:   5    -0.666450093091E+03    0.14361E-03   -0.58962E-05 11602   0.133E-02    0.545E-02
RMM:   6    -0.666449930065E+03    0.16303E-03   -0.30689E-05 11058   0.919E-03    0.541E-02
RMM:   7    -0.666449806185E+03    0.12388E-03   -0.21171E-05 10402   0.821E-03    0.453E-02
RMM:   8    -0.666449674835E+03    0.13135E-03   -0.91363E-06  9537   0.547E-03    0.392E-02
RMM:   9    -0.666449608969E+03    0.65866E-04   -0.36181E-06  7167   0.386E-03
  27 F= -.66644961E+03 E0= -.66606671E+03  d E =-.564378E-02  mag=    64.5433
       N       E                     dE             d eps       ncg     rms          rms(c)
DAV:   1    -0.666452071507E+03   -0.23967E-02   -0.47632E-02 23408   0.270E-01    0.109E-01
RMM:   2    -0.666452056629E+03    0.14878E-04   -0.10055E-03 17618   0.503E-02    0.968E-02
RMM:   3    -0.666452072870E+03   -0.16241E-04   -0.25191E-04 13516   0.275E-02    0.138E-01
RMM:   4    -0.666451970543E+03    0.10233E-03   -0.73837E-05 11801   0.163E-02    0.433E-02
RMM:   5    -0.666451813735E+03    0.15681E-03   -0.25430E-05 10607   0.847E-03    0.558E-02
RMM:   6    -0.666451665663E+03    0.14807E-03   -0.11181E-05  9549   0.590E-03    0.478E-02
RMM:   7    -0.666451483229E+03    0.18243E-03   -0.10857E-05  9659   0.579E-03    0.523E-02
RMM:   8    -0.666451357215E+03    0.12601E-03   -0.52270E-06  7826   0.398E-03    0.499E-02
RMM:   9    -0.666451380817E+03   -0.23602E-04   -0.11149E-06  5090   0.298E-03
  28 F= -.66645138E+03 E0= -.66606812E+03  d E =-.177185E-02  mag=    64.5459
       N       E                     dE             d eps       ncg     rms          rms(c)
DAV:   1    -0.666452762657E+03   -0.14054E-02   -0.98679E-02 22960   0.389E-01    0.154E-01
RMM:   2    -0.666452851713E+03   -0.89056E-04   -0.20485E-03 19985   0.718E-02    0.118E-01
RMM:   3    -0.666452878794E+03   -0.27081E-04   -0.42180E-04 14953   0.336E-02    0.124E-01
RMM:   4    -0.666452759829E+03    0.11896E-03   -0.14543E-04 12705   0.223E-02    0.737E-02
RMM:   5    -0.666452545779E+03    0.21405E-03   -0.45382E-05 11474   0.116E-02    0.537E-02
RMM:   6    -0.666452264945E+03    0.28083E-03   -0.29137E-05 10985   0.946E-03    0.529E-02
RMM:   7    -0.666451987519E+03    0.27743E-03   -0.23472E-05 10669   0.821E-03    0.509E-02
RMM:   8    -0.666451823268E+03    0.16425E-03   -0.94644E-06  9125   0.536E-03    0.473E-02
RMM:   9    -0.666451763435E+03    0.59833E-04   -0.36143E-06  6910   0.375E-03
  29 F= -.66645176E+03 E0= -.66606801E+03  d E =-.215447E-02  mag=    64.5484
       N       E                     dE             d eps       ncg     rms          rms(c)
DAV:   1    -0.666452542417E+03   -0.71915E-03   -0.57967E-03 22544   0.101E-01    0.714E-02
RMM:   2    -0.666452362441E+03    0.17998E-03   -0.22104E-04 13422   0.241E-02    0.143E-01
RMM:   3    -0.666452223918E+03    0.13852E-03   -0.12397E-04 11943   0.206E-02    0.767E-02
RMM:   4    -0.666452093986E+03    0.12993E-03   -0.16933E-05  9660   0.650E-03    0.536E-02
RMM:   5    -0.666451952942E+03    0.14104E-03   -0.68102E-06  8555   0.499E-03    0.603E-02
RMM:   6    -0.666452109241E+03   -0.15630E-03   -0.27648E-06  6552   0.371E-03    0.590E-02
RMM:   7    -0.666452396675E+03   -0.28743E-03   -0.64651E-06  8024   0.461E-03    0.555E-02
RMM:   8    -0.666453013377E+03   -0.61670E-03   -0.29597E-05 10460   0.847E-03    0.562E-02
RMM:   9    -0.666453498015E+03   -0.48464E-03   -0.23817E-05  9990   0.688E-03    0.554E-02
RMM:  10    -0.666454260374E+03   -0.76236E-03   -0.46441E-05 10946   0.102E-02    0.577E-02
RMM:  11    -0.666455741535E+03   -0.14812E-02   -0.23040E-04 12956   0.206E-02    0.596E-02
RMM:  12    -0.666457445329E+03   -0.17038E-02   -0.48441E-04 14842   0.299E-02    0.708E-02
RMM:  13    -0.666457304487E+03    0.14084E-03   -0.33213E-05 10962   0.121E-02    0.702E-02
RMM:  14    -0.666456743572E+03    0.56092E-03   -0.35644E-05 10570   0.104E-02    0.675E-02
RMM:  15    -0.666455620795E+03    0.11228E-02   -0.13699E-04 12041   0.174E-02    0.658E-02
RMM:  16    -0.666454686110E+03    0.93469E-03   -0.11057E-04 11480   0.148E-02    0.629E-02
RMM:  17    -0.666454609967E+03    0.76143E-04   -0.15709E-05  9225   0.659E-03
  30 F= -.66645461E+03 E0= -.66607168E+03  d E =-.500100E-02  mag=    64.5451
       N       E                     dE             d eps       ncg     rms          rms(c)
DAV:   1    -0.666455851280E+03   -0.11652E-02   -0.14072E-02 23216   0.162E-01    0.798E-02
RMM:   2    -0.666455884411E+03   -0.33131E-04   -0.37868E-04 15284   0.346E-02    0.932E-02
RMM:   3    -0.666455809057E+03    0.75355E-04   -0.12288E-04 12522   0.218E-02    0.894E-02
RMM:   4    -0.666455662826E+03    0.14623E-03   -0.31951E-05 10874   0.112E-02    0.480E-02
RMM:   5    -0.666455359403E+03    0.30342E-03   -0.35196E-05 10488   0.953E-03    0.785E-02
RMM:   6    -0.666455090924E+03    0.26848E-03   -0.16362E-05  9937   0.697E-03    0.538E-02
RMM:   7    -0.666454601961E+03    0.48896E-03   -0.27812E-05 10691   0.842E-03    0.631E-02
RMM:   8    -0.666454276906E+03    0.32505E-03   -0.15393E-05 10056   0.637E-03    0.516E-02
RMM:   9    -0.666454156985E+03    0.11992E-03   -0.57135E-06  7692   0.438E-03    0.545E-02
RMM:  10    -0.666454634810E+03   -0.47783E-03   -0.13714E-05  9080   0.694E-03    0.525E-02
RMM:  11    -0.666456240403E+03   -0.16056E-02   -0.24402E-04 12802   0.228E-02    0.477E-02
RMM:  12    -0.666457743657E+03   -0.15033E-02   -0.34616E-04 13955   0.254E-02    0.490E-02
RMM:  13    -0.666458979455E+03   -0.12358E-02   -0.35963E-04 13895   0.263E-02    0.515E-02
RMM:  14    -0.666459054758E+03   -0.75303E-04   -0.30309E-05 10738   0.107E-02
  31 F= -.66645905E+03 E0= -.66607706E+03  d E =-.444479E-02  mag=    64.5354
       N       E                     dE             d eps       ncg     rms          rms(c)
DAV:   1    -0.666459750207E+03   -0.77075E-03   -0.37917E-02 22960   0.266E-01    0.960E-02
RMM:   2    -0.666459794893E+03   -0.44686E-04   -0.94542E-04 19097   0.548E-02    0.101E-01
RMM:   3    -0.666459780015E+03    0.14878E-04   -0.20609E-04 13285   0.259E-02    0.858E-02
RMM:   4    -0.666459713701E+03    0.66313E-04   -0.75720E-05 11839   0.178E-02    0.625E-02
RMM:   5    -0.666459565988E+03    0.14771E-03   -0.26166E-05 10828   0.892E-03    0.416E-02
RMM:   6    -0.666459398370E+03    0.16762E-03   -0.17807E-05 10324   0.800E-03    0.355E-02
RMM:   7    -0.666459231263E+03    0.16711E-03   -0.17387E-05 10449   0.756E-03    0.351E-02
RMM:   8    -0.666459140010E+03    0.91254E-04   -0.61697E-06  8585   0.470E-03
  32 F= -.66645914E+03 E0= -.66607681E+03  d E =-.453004E-02  mag=    64.5388
       N       E                     dE             d eps       ncg     rms          rms(c)
DAV:   1    -0.666459832674E+03   -0.60141E-03   -0.12246E-02 23136   0.139E-01    0.672E-02
RMM:   2    -0.666459848802E+03   -0.16128E-04   -0.28205E-04 13939   0.289E-02    0.737E-02
RMM:   3    -0.666459850371E+03   -0.15688E-05   -0.76360E-05 12133   0.161E-02    0.748E-02
RMM:   4    -0.666459824468E+03    0.25903E-04   -0.26697E-05 10457   0.977E-03    0.320E-02
RMM:   5    -0.666459764020E+03    0.60448E-04   -0.11900E-05  9369   0.611E-03    0.339E-02
RMM:   6    -0.666459707815E+03    0.56205E-04   -0.61362E-06  8989   0.455E-03    0.293E-02
RMM:   7    -0.666459652135E+03    0.55680E-04   -0.57936E-06  8448   0.468E-03    0.340E-02
RMM:   8    -0.666459609094E+03    0.43042E-04   -0.21409E-06  5942   0.321E-03
  33 F= -.66645961E+03 E0= -.66607708E+03  d E =-.469084E-03  mag=    64.5417
       N       E                     dE             d eps       ncg     rms          rms(c)
DAV:   1    -0.666459986314E+03   -0.33418E-03   -0.50844E-02 23504   0.282E-01    0.132E-01
RMM:   2    -0.666460189809E+03   -0.20349E-03   -0.11299E-03 19453   0.578E-02    0.136E-01
RMM:   3    -0.666460261770E+03   -0.71961E-04   -0.29229E-04 13807   0.298E-02    0.140E-01
RMM:   4    -0.666460223477E+03    0.38292E-04   -0.11606E-04 12335   0.203E-02    0.603E-02
RMM:   5    -0.666460173438E+03    0.50039E-04   -0.39537E-05 11414   0.106E-02    0.512E-02
RMM:   6    -0.666460111323E+03    0.62115E-04   -0.19787E-05 10708   0.767E-03    0.409E-02
RMM:   7    -0.666460048104E+03    0.63219E-04   -0.18064E-05 10271   0.771E-03    0.453E-02
RMM:   8    -0.666459979135E+03    0.68969E-04   -0.69533E-06  8968   0.493E-03
  34 F= -.66645998E+03 E0= -.66607715E+03  d E =-.839125E-03  mag=    64.5450
       N       E                     dE             d eps       ncg     rms          rms(c)
DAV:   1    -0.666460480668E+03   -0.43256E-03   -0.96115E-03 23648   0.118E-01    0.707E-02
RMM:   2    -0.666460462553E+03    0.18114E-04   -0.22537E-04 13503   0.254E-02    0.995E-02
RMM:   3    -0.666460444105E+03    0.18448E-04   -0.99610E-05 12098   0.180E-02    0.882E-02
RMM:   4    -0.666460394444E+03    0.49661E-04   -0.21875E-05 10130   0.893E-03    0.330E-02
RMM:   5    -0.666460278971E+03    0.11547E-03   -0.12414E-05  9404   0.612E-03    0.389E-02
RMM:   6    -0.666460170954E+03    0.10802E-03   -0.81408E-06  9118   0.464E-03    0.400E-02
RMM:   7    -0.666460127457E+03    0.43497E-04   -0.23229E-06  6730   0.342E-03    0.405E-02
RMM:   8    -0.666460092058E+03    0.35399E-04   -0.85457E-07  4455   0.279E-03
  35 F= -.66646009E+03 E0= -.66607695E+03  d E =-.112923E-03  mag=    64.5470
       N       E                     dE             d eps       ncg     rms          rms(c)
DAV:   1    -0.666460660769E+03   -0.53331E-03   -0.86464E-02 22896   0.353E-01    0.185E-01
RMM:   2    -0.666461037152E+03   -0.37638E-03   -0.18015E-03 20356   0.719E-02    0.178E-01
RMM:   3    -0.666461238153E+03   -0.20100E-03   -0.50709E-04 15718   0.396E-02    0.201E-01
RMM:   4    -0.666461150349E+03    0.87804E-04   -0.20327E-04 12988   0.264E-02    0.774E-02
RMM:   5    -0.666461077583E+03    0.72766E-04   -0.69822E-05 11735   0.141E-02    0.642E-02
RMM:   6    -0.666460982190E+03    0.95393E-04   -0.38610E-05 11268   0.108E-02    0.520E-02
RMM:   7    -0.666460875113E+03    0.10708E-03   -0.31425E-05 10640   0.997E-03    0.556E-02
RMM:   8    -0.666460759437E+03    0.11568E-03   -0.10684E-05  9223   0.569E-03    0.457E-02
RMM:   9    -0.666460715631E+03    0.43806E-04   -0.37508E-06  7212   0.384E-03
  36 F= -.66646072E+03 E0= -.66607723E+03  d E =-.736496E-03  mag=    64.5496
       N       E                     dE             d eps       ncg     rms          rms(c)
DAV:   1    -0.666461450149E+03   -0.69071E-03   -0.81216E-03 22944   0.122E-01    0.656E-02
RMM:   2    -0.666461364858E+03    0.85291E-04   -0.23363E-04 13615   0.271E-02    0.105E-01
RMM:   3    -0.666461290745E+03    0.74114E-04   -0.10070E-04 12385   0.190E-02    0.795E-02
RMM:   4    -0.666461189718E+03    0.10103E-03   -0.17442E-05 10366   0.771E-03    0.424E-02
RMM:   5    -0.666461055250E+03    0.13447E-03   -0.98532E-06  9561   0.565E-03    0.494E-02
RMM:   6    -0.666460933975E+03    0.12127E-03   -0.55961E-06  8204   0.418E-03    0.491E-02
RMM:   7    -0.666461024131E+03   -0.90155E-04   -0.16782E-06  5840   0.333E-03    0.499E-02
RMM:   8    -0.666461105436E+03   -0.81305E-04   -0.10024E-06  5006   0.291E-03
  37 F= -.66646111E+03 E0= -.66607752E+03  d E =-.389805E-03  mag=    64.5503
       N       E                     dE             d eps       ncg     rms          rms(c)
DAV:   1    -0.666461574265E+03   -0.55013E-03   -0.18071E-02 23008   0.179E-01    0.860E-02
RMM:   2    -0.666461490412E+03    0.83853E-04   -0.43995E-04 15875   0.375E-02    0.931E-02
RMM:   3    -0.666461426207E+03    0.64205E-04   -0.14212E-04 12634   0.227E-02    0.121E-01
RMM:   4    -0.666461292986E+03    0.13322E-03   -0.35746E-05 11671   0.125E-02    0.524E-02
RMM:   5    -0.666461119131E+03    0.17386E-03   -0.22709E-05 10835   0.807E-03    0.655E-02
RMM:   6    -0.666460907976E+03    0.21116E-03   -0.12475E-05  9945   0.609E-03    0.553E-02
RMM:   7    -0.666460735857E+03    0.17212E-03   -0.92529E-06  9519   0.533E-03    0.601E-02
RMM:   8    -0.666460709794E+03    0.26062E-04   -0.22338E-06  6085   0.321E-03
  38 F= -.66646071E+03 E0= -.66607683E+03  d E =0.583613E-05  mag=    64.5528
       N       E                     dE             d eps       ncg     rms          rms(c)
DAV:   1    -0.666461206815E+03   -0.47096E-03   -0.84875E-03 23680   0.123E-01    0.761E-02
RMM:   2    -0.666461028279E+03    0.17854E-03   -0.24295E-04 13656   0.274E-02    0.124E-01
RMM:   3    -0.666460899843E+03    0.12844E-03   -0.12724E-04 12535   0.216E-02    0.964E-02
RMM:   4    -0.666460730399E+03    0.16944E-03   -0.19313E-05 10852   0.803E-03    0.630E-02
RMM:   5    -0.666460603320E+03    0.12708E-03   -0.83530E-06  9461   0.538E-03    0.684E-02
RMM:   6    -0.666460544161E+03    0.59159E-04   -0.26218E-06  6281   0.333E-03    0.662E-02
RMM:   7    -0.666460662791E+03   -0.11863E-03   -0.16157E-06  5923   0.324E-03    0.663E-02
RMM:   8    -0.666460845065E+03   -0.18227E-03   -0.33548E-06  7357   0.381E-03    0.622E-02
RMM:   9    -0.666461455627E+03   -0.61056E-03   -0.32782E-05 10353   0.910E-03    0.569E-02
RMM:  10    -0.666462891039E+03   -0.14354E-02   -0.23610E-04 12920   0.215E-02    0.661E-02
RMM:  11    -0.666464066631E+03   -0.11756E-02   -0.24377E-04 13059   0.213E-02    0.697E-02
RMM:  12    -0.666464833412E+03   -0.76678E-03   -0.15775E-04 12206   0.175E-02    0.716E-02
RMM:  13    -0.666464505690E+03    0.32772E-03   -0.34966E-05 10690   0.126E-02    0.731E-02
RMM:  14    -0.666464468919E+03    0.36770E-04   -0.40766E-06  7327   0.374E-03
  39 F= -.66646447E+03 E0= -.66608164E+03  d E =-.375912E-02  mag=    64.5458
       N       E                     dE             d eps       ncg     rms          rms(c)
DAV:   1    -0.666464865750E+03   -0.36006E-03   -0.76416E-02 23584   0.368E-01    0.161E-01
RMM:   2    -0.666465126005E+03   -0.26026E-03   -0.18349E-03 21166   0.754E-02    0.216E-01
RMM:   3    -0.666465138770E+03   -0.12765E-04   -0.55496E-04 16293   0.425E-02    0.177E-01
RMM:   4    -0.666465004850E+03    0.13392E-03   -0.15302E-04 12793   0.245E-02    0.646E-02
RMM:   5    -0.666464907663E+03    0.97187E-04   -0.66403E-05 11934   0.131E-02    0.666E-02
RMM:   6    -0.666464754208E+03    0.15345E-03   -0.47543E-05 11830   0.123E-02    0.574E-02
RMM:   7    -0.666464654806E+03    0.99402E-04   -0.21283E-05 11315   0.841E-03    0.386E-02
RMM:   8    -0.666464576733E+03    0.78073E-04   -0.13120E-05 10372   0.723E-03
  40 F= -.66646458E+03 E0= -.66608155E+03  d E =-.386694E-02  mag=    64.5491
       N       E                     dE             d eps       ncg     rms          rms(c)
DAV:   1    -0.666465172140E+03   -0.51733E-03   -0.16539E-02 23392   0.167E-01    0.663E-02
RMM:   2    -0.666465167663E+03    0.44773E-05   -0.37766E-04 14698   0.315E-02    0.818E-02
RMM:   3    -0.666465135721E+03    0.31941E-04   -0.10897E-04 12414   0.193E-02    0.868E-02
RMM:   4    -0.666465076513E+03    0.59208E-04   -0.27507E-05 10926   0.101E-02    0.326E-02
RMM:   5    -0.666464978884E+03    0.97629E-04   -0.13885E-05 10025   0.651E-03    0.431E-02
RMM:   6    -0.666464914754E+03    0.64130E-04   -0.59159E-06  8486   0.451E-03    0.367E-02
RMM:   7    -0.666464826958E+03    0.87796E-04   -0.65109E-06  8548   0.479E-03    0.434E-02
RMM:   8    -0.666464801586E+03    0.25372E-04   -0.17707E-06  5441   0.300E-03
  41 F= -.66646480E+03 E0= -.66608142E+03  d E =-.224853E-03  mag=    64.5511
       N       E                     dE             d eps       ncg     rms          rms(c)
DAV:   1    -0.666466381742E+03   -0.15548E-02   -0.14890E-01 22944   0.501E-01    0.176E-01
RMM:   2    -0.666466804893E+03   -0.42315E-03   -0.31882E-03 20864   0.909E-02    0.155E-01
RMM:   3    -0.666466874599E+03   -0.69706E-04   -0.71846E-04 17266   0.460E-02    0.196E-01
RMM:   4    -0.666466762255E+03    0.11234E-03   -0.22574E-04 13533   0.276E-02    0.669E-02
RMM:   5    -0.666466680586E+03    0.81669E-04   -0.85167E-05 12090   0.152E-02    0.711E-02
RMM:   6    -0.666466560168E+03    0.12042E-03   -0.36874E-05 11602   0.104E-02    0.496E-02
RMM:   7    -0.666466458109E+03    0.10206E-03   -0.34783E-05 11487   0.105E-02    0.678E-02
RMM:   8    -0.666466342867E+03    0.11524E-03   -0.16395E-05 10666   0.736E-03    0.484E-02
RMM:   9    -0.666466302459E+03    0.40409E-04   -0.60846E-06  8064   0.453E-03
  42 F= -.66646630E+03 E0= -.66608248E+03  d E =-.172573E-02  mag=    64.5542
       N       E                     dE             d eps       ncg     rms          rms(c)
DAV:   1    -0.666469275082E+03   -0.29322E-02   -0.59476E-01 22304   0.100E+00    0.346E-01
RMM:   2    -0.666471116209E+03   -0.18411E-02   -0.12505E-02 21664   0.180E-01    0.274E-01
RMM:   3    -0.666471637340E+03   -0.52113E-03   -0.27086E-03 21415   0.869E-02    0.354E-01
RMM:   4    -0.666471351753E+03    0.28559E-03   -0.83425E-04 18137   0.501E-02    0.122E-01
RMM:   5    -0.666471323605E+03    0.28148E-04   -0.32067E-04 15251   0.256E-02    0.115E-01
RMM:   6    -0.666471214046E+03    0.10956E-03   -0.13222E-04 12899   0.182E-02    0.856E-02
RMM:   7    -0.666471120298E+03    0.93748E-04   -0.10426E-04 12492   0.183E-02    0.901E-02
RMM:   8    -0.666471002566E+03    0.11773E-03   -0.46605E-05 11938   0.128E-02    0.580E-02
RMM:   9    -0.666470930352E+03    0.72214E-04   -0.19288E-05 10954   0.735E-03
  43 F= -.66647093E+03 E0= -.66608651E+03  d E =-.635362E-02  mag=    64.5579
       N       E                     dE             d eps       ncg     rms          rms(c)
DAV:   1    -0.666443241867E+03    0.27761E-01   -0.23805E+00 22304   0.200E+00    0.686E-01
RMM:   2    -0.666450698301E+03   -0.74564E-02   -0.50316E-02 21752   0.360E-01    0.511E-01
RMM:   3    -0.666452911117E+03   -0.22128E-02   -0.10230E-02 23467   0.167E-01    0.613E-01
RMM:   4    -0.666452216156E+03    0.69496E-03   -0.31550E-03 22233   0.954E-02    0.289E-01
RMM:   5    -0.666452267193E+03   -0.51037E-04   -0.12078E-03 21565   0.490E-02    0.207E-01
RMM:   6    -0.666452202689E+03    0.64503E-04   -0.54244E-04 18928   0.339E-02    0.143E-01
RMM:   7    -0.666452242182E+03   -0.39492E-04   -0.37583E-04 16870   0.315E-02    0.162E-01
RMM:   8    -0.666452124487E+03    0.11769E-03   -0.14135E-04 13560   0.214E-02    0.724E-02
RMM:   9    -0.666452081982E+03    0.42506E-04   -0.70604E-05 12402   0.134E-02
  44 F= -.66645208E+03 E0= -.66606686E+03  d E =0.124948E-01  mag=    64.5619
       N       E                     dE             d eps       ncg     rms          rms(c)
DAV:   1    -0.666466843211E+03   -0.14719E-01   -0.14575E+00 22688   0.157E+00    0.532E-01
RMM:   2    -0.666470669500E+03   -0.38263E-02   -0.30633E-02 21728   0.280E-01    0.386E-01
RMM:   3    -0.666471978980E+03   -0.13095E-02   -0.57080E-03 23225   0.123E-01    0.362E-01
RMM:   4    -0.666471385008E+03    0.59397E-03   -0.15215E-03 21248   0.698E-02    0.266E-01
RMM:   5    -0.666470679535E+03    0.70547E-03   -0.65723E-04 18505   0.428E-02    0.173E-01
RMM:   6    -0.666470135078E+03    0.54446E-03   -0.31123E-04 15404   0.293E-02    0.129E-01
RMM:   7    -0.666469442985E+03    0.69209E-03   -0.33259E-04 14703   0.291E-02    0.157E-01
RMM:   8    -0.666468923273E+03    0.51971E-03   -0.71914E-05 12304   0.141E-02    0.959E-02
RMM:   9    -0.666468548264E+03    0.37501E-03   -0.46445E-05 11762   0.114E-02    0.117E-01
RMM:  10    -0.666469235738E+03   -0.68747E-03   -0.37819E-05 11346   0.108E-02    0.112E-01
RMM:  11    -0.666470862712E+03   -0.16270E-02   -0.20965E-04 13011   0.206E-02    0.858E-02
RMM:  12    -0.666472946978E+03   -0.20843E-02   -0.46998E-04 14877   0.289E-02    0.767E-02
RMM:  13    -0.666473832805E+03   -0.88583E-03   -0.13639E-04 12215   0.180E-02    0.719E-02
RMM:  14    -0.666474588396E+03   -0.75559E-03   -0.13695E-04 12297   0.164E-02    0.704E-02
RMM:  15    -0.666475545976E+03   -0.95758E-03   -0.30986E-04 13717   0.239E-02    0.728E-02
RMM:  16    -0.666476156961E+03   -0.61098E-03   -0.21068E-04 12678   0.202E-02    0.735E-02
RMM:  17    -0.666476245767E+03   -0.88806E-04   -0.31154E-05 10564   0.103E-02
  45 F= -.66647625E+03 E0= -.66609296E+03  d E =-.116690E-01  mag=    64.5543
       N       E                     dE             d eps       ncg     rms          rms(c)
DAV:   1    -0.666476306217E+03   -0.14926E-03   -0.35306E-04 20352   0.246E-02    0.752E-02
RMM:   2    -0.666476283362E+03    0.22855E-04   -0.69353E-05 11759   0.127E-02    0.106E-01
RMM:   3    -0.666476235276E+03    0.48086E-04   -0.61975E-05 10705   0.141E-02    0.726E-02
RMM:   4    -0.666476154522E+03    0.80755E-04   -0.15973E-05  9284   0.700E-03    0.371E-02
RMM:   5    -0.666475935390E+03    0.21913E-03   -0.25425E-05 10918   0.754E-03    0.406E-02
RMM:   6    -0.666475811090E+03    0.12430E-03   -0.16840E-05 10068   0.782E-03    0.284E-02
RMM:   7    -0.666475741429E+03    0.69662E-04   -0.81562E-06  9479   0.546E-03    0.218E-02
RMM:   8    -0.666475703857E+03    0.37571E-04   -0.38126E-06  7807   0.390E-03
  46 F= -.66647570E+03 E0= -.66609222E+03  d E =0.541909E-03  mag=    64.5572
       N       E                     dE             d eps       ncg     rms          rms(c)
DAV:   1    -0.666475781778E+03   -0.40349E-04   -0.30370E-03 22208   0.710E-02    0.307E-02
RMM:   2    -0.666475753501E+03    0.28277E-04   -0.67392E-05 12081   0.131E-02    0.256E-02
RMM:   3    -0.666475726441E+03    0.27060E-04   -0.13416E-05 10609   0.726E-03    0.345E-02
RMM:   4    -0.666475710904E+03    0.15536E-04   -0.30157E-06  7570   0.386E-03    0.223E-02
RMM:   5    -0.666475676117E+03    0.34787E-04   -0.19741E-06  5826   0.324E-03    0.249E-02
RMM:   6    -0.666475678445E+03   -0.23274E-05   -0.16333E-07  3090   0.244E-03    0.248E-02
RMM:   7    -0.666475673653E+03    0.47917E-05   -0.75986E-08  2752   0.239E-03    0.246E-02
RMM:   8    -0.666475684539E+03   -0.10886E-04   -0.39988E-08  2633   0.236E-03
  47 F= -.66647568E+03 E0= -.66609207E+03  d E =0.561228E-03  mag=    64.5585
       N       E                     dE             d eps       ncg     rms          rms(c)
DAV:   1    -0.666475574088E+03    0.99565E-04   -0.12149E-02 23728   0.142E-01    0.560E-02
RMM:   2    -0.666475563908E+03    0.10180E-04   -0.26065E-04 13616   0.255E-02    0.555E-02
RMM:   3    -0.666475548171E+03    0.15737E-04   -0.72477E-05 11944   0.162E-02    0.775E-02
RMM:   4    -0.666475507341E+03    0.40830E-04   -0.17490E-05 10338   0.842E-03    0.288E-02
RMM:   5    -0.666475431354E+03    0.75987E-04   -0.10938E-05  9355   0.575E-03    0.389E-02
RMM:   6    -0.666475391666E+03    0.39688E-04   -0.47069E-06  8151   0.423E-03    0.339E-02
RMM:   7    -0.666475340719E+03    0.50947E-04   -0.39377E-06  7314   0.398E-03    0.360E-02
RMM:   8    -0.666475327075E+03    0.13644E-04   -0.91285E-07  4455   0.273E-03
  48 F= -.66647533E+03 E0= -.66609144E+03  d E =0.918692E-03  mag=    64.5599
       N       E                     dE             d eps       ncg     rms          rms(c)
DAV:   1    -0.666475501752E+03   -0.16103E-03   -0.40759E-03 22752   0.846E-02    0.419E-02
RMM:   2    -0.666475462442E+03    0.39310E-04   -0.10942E-04 12454   0.170E-02    0.769E-02
RMM:   3    -0.666475424025E+03    0.38417E-04   -0.42328E-05 11343   0.127E-02    0.455E-02
RMM:   4    -0.666475379698E+03    0.44327E-04   -0.58765E-06  8605   0.459E-03    0.306E-02
RMM:   5    -0.666475341307E+03    0.38391E-04   -0.29142E-06  6719   0.360E-03    0.350E-02
RMM:   6    -0.666475367608E+03   -0.26302E-04   -0.33450E-07  3487   0.252E-03    0.350E-02
RMM:   7    -0.666475376372E+03   -0.87633E-05   -0.48697E-08  2558   0.232E-03    0.349E-02
RMM:   8    -0.666475488191E+03   -0.11182E-03   -0.46582E-06  7073   0.438E-03    0.341E-02
RMM:   9    -0.666475643330E+03   -0.15514E-03   -0.10776E-05  9176   0.539E-03    0.326E-02
RMM:  10    -0.666475928530E+03   -0.28520E-03   -0.36633E-05 10761   0.916E-03    0.324E-02
RMM:  11    -0.666476345366E+03   -0.41684E-03   -0.11978E-04 11965   0.151E-02    0.318E-02
RMM:  12    -0.666476869263E+03   -0.52390E-03   -0.34667E-04 13886   0.248E-02    0.344E-02
RMM:  13    -0.666477014495E+03   -0.14523E-03   -0.29482E-05 10573   0.103E-02    0.363E-02
RMM:  14    -0.666477041198E+03   -0.26704E-04   -0.10668E-05  9260   0.564E-03
  49 F= -.66647704E+03 E0= -.66609436E+03  d E =-.795432E-03  mag=    64.5508
       N       E                     dE             d eps       ncg     rms          rms(c)
DAV:   1    -0.666477205134E+03   -0.19064E-03   -0.24919E-05 13888   0.789E-03    0.369E-02
RMM:   2    -0.666477199425E+03    0.57085E-05   -0.15192E-05  9581   0.561E-03    0.329E-02
RMM:   3    -0.666477190671E+03    0.87535E-05   -0.83299E-06  9290   0.562E-03    0.291E-02
RMM:   4    -0.666477181389E+03    0.92825E-05   -0.52877E-06  8917   0.484E-03    0.242E-02
RMM:   5    -0.666477162757E+03    0.18632E-04   -0.56842E-06  8685   0.436E-03    0.188E-02
RMM:   6    -0.666477150101E+03    0.12657E-04   -0.35121E-06  7807   0.369E-03    0.172E-02
RMM:   7    -0.666477145031E+03    0.50697E-05   -0.16039E-06  5910   0.309E-03    0.107E-02
RMM:   8    -0.666477148070E+03   -0.30384E-05   -0.65113E-07  4287   0.257E-03
  50 F= -.66647715E+03 E0= -.66609438E+03  d E =-.106871E-03  mag=    64.5529
       N       E                     dE             d eps       ncg     rms          rms(c)
DAV:   1    -0.666477643767E+03   -0.49874E-03   -0.19796E-04 18544   0.191E-02    0.113E-02
RMM:   2    -0.666477650069E+03   -0.63018E-05   -0.80831E-06  9048   0.502E-03    0.159E-02
RMM:   3    -0.666477651736E+03   -0.16671E-05   -0.98756E-07  5066   0.284E-03    0.107E-02
RMM:   4    -0.666477653830E+03   -0.20945E-05   -0.14115E-07  2768   0.222E-03    0.105E-02
RMM:   5    -0.666477654683E+03   -0.85263E-06   -0.60950E-08  2485   0.219E-03    0.105E-02
RMM:   6    -0.666477654310E+03    0.37253E-06   -0.15739E-09  2156   0.211E-03    0.104E-02
RMM:   7    -0.666477654183E+03    0.12759E-06   -0.24808E-09  2079   0.207E-03    0.104E-02
RMM:   8    -0.666477654268E+03   -0.85682E-07   -0.53463E-10  1932   0.205E-03
  51 F= -.66647765E+03 E0= -.66609485E+03  d E =-.613070E-03  mag=    64.5534
       N       E                     dE             d eps       ncg     rms          rms(c)
DAV:   1    -0.666478594863E+03   -0.94068E-03   -0.78549E-04 21344   0.371E-02    0.141E-02
RMM:   2    -0.666478591596E+03    0.32666E-05   -0.23856E-05 10426   0.754E-03    0.182E-02
RMM:   3    -0.666478593519E+03   -0.19227E-05   -0.29080E-06  7176   0.373E-03    0.125E-02
RMM:   4    -0.666478592875E+03    0.64401E-06   -0.35373E-07  3259   0.243E-03    0.119E-02
RMM:   5    -0.666478591133E+03    0.17416E-05   -0.65412E-07  3919   0.260E-03    0.121E-02
RMM:   6    -0.666478588963E+03    0.21704E-05   -0.31806E-07  3336   0.240E-03    0.119E-02
RMM:   7    -0.666478587711E+03    0.12522E-05   -0.15949E-07  2781   0.229E-03    0.120E-02
RMM:   8    -0.666478588562E+03   -0.85076E-06   -0.99934E-10  2119   0.214E-03
  52 F= -.66647859E+03 E0= -.66609573E+03  d E =-.154736E-02  mag=    64.5542
       N       E                     dE             d eps       ncg     rms          rms(c)
DAV:   1    -0.666480301453E+03   -0.17137E-02   -0.31095E-03 21488   0.733E-02    0.220E-02
RMM:   2    -0.666480287737E+03    0.13716E-04   -0.91608E-05 11724   0.148E-02    0.312E-02
RMM:   3    -0.666480288969E+03   -0.12321E-05   -0.13327E-05 10029   0.704E-03    0.176E-02
RMM:   4    -0.666480285043E+03    0.39260E-05   -0.32964E-06  7176   0.372E-03    0.179E-02
RMM:   5    -0.666480275980E+03    0.90632E-05   -0.20641E-06  5968   0.337E-03    0.149E-02
RMM:   6    -0.666480265521E+03    0.10459E-04   -0.89867E-07  4864   0.278E-03    0.145E-02
RMM:   7    -0.666480253051E+03    0.12470E-04   -0.12982E-06  4948   0.289E-03    0.151E-02
RMM:   8    -0.666480248697E+03    0.43544E-05   -0.30477E-07  3266   0.239E-03
  53 F= -.66648025E+03 E0= -.66609732E+03  d E =-.320750E-02  mag=    64.5555
       N       E                     dE             d eps       ncg     rms          rms(c)
DAV:   1    -0.666482895207E+03   -0.26422E-02   -0.12450E-02 22976   0.146E-01    0.391E-02
RMM:   2    -0.666482877228E+03    0.17979E-04   -0.35456E-04 13908   0.294E-02    0.570E-02
RMM:   3    -0.666482877661E+03   -0.43353E-06   -0.56386E-05 11188   0.134E-02    0.302E-02
RMM:   4    -0.666482868482E+03    0.91796E-05   -0.14473E-05  9892   0.714E-03    0.301E-02
RMM:   5    -0.666482844958E+03    0.23524E-04   -0.69436E-06  8680   0.523E-03    0.201E-02
RMM:   6    -0.666482817542E+03    0.27416E-04   -0.37415E-06  7417   0.376E-03    0.225E-02
RMM:   7    -0.666482779010E+03    0.38532E-04   -0.42233E-06  7667   0.415E-03    0.194E-02
RMM:   8    -0.666482763527E+03    0.15483E-04   -0.91152E-07  4437   0.272E-03
  54 F= -.66648276E+03 E0= -.66609976E+03  d E =-.572233E-02  mag=    64.5572
       N       E                     dE             d eps       ncg     rms          rms(c)
DAV:   1    -0.666484700460E+03   -0.19215E-02   -0.49868E-02 22896   0.293E-01    0.758E-02
RMM:   2    -0.666484711608E+03   -0.11147E-04   -0.14004E-03 18583   0.586E-02    0.106E-01
RMM:   3    -0.666484717917E+03   -0.63088E-05   -0.23217E-04 13053   0.239E-02    0.503E-02
RMM:   4    -0.666484699762E+03    0.18155E-04   -0.54840E-05 11263   0.145E-02    0.610E-02
RMM:   5    -0.666484647438E+03    0.52324E-04   -0.22552E-05 10194   0.887E-03    0.308E-02
RMM:   6    -0.666484579836E+03    0.67602E-04   -0.13884E-05  9827   0.637E-03    0.389E-02
RMM:   7    -0.666484489226E+03    0.90610E-04   -0.13859E-05  9903   0.679E-03    0.285E-02
RMM:   8    -0.666484448065E+03    0.41161E-04   -0.48919E-06  8360   0.412E-03
  55 F= -.66648445E+03 E0= -.66610139E+03  d E =-.740687E-02  mag=    64.5593
       N       E                     dE             d eps       ncg     rms          rms(c)
DAV:   1    -0.666484813001E+03   -0.32377E-03   -0.10658E-03 21408   0.452E-02    0.255E-02
RMM:   2    -0.666484742817E+03    0.70183E-04   -0.35371E-05 11685   0.106E-02    0.393E-02
RMM:   3    -0.666484713207E+03    0.29610E-04   -0.11419E-05  9872   0.667E-03    0.276E-02
RMM:   4    -0.666484667008E+03    0.46200E-04   -0.18378E-06  5389   0.312E-03    0.230E-02
RMM:   5    -0.666484652333E+03    0.14675E-04   -0.42894E-07  3641   0.258E-03    0.236E-02
RMM:   6    -0.666484673052E+03   -0.20719E-04   -0.69478E-08  2742   0.239E-03    0.233E-02
RMM:   7    -0.666484731193E+03   -0.58142E-04   -0.99506E-07  4652   0.293E-03    0.231E-02
RMM:   8    -0.666484789756E+03   -0.58563E-04   -0.13149E-06  4927   0.292E-03
  56 F= -.66648479E+03 E0= -.66610172E+03  d E =-.341691E-03  mag=    64.5588
       N       E                     dE             d eps       ncg     rms          rms(c)
DAV:   1    -0.666485713127E+03   -0.98193E-03   -0.96092E-03 22800   0.135E-01    0.435E-02
RMM:   2    -0.666485633665E+03    0.79462E-04   -0.25456E-04 13634   0.282E-02    0.479E-02
RMM:   3    -0.666485590161E+03    0.43503E-04   -0.50161E-05 11642   0.138E-02    0.441E-02
RMM:   4    -0.666485527519E+03    0.62643E-04   -0.14020E-05 10080   0.760E-03    0.268E-02
RMM:   5    -0.666485410137E+03    0.11738E-03   -0.10445E-05  9466   0.585E-03    0.303E-02
RMM:   6    -0.666485339136E+03    0.71001E-04   -0.42646E-06  8290   0.414E-03    0.252E-02
RMM:   7    -0.666485260481E+03    0.78655E-04   -0.41196E-06  7444   0.399E-03    0.277E-02
RMM:   8    -0.666485241009E+03    0.19473E-04   -0.74582E-07  4305   0.262E-03
  57 F= -.66648524E+03 E0= -.66610207E+03  d E =-.792944E-03  mag=    64.5605
       N       E                     dE             d eps       ncg     rms          rms(c)
DAV:   1    -0.666485477649E+03   -0.21717E-03   -0.38287E-02 23392   0.268E-01    0.774E-02
RMM:   2    -0.666485421570E+03    0.56079E-04   -0.98877E-04 18814   0.553E-02    0.758E-02
RMM:   3    -0.666485348254E+03    0.73316E-04   -0.18807E-04 13254   0.236E-02    0.692E-02
RMM:   4    -0.666485256852E+03    0.91402E-04   -0.59700E-05 11602   0.157E-02    0.479E-02
RMM:   5    -0.666485092894E+03    0.16396E-03   -0.24823E-05 10619   0.858E-03    0.372E-02
RMM:   6    -0.666484945213E+03    0.14768E-03   -0.11892E-05  9861   0.636E-03    0.336E-02
RMM:   7    -0.666484809394E+03    0.13582E-03   -0.12037E-05  9616   0.617E-03    0.369E-02
RMM:   8    -0.666484736630E+03    0.72765E-04   -0.38480E-06  7057   0.375E-03
  58 F= -.66648474E+03 E0= -.66610136E+03  d E =-.288565E-03  mag=    64.5630
       N       E                     dE             d eps       ncg     rms          rms(c)
DAV:   1    -0.666484792752E+03    0.16642E-04   -0.31820E-03 22448   0.772E-02    0.386E-02
RMM:   2    -0.666484663294E+03    0.12946E-03   -0.89364E-05 12155   0.167E-02    0.464E-02
RMM:   3    -0.666484607287E+03    0.56007E-04   -0.25590E-05 10722   0.994E-03    0.508E-02
RMM:   4    -0.666484559232E+03    0.48054E-04   -0.41168E-06  8095   0.409E-03    0.406E-02
RMM:   5    -0.666484536935E+03    0.22298E-04   -0.84674E-07  4436   0.278E-03    0.418E-02
RMM:   6    -0.666484536642E+03    0.29290E-06   -0.71874E-08  2808   0.239E-03    0.416E-02
RMM:   7    -0.666484561590E+03   -0.24948E-04   -0.35527E-06  6293   0.378E-03    0.381E-02
RMM:   8    -0.666484567199E+03   -0.56094E-05   -0.80059E-07  4192   0.263E-03
  59 F= -.66648457E+03 E0= -.66610096E+03  d E =-.119134E-03  mag=    64.5639
       N       E                     dE             d eps       ncg     rms          rms(c)
DAV:   1    -0.666485128148E+03   -0.56656E-03   -0.54718E-03 23344   0.967E-02    0.504E-02
RMM:   2    -0.666484959306E+03    0.16884E-03   -0.17551E-04 12841   0.227E-02    0.680E-02
RMM:   3    -0.666484890505E+03    0.68801E-04   -0.40650E-05 11274   0.128E-02    0.451E-02
RMM:   4    -0.666484760145E+03    0.13036E-03   -0.15653E-05  9837   0.742E-03    0.455E-02
RMM:   5    -0.666484755588E+03    0.45574E-05   -0.26322E-06  6075   0.329E-03    0.429E-02
RMM:   6    -0.666484728691E+03    0.26897E-04   -0.11844E-06  5154   0.304E-03    0.475E-02
RMM:   7    -0.666484721653E+03    0.70380E-05   -0.87510E-08  2842   0.236E-03    0.474E-02
RMM:   8    -0.666484726058E+03   -0.44056E-05   -0.20042E-08  2580   0.233E-03
  60 F= -.66648473E+03 E0= -.66610108E+03  d E =-.158859E-03  mag=    64.5647
       N       E                     dE             d eps       ncg     rms          rms(c)
DAV:   1    -0.666485750604E+03   -0.10290E-02   -0.49431E-02 22704   0.290E-01    0.108E-01
RMM:   2    -0.666485601976E+03    0.14863E-03   -0.13443E-03 18957   0.625E-02    0.121E-01
RMM:   3    -0.666485498519E+03    0.10346E-03   -0.26668E-04 13928   0.274E-02    0.950E-02
RMM:   4    -0.666485336064E+03    0.16245E-03   -0.94794E-05 11891   0.184E-02    0.765E-02
RMM:   5    -0.666484983816E+03    0.35225E-03   -0.55759E-05 11384   0.123E-02    0.676E-02
RMM:   6    -0.666484687948E+03    0.29587E-03   -0.25703E-05 10540   0.893E-03    0.500E-02
RMM:   7    -0.666484441365E+03    0.24658E-03   -0.27741E-05 10432   0.887E-03    0.643E-02
RMM:   8    -0.666484288780E+03    0.15259E-03   -0.86944E-06  8559   0.506E-03    0.541E-02
RMM:   9    -0.666484309915E+03   -0.21135E-04   -0.21013E-06  6156   0.330E-03
  61 F= -.66648431E+03 E0= -.66610045E+03  d E =0.257284E-03  mag=    64.5677
       N       E                     dE             d eps       ncg     rms          rms(c)
DAV:   1    -0.666484386593E+03   -0.97814E-04   -0.92431E-03 22912   0.125E-01    0.678E-02
RMM:   2    -0.666484033694E+03    0.35290E-03   -0.28754E-04 14043   0.285E-02    0.104E-01
RMM:   3    -0.666483889088E+03    0.14461E-03   -0.93997E-05 12038   0.177E-02    0.780E-02
RMM:   4    -0.666483697701E+03    0.19139E-03   -0.18359E-05 10108   0.753E-03    0.545E-02
RMM:   5    -0.666483479469E+03    0.21823E-03   -0.10578E-05  9121   0.575E-03    0.629E-02
RMM:   6    -0.666483501220E+03   -0.21751E-04   -0.21889E-06  6023   0.330E-03    0.607E-02
RMM:   7    -0.666483505685E+03   -0.44648E-05   -0.41433E-07  3750   0.258E-03    0.613E-02
RMM:   8    -0.666483667285E+03   -0.16160E-03   -0.35928E-06  7626   0.386E-03    0.587E-02
RMM:   9    -0.666483722141E+03   -0.54855E-04   -0.45090E-07  3596   0.250E-03
  62 F= -.66648372E+03 E0= -.66609966E+03  d E =0.845058E-03  mag=    64.5688
       N       E                     dE             d eps       ncg     rms          rms(c)
DAV:   1    -0.666484246671E+03   -0.57939E-03   -0.17742E-02 23424   0.169E-01    0.861E-02
RMM:   2    -0.666483774494E+03    0.47218E-03   -0.44857E-04 15061   0.347E-02    0.893E-02
RMM:   3    -0.666483497761E+03    0.27673E-03   -0.11634E-04 12321   0.188E-02    0.102E-01
RMM:   4    -0.666483228195E+03    0.26957E-03   -0.31930E-05 10781   0.107E-02    0.604E-02
RMM:   5    -0.666482554636E+03    0.67356E-03   -0.46228E-05 10720   0.105E-02    0.836E-02
RMM:   6    -0.666482335433E+03    0.21920E-03   -0.12232E-05  8902   0.563E-03    0.742E-02
RMM:   7    -0.666482132689E+03    0.20274E-03   -0.82089E-06  8509   0.516E-03    0.834E-02
RMM:   8    -0.666482658208E+03   -0.52552E-03   -0.15990E-05  9569   0.750E-03    0.775E-02
RMM:   9    -0.666484200510E+03   -0.15423E-02   -0.17616E-04 12067   0.196E-02    0.663E-02
RMM:  10    -0.666486285322E+03   -0.20848E-02   -0.44480E-04 14603   0.287E-02    0.639E-02
RMM:  11    -0.666487417594E+03   -0.11323E-02   -0.19726E-04 12455   0.206E-02    0.546E-02
RMM:  12    -0.666487798124E+03   -0.38053E-03   -0.52776E-05 10678   0.113E-02    0.508E-02
[...]
RMM:   5    -0.666489696573E+03    0.11717E-03   -0.75357E-05 11859   0.142E-02    0.512E-02
RMM:   6    -0.666489568080E+03    0.12849E-03   -0.43967E-05 11395   0.115E-02    0.532E-02
RMM:   7    -0.666489463475E+03    0.10461E-03   -0.22570E-05 10818   0.826E-03    0.303E-02
RMM:   8    -0.666489356828E+03    0.10665E-03   -0.16430E-05 10308   0.715E-03    0.391E-02
RMM:   9    -0.666489303042E+03    0.53786E-04   -0.54865E-06  8414   0.429E-03
  87 F= -.66648930E+03 E0= -.66610714E+03  d E =0.877162E-03  mag=    64.5728
       N       E                     dE             d eps       ncg     rms          rms(c)
DAV:   1    -0.666489262786E+03    0.94043E-04   -0.36246E-03 23840   0.659E-02    0.441E-02
RMM:   2    -0.666489186549E+03    0.76237E-04   -0.10653E-04 12627   0.162E-02    0.803E-02
RMM:   3    -0.666489136647E+03    0.49902E-04   -0.42922E-05 11439   0.123E-02    0.474E-02
RMM:   4    -0.666489069138E+03    0.67509E-04   -0.73890E-06  8873   0.504E-03    0.297E-02
RMM:   5    -0.666488984243E+03    0.84895E-04   -0.43758E-06  7979   0.408E-03    0.338E-02
RMM:   6    -0.666488893671E+03    0.90572E-04   -0.25834E-06  6771   0.342E-03    0.324E-02
RMM:   7    -0.666488850796E+03    0.42876E-04   -0.96472E-07  4670   0.276E-03    0.333E-02
RMM:   8    -0.666488878550E+03   -0.27754E-04   -0.94798E-08  2995   0.238E-03
  88 F= -.66648888E+03 E0= -.66610650E+03  d E =0.130165E-02  mag=    64.5741
       N       E                     dE             d eps       ncg     rms          rms(c)
DAV:   1    -0.666489108778E+03   -0.25798E-03   -0.28510E-03 23776   0.539E-02    0.410E-02
RMM:   2    -0.666488976916E+03    0.13186E-03   -0.86624E-05 12435   0.136E-02    0.634E-02
RMM:   3    -0.666488923591E+03    0.53326E-04   -0.37459E-05 11056   0.114E-02    0.511E-02
RMM:   4    -0.666488858242E+03    0.65349E-04   -0.66312E-06  8305   0.457E-03    0.339E-02
RMM:   5    -0.666488747619E+03    0.11062E-03   -0.42394E-06  7811   0.401E-03    0.392E-02
RMM:   6    -0.666488692908E+03    0.54711E-04   -0.10964E-06  4630   0.278E-03    0.383E-02
RMM:   7    -0.666488781255E+03   -0.88347E-04   -0.11311E-06  4990   0.299E-03    0.373E-02
RMM:   8    -0.666488972416E+03   -0.19116E-03   -0.58750E-06  7844   0.462E-03    0.330E-02
RMM:   9    -0.666489335538E+03   -0.36312E-03   -0.19084E-05  9663   0.684E-03    0.308E-02
RMM:  10    -0.666489657852E+03   -0.32231E-03   -0.17973E-05  9344   0.595E-03    0.323E-02
RMM:  11    -0.666490034015E+03   -0.37616E-03   -0.23880E-05 10224   0.721E-03    0.331E-02
RMM:  12    -0.666490693538E+03   -0.65952E-03   -0.89750E-05 11601   0.133E-02    0.349E-02
RMM:  13    -0.666490954363E+03   -0.26083E-03   -0.27713E-05  9934   0.729E-03    0.363E-02
RMM:  14    -0.666490829768E+03    0.12460E-03   -0.60434E-06  7905   0.509E-03    0.356E-02
RMM:  15    -0.666490967577E+03   -0.13781E-03   -0.47005E-06  6552   0.389E-03    0.356E-02
RMM:  16    -0.666491463456E+03   -0.49588E-03   -0.75430E-05 11382   0.136E-02    0.366E-02
RMM:  17    -0.666491850652E+03   -0.38720E-03   -0.77181E-05 11273   0.117E-02    0.376E-02
RMM:  18    -0.666491840622E+03    0.10030E-04   -0.90857E-06  9119   0.603E-03
  89 F= -.66649184E+03 E0= -.66611064E+03  d E =-.296207E-02  mag=    64.5626
       N       E                     dE             d eps       ncg     rms          rms(c)
DAV:   1    -0.666492122408E+03   -0.27176E-03   -0.25482E-02 23648   0.160E-01    0.855E-02
RMM:   2    -0.666492053985E+03    0.68423E-04   -0.68011E-04 15590   0.367E-02    0.101E-01
RMM:   3    -0.666492025448E+03    0.28537E-04   -0.17441E-04 13103   0.233E-02    0.703E-02
RMM:   4    -0.666491952849E+03    0.72599E-04   -0.66245E-05 11636   0.158E-02    0.605E-02
RMM:   5    -0.666491874379E+03    0.78470E-04   -0.27481E-05 10751   0.914E-03    0.367E-02
RMM:   6    -0.666491793889E+03    0.80490E-04   -0.17678E-05 10473   0.777E-03    0.380E-02
RMM:   7    -0.666491738393E+03    0.55496E-04   -0.91600E-06  9786   0.567E-03    0.219E-02
RMM:   8    -0.666491702165E+03    0.36228E-04   -0.52538E-06  8765   0.467E-03
  90 F= -.66649170E+03 E0= -.66611051E+03  d E =-.282362E-02  mag=    64.5648
       N       E                     dE             d eps       ncg     rms          rms(c)
DAV:   1    -0.666491374510E+03    0.36388E-03   -0.10188E-01 23072   0.319E-01    0.157E-01
RMM:   2    -0.666491530558E+03   -0.15605E-03   -0.26986E-03 20618   0.727E-02    0.194E-01
RMM:   3    -0.666491524707E+03    0.58515E-05   -0.63521E-04 17090   0.403E-02    0.126E-01
RMM:   4    -0.666491488311E+03    0.36396E-04   -0.24312E-04 13970   0.270E-02    0.902E-02
RMM:   5    -0.666491441275E+03    0.47036E-04   -0.84569E-05 11903   0.151E-02    0.510E-02
RMM:   6    -0.666491406449E+03    0.34825E-04   -0.42645E-05 11435   0.113E-02    0.496E-02
RMM:   7    -0.666491377779E+03    0.28670E-04   -0.25148E-05 11018   0.880E-03    0.264E-02
RMM:   8    -0.666491348493E+03    0.29286E-04   -0.15434E-05 10634   0.691E-03
  91 F= -.66649135E+03 E0= -.66611009E+03  d E =-.246994E-02  mag=    64.5670
       N       E                     dE             d eps       ncg     rms          rms(c)
DAV:   1    -0.666491434906E+03   -0.57127E-04   -0.30411E-02 23520   0.174E-01    0.883E-02
RMM:   2    -0.666491513054E+03   -0.78149E-04   -0.78862E-04 16277   0.401E-02    0.125E-01
RMM:   3    -0.666491488252E+03    0.24802E-04   -0.19636E-04 13195   0.244E-02    0.788E-02
RMM:   4    -0.666491470804E+03    0.17449E-04   -0.70229E-05 11677   0.153E-02    0.506E-02
RMM:   5    -0.666491450150E+03    0.20653E-04   -0.24360E-05 10712   0.858E-03    0.323E-02
RMM:   6    -0.666491419295E+03    0.30855E-04   -0.11795E-05 10071   0.629E-03    0.274E-02
RMM:   7    -0.666491380502E+03    0.38793E-04   -0.99570E-06  9480   0.584E-03    0.264E-02
RMM:   8    -0.666491350072E+03    0.30430E-04   -0.36133E-06  7301   0.393E-03
  92 F= -.66649135E+03 E0= -.66610988E+03  d E =-.247152E-02  mag=    64.5692
       N       E                     dE             d eps       ncg     rms          rms(c)
DAV:   1    -0.666491550398E+03   -0.16990E-03   -0.14105E-03 22288   0.530E-02    0.229E-02
RMM:   2    -0.666491526873E+03    0.23524E-04   -0.39488E-05 11665   0.113E-02    0.370E-02
RMM:   3    -0.666491512706E+03    0.14167E-04   -0.12209E-05 10233   0.707E-03    0.258E-02
RMM:   4    -0.666491492099E+03    0.20607E-04   -0.12983E-06  4920   0.295E-03    0.180E-02
RMM:   5    -0.666491462626E+03    0.29473E-04   -0.12611E-06  4815   0.296E-03    0.201E-02
RMM:   6    -0.666491437627E+03    0.24999E-04   -0.10207E-06  4521   0.281E-03    0.199E-02
RMM:   7    -0.666491413650E+03    0.23976E-04   -0.10957E-06  4576   0.279E-03    0.199E-02
RMM:   8    -0.666491401097E+03    0.12553E-04   -0.46080E-07  3366   0.247E-03
  93 F= -.66649140E+03 E0= -.66610984E+03  d E =-.510248E-04  mag=    64.5707
       N       E                     dE             d eps       ncg     rms          rms(c)
DAV:   1    -0.666491625645E+03   -0.21200E-03   -0.79704E-03 23072   0.124E-01    0.341E-02
RMM:   2    -0.666491630783E+03   -0.51376E-05   -0.19681E-04 12993   0.245E-02    0.482E-02
RMM:   3    -0.666491622897E+03    0.78855E-05   -0.46293E-05 11545   0.140E-02    0.411E-02
RMM:   4    -0.666491610166E+03    0.12731E-04   -0.93123E-06  9820   0.590E-03    0.195E-02
RMM:   5    -0.666491594216E+03    0.15950E-04   -0.40747E-06  8039   0.415E-03    0.256E-02
RMM:   6    -0.666491575436E+03    0.18780E-04   -0.21456E-06  6671   0.330E-03    0.217E-02
RMM:   7    -0.666491547868E+03    0.27568E-04   -0.29551E-06  6890   0.360E-03    0.227E-02
RMM:   8    -0.666491523731E+03    0.24137E-04   -0.15360E-06  5449   0.308E-03
  94 F= -.66649152E+03 E0= -.66610986E+03  d E =-.173659E-03  mag=    64.5731
       N       E                     dE             d eps       ncg     rms          rms(c)
DAV:   1    -0.666491663761E+03   -0.11589E-03   -0.16115E-03 22688   0.540E-02    0.276E-02
RMM:   2    -0.666491646553E+03    0.17209E-04   -0.48005E-05 11783   0.123E-02    0.460E-02
RMM:   3    -0.666491634774E+03    0.11778E-04   -0.17288E-05 10662   0.837E-03    0.300E-02
RMM:   4    -0.666491618273E+03    0.16501E-04   -0.25077E-06  6281   0.352E-03    0.179E-02
RMM:   5    -0.666491588668E+03    0.29606E-04   -0.19549E-06  6440   0.333E-03    0.214E-02
RMM:   6    -0.666491547949E+03    0.40719E-04   -0.18763E-06  5929   0.324E-03    0.203E-02
RMM:   7    -0.666491534125E+03    0.13824E-04   -0.38584E-07  3385   0.253E-03    0.206E-02
RMM:   8    -0.666491528761E+03    0.53640E-05   -0.16526E-07  2720   0.242E-03
  95 F= -.66649153E+03 E0= -.66610969E+03  d E =-.502914E-05  mag=    64.5746
       N       E                     dE             d eps       ncg     rms          rms(c)
DAV:   1    -0.666491705252E+03   -0.17113E-03   -0.14073E-02 23296   0.158E-01    0.583E-02
RMM:   2    -0.666491732756E+03   -0.27504E-04   -0.33909E-04 14425   0.319E-02    0.666E-02
RMM:   3    -0.666491744946E+03   -0.12190E-04   -0.81528E-05 12152   0.178E-02    0.615E-02
RMM:   4    -0.666491731594E+03    0.13352E-04   -0.27082E-05 11202   0.104E-02    0.330E-02
RMM:   5    -0.666491704195E+03    0.27399E-04   -0.11645E-05  9693   0.605E-03    0.321E-02
RMM:   6    -0.666491666587E+03    0.37608E-04   -0.64827E-06  9384   0.506E-03    0.207E-02
RMM:   7    -0.666491627711E+03    0.38876E-04   -0.57862E-06  8574   0.462E-03    0.259E-02
RMM:   8    -0.666491600097E+03    0.27614E-04   -0.18303E-06  5948   0.323E-03
  96 F= -.66649160E+03 E0= -.66610958E+03  d E =-.763657E-04  mag=    64.5769
       N       E                     dE             d eps       ncg     rms          rms(c)
DAV:   1    -0.666491728967E+03   -0.10126E-03   -0.15950E-03 23312   0.477E-02    0.321E-02
RMM:   2    -0.666491697111E+03    0.31856E-04   -0.47465E-05 12008   0.116E-02    0.496E-02
RMM:   3    -0.666491674530E+03    0.22581E-04   -0.20092E-05 10306   0.843E-03    0.372E-02
RMM:   4    -0.666491644080E+03    0.30450E-04   -0.33059E-06  6890   0.384E-03    0.214E-02
RMM:   5    -0.666491591950E+03    0.52130E-04   -0.26253E-06  6881   0.354E-03    0.254E-02
RMM:   6    -0.666491530844E+03    0.61107E-04   -0.23434E-06  6331   0.332E-03    0.247E-02
RMM:   7    -0.666491524718E+03    0.61258E-05   -0.22500E-07  3137   0.249E-03    0.247E-02
RMM:   8    -0.666491498705E+03    0.26012E-04   -0.72513E-07  3964   0.265E-03
  97 F= -.66649150E+03 E0= -.66610928E+03  d E =0.101392E-03  mag=    64.5781
       N       E                     dE             d eps       ncg     rms          rms(c)
DAV:   1    -0.666491822164E+03   -0.29745E-03   -0.14426E-02 23136   0.143E-01    0.722E-02
RMM:   2    -0.666491856055E+03   -0.33891E-04   -0.34894E-04 14421   0.308E-02    0.761E-02
RMM:   3    -0.666491846662E+03    0.93929E-05   -0.10625E-04 12349   0.192E-02    0.872E-02
RMM:   4    -0.666491813503E+03    0.33159E-04   -0.33005E-05 11172   0.114E-02    0.304E-02
RMM:   5    -0.666491764295E+03    0.49208E-04   -0.14105E-05 10251   0.657E-03    0.393E-02
RMM:   6    -0.666491696343E+03    0.67952E-04   -0.83551E-06  9885   0.554E-03    0.280E-02
RMM:   7    -0.666491636905E+03    0.59438E-04   -0.60349E-06  9182   0.473E-03    0.311E-02
RMM:   8    -0.666491590310E+03    0.46595E-04   -0.25971E-06  7087   0.349E-03
  98 F= -.66649159E+03 E0= -.66610916E+03  d E =0.978727E-05  mag=    64.5805
       N       E                     dE             d eps       ncg     rms          rms(c)
DAV:   1    -0.666491140051E+03    0.49685E-03   -0.57634E-02 22944   0.285E-01    0.137E-01
RMM:   2    -0.666491350193E+03   -0.21014E-03   -0.13617E-03 20140   0.610E-02    0.132E-01
RMM:   3    -0.666491398184E+03   -0.47991E-04   -0.33745E-04 14463   0.317E-02    0.136E-01
RMM:   4    -0.666491349636E+03    0.48548E-04   -0.13708E-04 12554   0.232E-02    0.719E-02
RMM:   5    -0.666491304867E+03    0.44769E-04   -0.49008E-05 11748   0.118E-02    0.590E-02
RMM:   6    -0.666491229234E+03    0.75633E-04   -0.24123E-05 11193   0.923E-03    0.336E-02
RMM:   7    -0.666491152121E+03    0.77113E-04   -0.22605E-05 11113   0.832E-03    0.460E-02
RMM:   8    -0.666491089538E+03    0.62583E-04   -0.78003E-06  9708   0.534E-03
  99 F= -.66649109E+03 E0= -.66610828E+03  d E =0.510559E-03  mag=    64.5832
       N       E                     dE             d eps       ncg     rms          rms(c)
DAV:   1    -0.666491144163E+03    0.79586E-05   -0.25754E-02 23888   0.190E-01    0.967E-02
RMM:   2    -0.666491072093E+03    0.72070E-04   -0.61160E-04 16861   0.411E-02    0.106E-01
RMM:   3    -0.666491026469E+03    0.45624E-04   -0.18119E-04 12909   0.244E-02    0.114E-01
RMM:   4    -0.666490918028E+03    0.10844E-03   -0.54353E-05 11915   0.151E-02    0.406E-02
RMM:   5    -0.666490768729E+03    0.14930E-03   -0.25045E-05 10881   0.855E-03    0.552E-02
RMM:   6    -0.666490589395E+03    0.17933E-03   -0.13022E-05 10446   0.659E-03    0.412E-02
RMM:   7    -0.666490439483E+03    0.14991E-03   -0.11998E-05  9834   0.600E-03    0.512E-02
RMM:   8    -0.666490345998E+03    0.93486E-04   -0.43551E-06  7635   0.396E-03
 100 F= -.66649035E+03 E0= -.66610722E+03  d E =0.125410E-02  mag=    64.5857
       N       E                     dE             d eps       ncg     rms          rms(c)
DAV:   1    -0.666490550241E+03   -0.11076E-03   -0.50987E-03 23952   0.926E-02    0.587E-02
RMM:   2    -0.666490385229E+03    0.16501E-03   -0.15177E-04 12793   0.213E-02    0.992E-02
RMM:   3    -0.666490313090E+03    0.72139E-04   -0.79761E-05 12060   0.170E-02    0.730E-02
RMM:   4    -0.666490220258E+03    0.92831E-04   -0.11328E-05  9931   0.606E-03    0.485E-02
RMM:   5    -0.666490132994E+03    0.87265E-04   -0.45219E-06  8019   0.421E-03    0.537E-02
RMM:   6    -0.666490196845E+03   -0.63851E-04   -0.10092E-06  5005   0.295E-03    0.519E-02
RMM:   7    -0.666490414232E+03   -0.21739E-03   -0.61174E-06  7982   0.477E-03    0.504E-02
RMM:   8    -0.666490774954E+03   -0.36072E-03   -0.18120E-05  9835   0.670E-03    0.522E-02
RMM:   9    -0.666491262177E+03   -0.48722E-03   -0.33253E-05 10579   0.842E-03    0.525E-02
RMM:  10    -0.666491961737E+03   -0.69956E-03   -0.74938E-05 11326   0.120E-02    0.553E-02
RMM:  11    -0.666493043779E+03   -0.10820E-02   -0.27294E-04 13329   0.220E-02    0.650E-02
RMM:  12    -0.666493627599E+03   -0.58382E-03   -0.12318E-04 11745   0.156E-02    0.652E-02
RMM:  13    -0.666493557789E+03    0.69810E-04   -0.17447E-05  9950   0.824E-03
 101 F= -.66649356E+03 E0= -.66611176E+03  d E =-.321179E-02  mag=    64.5767
       N       E                     dE             d eps       ncg     rms          rms(c)
DAV:   1    -0.666493780840E+03   -0.15324E-03   -0.48566E-05 14656   0.227E-02    0.635E-02
RMM:   2    -0.666493785238E+03   -0.43982E-05   -0.69559E-05 10864   0.131E-02    0.113E-01
RMM:   3    -0.666493735286E+03    0.49952E-04   -0.84758E-05 10608   0.162E-02    0.838E-02
RMM:   4    -0.666493694037E+03    0.41250E-04   -0.70603E-06  7812   0.482E-03    0.504E-02
RMM:   5    -0.666493623612E+03    0.70425E-04   -0.55744E-06  9235   0.442E-03    0.428E-02
RMM:   6    -0.666493509131E+03    0.11448E-03   -0.77930E-06  9738   0.545E-03    0.268E-02
RMM:   7    -0.666493452797E+03    0.56333E-04   -0.35199E-06  8560   0.391E-03    0.171E-02
RMM:   8    -0.666493420727E+03    0.32071E-04   -0.13429E-06  5286   0.288E-03
 102 F= -.66649342E+03 E0= -.66611153E+03  d E =-.307473E-02  mag=    64.5790
       N       E                     dE             d eps       ncg     rms          rms(c)
DAV:   1    -0.666493399855E+03    0.52942E-04   -0.30419E-06 13824   0.472E-03    0.139E-02
RMM:   2    -0.666493371708E+03    0.28147E-04   -0.16162E-06  5008   0.273E-03    0.163E-02
RMM:   3    -0.666493361309E+03    0.10399E-04   -0.64909E-07  3563   0.228E-03    0.147E-02
RMM:   4    -0.666493378514E+03   -0.17205E-04   -0.74224E-08  2639   0.186E-03    0.151E-02
RMM:   5    -0.666493423200E+03   -0.44686E-04   -0.14075E-06  4796   0.270E-03    0.138E-02
RMM:   6    -0.666493470992E+03   -0.47792E-04   -0.17477E-06  5055   0.274E-03    0.131E-02
RMM:   7    -0.666493517242E+03   -0.46250E-04   -0.20719E-06  5654   0.287E-03    0.129E-02
RMM:   8    -0.666493593162E+03   -0.75920E-04   -0.48682E-06  7442   0.385E-03
 103 F= -.66649359E+03 E0= -.66611182E+03  d E =-.324716E-02  mag=    64.5763
       N       E                     dE             d eps       ncg     rms          rms(c)
DAV:   1    -0.666493694765E+03   -0.17752E-03   -0.23909E-05 14176   0.157E-02    0.126E-02
RMM:   2    -0.666493680029E+03    0.14736E-04   -0.55237E-06  8994   0.471E-03    0.210E-02
RMM:   3    -0.666493675043E+03    0.49858E-05   -0.75558E-07  4218   0.241E-03    0.140E-02
RMM:   4    -0.666493674316E+03    0.72783E-06   -0.10609E-08  2298   0.187E-03    0.141E-02
RMM:   5    -0.666493675076E+03   -0.76089E-06   -0.26349E-09  2146   0.187E-03    0.141E-02
RMM:   6    -0.666493696730E+03   -0.21653E-04   -0.67643E-07  3634   0.238E-03    0.155E-02
RMM:   7    -0.666493753699E+03   -0.56969E-04   -0.68173E-06  7882   0.447E-03    0.149E-02
RMM:   8    -0.666493785585E+03   -0.31887E-04   -0.24900E-06  5735   0.292E-03
 104 F= -.66649379E+03 E0= -.66611220E+03  d E =-.343959E-02  mag=    64.5747
       N       E                     dE             d eps       ncg     rms          rms(c)
DAV:   1    -0.666493835362E+03   -0.81663E-04   -0.24296E-05 14720   0.112E-02    0.135E-02
RMM:   2    -0.666493831553E+03    0.38096E-05   -0.67540E-06  9428   0.503E-03    0.271E-02
RMM:   3    -0.666493827194E+03    0.43591E-05   -0.28785E-06  6765   0.363E-03    0.137E-02
RMM:   4    -0.666493824784E+03    0.24098E-05   -0.61224E-08  2623   0.182E-03    0.126E-02
RMM:   5    -0.666493822852E+03    0.19316E-05   -0.19071E-08  2198   0.177E-03    0.128E-02
RMM:   6    -0.666493819705E+03    0.31469E-05   -0.93456E-08  2316   0.188E-03    0.128E-02
RMM:   7    -0.666493808685E+03    0.11020E-04   -0.48175E-07  3661   0.232E-03    0.124E-02
RMM:   8    -0.666493791559E+03    0.17126E-04   -0.11778E-06  4829   0.276E-03
 105 F= -.66649379E+03 E0= -.66611215E+03  d E =-.344556E-02  mag=    64.5759
       N       E                     dE             d eps       ncg     rms          rms(c)
DAV:   1    -0.666493801501E+03    0.71842E-05   -0.72257E-05 16000   0.114E-02    0.135E-02
RMM:   2    -0.666493788979E+03    0.12521E-04   -0.43234E-06  8920   0.423E-03    0.130E-02
RMM:   3    -0.666493781977E+03    0.70026E-05   -0.37665E-07  3458   0.247E-03    0.127E-02
RMM:   4    -0.666493772855E+03    0.91214E-05   -0.34243E-07  3019   0.243E-03    0.125E-02
RMM:   5    -0.666493772832E+03    0.23749E-07   -0.10555E-08  2065   0.221E-03    0.125E-02
RMM:   6    -0.666493742852E+03    0.29980E-04   -0.27807E-06  6616   0.343E-03    0.145E-02
RMM:   7    -0.666493726956E+03    0.15896E-04   -0.52163E-07  3635   0.249E-03    0.139E-02
RMM:   8    -0.666493742686E+03   -0.15731E-04   -0.24682E-07  3161   0.235E-03
 106 F= -.66649374E+03 E0= -.66611203E+03  d E =-.339669E-02  mag=    64.5773
       N       E                     dE             d eps       ncg     rms          rms(c)
DAV:   1    -0.666493746693E+03   -0.19737E-04   -0.28529E-04 20144   0.224E-02    0.177E-02
RMM:   2    -0.666493731110E+03    0.15582E-04   -0.11725E-05 10636   0.658E-03    0.210E-02
RMM:   3    -0.666493724938E+03    0.61728E-05   -0.43891E-06  8143   0.445E-03    0.206E-02
RMM:   4    -0.666493717596E+03    0.73412E-05   -0.48736E-07  3378   0.254E-03    0.155E-02
RMM:   5    -0.666493708262E+03    0.93346E-05   -0.30025E-07  2975   0.246E-03    0.162E-02
RMM:   6    -0.666493709834E+03   -0.15721E-05   -0.43879E-09  2071   0.222E-03    0.163E-02
RMM:   7    -0.666493681941E+03    0.27893E-04   -0.16657E-06  5592   0.310E-03    0.168E-02
RMM:   8    -0.666493660639E+03    0.21303E-04   -0.85917E-07  4133   0.265E-03
 107 F= -.66649366E+03 E0= -.66611184E+03  d E =-.331464E-02  mag=    64.5790
