 ----------------------------------------------------
    OOO  PPPP  EEEEE N   N M   M PPPP
   O   O P   P E     NN  N MM MM P   P
   O   O PPPP  EEEEE N N N M M M PPPP   -- VERSION
   O   O P     E     N  NN M   M P
    OOO  P     EEEEE N   N M   M P
 ----------------------------------------------------
 running   16 mpi-ranks, with    4 threads/rank
 distrk:  each k-point on   16 cores,    1 groups
 distr:  one band on    1 cores,   16 groups
 vasp.6.2.1 16May21 (build Jul 28 2021 23:24:15) complex                        
  
 POSCAR found type information on POSCAR H IrO 
 POSCAR found :  3 types and     101 ions
 scaLAPACK will be used
 -----------------------------------------------------------------------------
|                                                                             |
|           W    W    AA    RRRRR   N    N  II  N    N   GGGG   !!!           |
|           W    W   A  A   R    R  NN   N  II  NN   N  G    G  !!!           |
|           W    W  A    A  R    R  N N  N  II  N N  N  G       !!!           |
|           W WW W  AAAAAA  RRRRR   N  N N  II  N  N N  G  GGG   !            |
|           WW  WW  A    A  R   R   N   NN  II  N   NN  G    G                |
|           W    W  A    A  R    R  N    N  II  N    N   GGGG   !!!           |
|                                                                             |
|     The real-space projection scheme for the treatment of the non-local     |
|     pseudopotentials has been switched on but on file POTCAR I have not     |
|     found any entries, signalling me that you have never performed a        |
|     real-space optimization of all non-local projectors! BE WARNED that     |
|     a calculation using the real-space projection scheme together with      |
|     non-local projectors which were not real-space optimized (according     |
|     to the plane-wave cutoff used in this calculation) might give more      |
|     or less inaccurate results. I hope you know what you are doing.         |
|                                                                             |
 -----------------------------------------------------------------------------

 LDA part: xc-table for Pade appr. of Perdew
 POSCAR, INCAR and KPOINTS ok, starting setup
 FFT: planning ...
 WAVECAR not read
 WARNING: random wavefunctions but no delay for mixing, default for NELMDL
 entering main loop
       N       E                     dE             d eps       ncg     rms          rms(c)
DAV:   1     0.756302235076E+04    0.75630E+04   -0.29597E+05 15120   0.125E+03
DAV:   2     0.596903900885E+03   -0.69661E+04   -0.62796E+04 16032   0.372E+02
DAV:   3    -0.755886885516E+03   -0.13528E+04   -0.12995E+04 18560   0.165E+02
DAV:   4    -0.829117202841E+03   -0.73230E+02   -0.71468E+02 20464   0.429E+01
DAV:   5    -0.830662475312E+03   -0.15453E+01   -0.15264E+01 19328   0.584E+00    0.187E+02
RMM:   6    -0.691862024933E+03    0.13880E+03   -0.62143E+02 14890   0.398E+01    0.168E+02
RMM:   7    -0.147028883579E+04   -0.77843E+03   -0.40173E+02 16437   0.272E+01    0.387E+02
RMM:   8    -0.134973455447E+04    0.12055E+03   -0.11695E+02 18872   0.112E+01    0.371E+02
RMM:   9    -0.145585939393E+04   -0.10612E+03   -0.53076E+01 15500   0.974E+00    0.383E+02
RMM:  10    -0.102226533837E+04    0.43359E+03   -0.51183E+02 22245   0.260E+01    0.326E+02
RMM:  11    -0.110944223571E+04   -0.87177E+02   -0.81129E+01 16674   0.109E+01    0.291E+02
RMM:  12    -0.111703395416E+04   -0.75917E+01   -0.19190E+02 19276   0.132E+01    0.170E+02
RMM:  13    -0.955445584831E+03    0.16159E+03   -0.25750E+02 21713   0.202E+01    0.169E+02
RMM:  14    -0.718814785238E+03    0.23663E+03   -0.38412E+01 16040   0.857E+00    0.150E+02
RMM:  15    -0.632325999132E+03    0.86489E+02   -0.47461E+01 17015   0.940E+00    0.125E+02
RMM:  16    -0.634131111122E+03   -0.18051E+01   -0.22253E+01 15616   0.681E+00    0.112E+02
RMM:  17    -0.623261411796E+03    0.10870E+02   -0.74822E+00 16474   0.400E+00    0.101E+02
RMM:  18    -0.615573002233E+03    0.76884E+01   -0.72461E+00 15730   0.402E+00    0.861E+01
RMM:  19    -0.619844539591E+03   -0.42715E+01   -0.29937E+00 15802   0.267E+00    0.809E+01
RMM:  20    -0.619672846551E+03    0.17169E+00   -0.40422E+00 16447   0.300E+00    0.670E+01
RMM:  21    -0.623732224592E+03   -0.40594E+01   -0.35876E+00 16472   0.283E+00    0.532E+01
RMM:  22    -0.633296032500E+03   -0.95638E+01   -0.34524E+00 16561   0.267E+00    0.419E+01
RMM:  23    -0.643093627848E+03   -0.97976E+01   -0.34086E+00 16821   0.269E+00    0.358E+01
RMM:  24    -0.654437912456E+03   -0.11344E+02   -0.57949E+00 18514   0.339E+00    0.248E+01
RMM:  25    -0.660221046315E+03   -0.57831E+01   -0.38427E+00 17166   0.273E+00    0.155E+01
RMM:  26    -0.663730043378E+03   -0.35090E+01   -0.11247E+00 15364   0.169E+00    0.138E+01
RMM:  27    -0.667609802900E+03   -0.38798E+01   -0.79343E-01 15502   0.132E+00    0.122E+01
RMM:  28    -0.671260440130E+03   -0.36506E+01   -0.13918E+00 16627   0.166E+00    0.115E+01
RMM:  29    -0.670993716915E+03    0.26672E+00   -0.51054E-01 15532   0.121E+00    0.961E+00
RMM:  30    -0.672742276213E+03   -0.17486E+01   -0.69819E-01 16574   0.119E+00    0.133E+01
RMM:  31    -0.675178308236E+03   -0.24360E+01   -0.48268E-01 15865   0.103E+00    0.139E+01
RMM:  32    -0.678195385753E+03   -0.30171E+01   -0.67392E-01 17257   0.116E+00    0.144E+01
RMM:  33    -0.678948557088E+03   -0.75317E+00   -0.51978E-01 17079   0.996E-01    0.167E+01
RMM:  34    -0.680280558669E+03   -0.13320E+01   -0.23229E-01 15543   0.701E-01    0.171E+01
RMM:  35    -0.681537488719E+03   -0.12569E+01   -0.26116E-01 16340   0.674E-01    0.175E+01
RMM:  36    -0.682052633059E+03   -0.51514E+00   -0.11506E-01 15351   0.512E-01    0.155E+01
RMM:  37    -0.685095282249E+03   -0.30426E+01   -0.32294E-01 17866   0.735E-01    0.144E+01
RMM:  38    -0.685148208426E+03   -0.52926E-01   -0.47296E-01 19677   0.909E-01    0.977E+00
RMM:  39    -0.686495442244E+03   -0.13472E+01   -0.82836E-02 15513   0.419E-01    0.935E+00
RMM:  40    -0.687103318453E+03   -0.60788E+00   -0.93834E-02 16501   0.427E-01    0.971E+00
RMM:  41    -0.687710339591E+03   -0.60702E+00   -0.16410E-01 18025   0.518E-01    0.659E+00
RMM:  42    -0.688759105892E+03   -0.10488E+01   -0.53128E-02 15539   0.321E-01    0.567E+00
RMM:  43    -0.689262709444E+03   -0.50360E+00   -0.82832E-02 17157   0.377E-01    0.476E+00
RMM:  44    -0.689676777519E+03   -0.41407E+00   -0.21237E-01 19779   0.532E-01    0.502E+00
RMM:  45    -0.689842489780E+03   -0.16571E+00   -0.10191E-01 17684   0.387E-01    0.418E+00
RMM:  46    -0.689964704081E+03   -0.12221E+00   -0.20679E-02 15368   0.204E-01    0.454E+00
RMM:  47    -0.690095667320E+03   -0.13096E+00   -0.26199E-02 16412   0.218E-01    0.526E+00
RMM:  48    -0.690359212399E+03   -0.26355E+00   -0.39829E-02 18300   0.257E-01    0.595E+00
RMM:  49    -0.690807672000E+03   -0.44846E+00   -0.18192E-02 16102   0.187E-01    0.625E+00
RMM:  50    -0.691319773203E+03   -0.51210E+00   -0.16806E-02 16423   0.175E-01    0.675E+00
RMM:  51    -0.690121203398E+03    0.11986E+01   -0.21499E-01 23491   0.574E-01    0.320E+00
RMM:  52    -0.690422057039E+03   -0.30085E+00   -0.53194E-03 14964   0.138E-01    0.271E+00
RMM:  53    -0.690675952668E+03   -0.25390E+00   -0.15770E-02 17773   0.179E-01    0.234E+00
RMM:  54    -0.690902190217E+03   -0.22624E+00   -0.20573E-02 18938   0.199E-01    0.224E+00
RMM:  55    -0.691046193001E+03   -0.14400E+00   -0.39722E-03 15381   0.962E-02    0.206E+00
RMM:  56    -0.691041704377E+03    0.44886E-02   -0.37789E-02 21692   0.270E-01    0.105E+00
RMM:  57    -0.691167024304E+03   -0.12532E+00   -0.44062E-03 15791   0.974E-02    0.104E+00
RMM:  58    -0.691238766545E+03   -0.71742E-01   -0.59446E-03 16752   0.994E-02    0.969E-01
RMM:  59    -0.691315781184E+03   -0.77015E-01   -0.30262E-03 15176   0.747E-02    0.880E-01
RMM:  60    -0.691431124374E+03   -0.11534E+00   -0.18993E-03 14641   0.597E-02    0.859E-01
RMM:  61    -0.691485020462E+03   -0.53896E-01   -0.11999E-03 14601   0.521E-02    0.712E-01
RMM:  62    -0.691633859015E+03   -0.14884E+00   -0.15835E-03 14941   0.518E-02    0.484E-01
RMM:  63    -0.691743468157E+03   -0.10961E+00   -0.10526E-03 13878   0.417E-02    0.312E-01
RMM:  64    -0.691822589580E+03   -0.79121E-01   -0.75183E-04 13174   0.374E-02    0.203E-01
RMM:  65    -0.691873278618E+03   -0.50689E-01   -0.45616E-04 11452   0.296E-02    0.150E-01
RMM:  66    -0.691891452968E+03   -0.18174E-01   -0.17713E-04  9473   0.210E-02    0.128E-01
RMM:  67    -0.691909359863E+03   -0.17907E-01   -0.82707E-05  8905   0.162E-02    0.808E-02
RMM:  68    -0.691931333013E+03   -0.21973E-01   -0.93180E-05  9003   0.135E-02    0.526E-02
RMM:  69    -0.691941921825E+03   -0.10589E-01   -0.57887E-05  8778   0.113E-02    0.340E-02
RMM:  70    -0.691945929511E+03   -0.40077E-02   -0.24890E-05  7851   0.827E-03    0.273E-02
RMM:  71    -0.691948708662E+03   -0.27792E-02   -0.14011E-05  7368   0.576E-03    0.233E-02
RMM:  72    -0.691950964862E+03   -0.22562E-02   -0.11519E-05  7034   0.504E-03    0.208E-02
RMM:  73    -0.691953260503E+03   -0.22956E-02   -0.11433E-05  6538   0.461E-03    0.191E-02
RMM:  74    -0.691954265443E+03   -0.10049E-02   -0.92618E-06  5936   0.438E-03    0.143E-02
RMM:  75    -0.691955559114E+03   -0.12937E-02   -0.11509E-05  6041   0.426E-03    0.120E-02
RMM:  76    -0.691956283240E+03   -0.72413E-03   -0.78315E-06  5445   0.393E-03    0.835E-03
RMM:  77    -0.691956832064E+03   -0.54882E-03   -0.10146E-05  5344   0.394E-03    0.863E-03
RMM:  78    -0.691957036703E+03   -0.20464E-03   -0.48115E-06  4329   0.356E-03    0.594E-03
RMM:  79    -0.691957205341E+03   -0.16864E-03   -0.40495E-06  3975   0.332E-03    0.576E-03
RMM:  80    -0.691957344970E+03   -0.13963E-03   -0.36952E-06  3944   0.330E-03
 -----------------------------------------------------------------------------
|                                                                             |
|           W    W    AA    RRRRR   N    N  II  N    N   GGGG   !!!           |
|           W    W   A  A   R    R  NN   N  II  NN   N  G    G  !!!           |
|           W    W  A    A  R    R  N N  N  II  N N  N  G       !!!           |
|           W WW W  AAAAAA  RRRRR   N  N N  II  N  N N  G  GGG   !            |
|           WW  WW  A    A  R   R   N   NN  II  N   NN  G    G                |
|           W    W  A    A  R    R  N    N  II  N    N   GGGG   !!!           |
|                                                                             |
|     The electronic self-consistency was not achieved in the given           |
|     number of steps (NELM). The forces and other quantities evaluated       |
|     might not be reliable so examine the results carefully. If you find     |
|     spurious results, we suggest increasing NELM, if you were close to      |
|     convergence or switching to a different ALGO or adjusting the           |
|     density mixing parameters otherwise.                                    |
|                                                                             |
 -----------------------------------------------------------------------------

   1 F= -.69195734E+03 E0= -.69138680E+03  d E =-.691957E+03  mag=     3.9770
 curvature:   0.00 expect dE= 0.000E+00 dE for cont linesearch  0.000E+00
 trial: gam= 0.00000 g(F)=  0.165E+01 g(S)=  0.000E+00 ort = 0.000E+00 (trialstep = 0.100E+01)
 search vector abs. value=  0.165E+01
 bond charge predicted
       N       E                     dE             d eps       ncg     rms          rms(c)
DAV:   1    -0.689571631413E+03    0.23856E+01   -0.26609E+02 15392   0.204E+01    0.698E+00
RMM:   2    -0.690471967547E+03   -0.90034E+00   -0.10264E+01 14852   0.438E+00    0.144E+01
RMM:   3    -0.692030177692E+03   -0.15582E+01   -0.22833E+00 15668   0.195E+00    0.192E+01
RMM:   4    -0.690387372164E+03    0.16428E+01   -0.52278E-01 14920   0.130E+00    0.107E+01
RMM:   5    -0.689671679868E+03    0.71569E+00   -0.19335E-01 14895   0.865E-01    0.488E+00
RMM:   6    -0.689660546452E+03    0.11133E-01   -0.11710E-01 15083   0.522E-01    0.381E+00
RMM:   7    -0.689700230313E+03   -0.39684E-01   -0.60644E-02 15190   0.390E-01    0.339E+00
RMM:   8    -0.689712523805E+03   -0.12293E-01   -0.66303E-02 15970   0.357E-01    0.307E+00
RMM:   9    -0.689668244449E+03    0.44279E-01   -0.36667E-02 15633   0.279E-01    0.164E+00
RMM:  10    -0.689662400964E+03    0.58435E-02   -0.97251E-03 14870   0.166E-01    0.944E-01
RMM:  11    -0.689671931153E+03   -0.95302E-02   -0.69890E-03 15077   0.124E-01    0.679E-01
RMM:  12    -0.689681489762E+03   -0.95586E-02   -0.34920E-03 14612   0.903E-02    0.608E-01
RMM:  13    -0.689685078364E+03   -0.35886E-02   -0.19241E-03 14254   0.686E-02    0.419E-01
RMM:  14    -0.689685792700E+03   -0.71434E-03   -0.11683E-03 13381   0.495E-02    0.238E-01
RMM:  15    -0.689686976753E+03   -0.11841E-02   -0.34592E-04 11244   0.313E-02    0.223E-01
RMM:  16    -0.689687456254E+03   -0.47950E-03   -0.23210E-04  9866   0.249E-02    0.116E-01
RMM:  17    -0.689687916014E+03   -0.45976E-03   -0.12436E-04  9122   0.168E-02    0.877E-02
RMM:  18    -0.689688599846E+03   -0.68383E-03   -0.71858E-05  8600   0.133E-02    0.701E-02
RMM:  19    -0.689689082363E+03   -0.48252E-03   -0.39012E-05  7998   0.944E-03    0.550E-02
RMM:  20    -0.689689413544E+03   -0.33118E-03   -0.24754E-05  7462   0.720E-03    0.359E-02
RMM:  21    -0.689689840112E+03   -0.42657E-03   -0.28754E-05  7361   0.657E-03    0.275E-02
RMM:  22    -0.689690142919E+03   -0.30281E-03   -0.19809E-05  6817   0.573E-03    0.235E-02
RMM:  23    -0.689690422866E+03   -0.27995E-03   -0.22666E-05  7034   0.581E-03    0.205E-02
RMM:  24    -0.689690580069E+03   -0.15720E-03   -0.20921E-05  6353   0.531E-03    0.136E-02
RMM:  25    -0.689690599652E+03   -0.19583E-04   -0.99237E-06  5610   0.458E-03
   2 F= -.68969060E+03 E0= -.68911412E+03  d E =0.226675E+01  mag=     3.8899
 trial-energy change:    2.266745  1 .order    4.143906   -1.651052    9.938863
 step:   0.1425(harm=  0.1425)  dis= 0.01929  next Energy=  -692.074946 (dE=-0.118E+00)
 bond charge predicted
       N       E                     dE             d eps       ncg     rms          rms(c)
DAV:   1    -0.692975328921E+03   -0.32847E+01   -0.19904E+02 15472   0.179E+01    0.122E+01
RMM:   2    -0.703265277843E+03   -0.10290E+02   -0.21654E+01 14988   0.465E+00    0.386E+01
RMM:   3    -0.703468572374E+03   -0.20329E+00   -0.36588E+00 15000   0.289E+00    0.393E+01
RMM:   4    -0.695713928272E+03    0.77546E+01   -0.12274E+00 14908   0.199E+00    0.187E+01
RMM:   5    -0.693055490001E+03    0.26584E+01   -0.10713E+00 15201   0.143E+00    0.940E+00
RMM:   6    -0.692437761927E+03    0.61773E+00   -0.58121E-01 15795   0.988E-01    0.586E+00
RMM:   7    -0.692251370464E+03    0.18639E+00   -0.30889E-01 15962   0.668E-01    0.409E+00
RMM:   8    -0.692193092680E+03    0.58278E-01   -0.10856E-01 16389   0.428E-01    0.294E+00
RMM:   9    -0.692193479672E+03   -0.38699E-03   -0.38472E-02 15544   0.275E-01    0.246E+00
RMM:  10    -0.692223630477E+03   -0.30151E-01   -0.28520E-02 15880   0.231E-01    0.270E+00
RMM:  11    -0.692222008956E+03    0.16215E-02   -0.22652E-02 16078   0.220E-01    0.222E+00
RMM:  12    -0.692204091500E+03    0.17917E-01   -0.11999E-02 15404   0.177E-01    0.126E+00
RMM:  13    -0.692208412609E+03   -0.43211E-02   -0.14269E-02 15856   0.165E-01    0.926E-01
RMM:  14    -0.692205765003E+03    0.26476E-02   -0.51898E-03 15115   0.122E-01    0.847E-01
RMM:  15    -0.692200765888E+03    0.49991E-02   -0.27715E-03 14479   0.817E-02    0.592E-01
RMM:  16    -0.692201052676E+03   -0.28679E-03   -0.15892E-03 14068   0.617E-02    0.517E-01
RMM:  17    -0.692202589294E+03   -0.15366E-02   -0.16634E-03 14746   0.560E-02    0.360E-01
RMM:  18    -0.692203723773E+03   -0.11345E-02   -0.56548E-04 12685   0.371E-02    0.249E-01
RMM:  19    -0.692204747900E+03   -0.10241E-02   -0.70763E-04 12426   0.358E-02    0.160E-01
RMM:  20    -0.692207825990E+03   -0.30781E-02   -0.34965E-04 10938   0.268E-02    0.122E-01
RMM:  21    -0.692210907086E+03   -0.30811E-02   -0.16492E-04  9415   0.185E-02    0.961E-02
RMM:  22    -0.692213952023E+03   -0.30449E-02   -0.10397E-04  8950   0.144E-02    0.722E-02
RMM:  23    -0.692215962851E+03   -0.20108E-02   -0.63687E-05  8461   0.114E-02    0.530E-02
RMM:  24    -0.692217594295E+03   -0.16314E-02   -0.66729E-05  8428   0.103E-02    0.463E-02
RMM:  25    -0.692218357967E+03   -0.76367E-03   -0.30681E-05  7636   0.839E-03    0.307E-02
RMM:  26    -0.692219153634E+03   -0.79567E-03   -0.29586E-05  7732   0.746E-03    0.233E-02
RMM:  27    -0.692219505269E+03   -0.35164E-03   -0.24072E-05  7407   0.672E-03    0.236E-02
RMM:  28    -0.692219633142E+03   -0.12787E-03   -0.97497E-06  6049   0.534E-03    0.177E-02
RMM:  29    -0.692219818242E+03   -0.18510E-03   -0.53715E-06  5049   0.393E-03    0.149E-02
RMM:  30    -0.692220029282E+03   -0.21104E-03   -0.56529E-06  5526   0.394E-03    0.143E-02
RMM:  31    -0.692220307309E+03   -0.27803E-03   -0.57249E-06  5660   0.387E-03    0.101E-02
RMM:  32    -0.692220599013E+03   -0.29170E-03   -0.34176E-06  5033   0.360E-03    0.967E-03
RMM:  33    -0.692220749620E+03   -0.15061E-03   -0.15118E-06  3705   0.310E-03    0.857E-03
RMM:  34    -0.692220923238E+03   -0.17362E-03   -0.10181E-06  3239   0.300E-03    0.852E-03
RMM:  35    -0.692221109885E+03   -0.18665E-03   -0.81463E-07  2969   0.296E-03    0.718E-03
RMM:  36    -0.692221320702E+03   -0.21082E-03   -0.90035E-07  2923   0.297E-03    0.550E-03
RMM:  37    -0.692221461443E+03   -0.14074E-03   -0.37675E-07  2315   0.286E-03    0.438E-03
RMM:  38    -0.692221602772E+03   -0.14133E-03   -0.16675E-07  2045   0.280E-03    0.464E-03
RMM:  39    -0.692221782901E+03   -0.18013E-03   -0.23327E-07  2122   0.282E-03    0.426E-03
RMM:  40    -0.692222056127E+03   -0.27323E-03   -0.89253E-07  2634   0.292E-03    0.350E-03
RMM:  41    -0.692222200609E+03   -0.14448E-03   -0.57278E-07  2318   0.282E-03    0.314E-03
RMM:  42    -0.692222346877E+03   -0.14627E-03   -0.77426E-07  2432   0.283E-03    0.277E-03
RMM:  43    -0.692222562418E+03   -0.21554E-03   -0.21353E-06  3029   0.296E-03    0.217E-03
RMM:  44    -0.692222701166E+03   -0.13875E-03   -0.18436E-06  2996   0.291E-03    0.193E-03
RMM:  45    -0.692222764011E+03   -0.62845E-04   -0.95395E-07  2677   0.283E-03
   3 F= -.69222276E+03 E0= -.69165117E+03  d E =-.265419E+00  mag=     3.9634
 curvature:  -0.07 expect dE=-0.202E+00 dE for cont linesearch -0.125E+00
 ZBRENT: interpolating
 opt :   0.2680  next Energy=  -692.329674 (dE=-0.372E+00)
 bond charge predicted
       N       E                     dE             d eps       ncg     rms          rms(c)
DAV:   1    -0.692367826815E+03   -0.14513E+00   -0.40905E+00 15600   0.250E+00    0.126E+00
RMM:   2    -0.692440661288E+03   -0.72834E-01   -0.16271E-01 14842   0.518E-01    0.414E+00
RMM:   3    -0.692442662570E+03   -0.20013E-02   -0.31425E-02 14898   0.299E-01    0.356E+00
RMM:   4    -0.692386027448E+03    0.56635E-01   -0.12191E-02 14870   0.207E-01    0.209E+00
RMM:   5    -0.692370073608E+03    0.15954E-01   -0.49301E-03 14688   0.138E-01    0.142E+00
RMM:   6    -0.692368063789E+03    0.20098E-02   -0.18107E-03 13937   0.713E-02    0.121E+00
RMM:   7    -0.692364980900E+03    0.30829E-02   -0.22844E-03 14678   0.664E-02    0.765E-01
RMM:   8    -0.692363282016E+03    0.16989E-02   -0.13685E-03 14267   0.531E-02    0.465E-01
RMM:   9    -0.692362861023E+03    0.42099E-03   -0.59751E-04 12604   0.385E-02    0.292E-01
RMM:  10    -0.692362798089E+03    0.62934E-04   -0.21085E-04  9698   0.261E-02
   4 F= -.69236280E+03 E0= -.69179086E+03  d E =-.405453E+00  mag=     3.9588
 curvature:  -0.06 expect dE=-0.108E+00 dE for cont linesearch -0.132E-01
 ZBRENT: interpolating
 opt :   0.3320  next Energy=  -692.383025 (dE=-0.426E+00)
 bond charge predicted
       N       E                     dE             d eps       ncg     rms          rms(c)
DAV:   1    -0.692379171188E+03   -0.16310E-01   -0.10762E+00 15520   0.129E+00    0.667E-01
RMM:   2    -0.692384339368E+03   -0.51682E-02   -0.45898E-02 14716   0.278E-01    0.141E+00
RMM:   3    -0.692382223246E+03    0.21161E-02   -0.63857E-03 14441   0.138E-01    0.799E-01
RMM:   4    -0.692402601731E+03   -0.20378E-01   -0.31751E-03 14616   0.901E-02    0.200E+00
RMM:   5    -0.692379647302E+03    0.22954E-01   -0.15158E-03 14175   0.789E-02    0.711E-01
RMM:   6    -0.692379177189E+03    0.47011E-03   -0.62216E-04 12610   0.438E-02    0.567E-01
RMM:   7    -0.692378353933E+03    0.82326E-03   -0.67589E-04 11919   0.373E-02    0.286E-01
RMM:   8    -0.692378229788E+03    0.12415E-03   -0.27138E-04 10490   0.276E-02    0.194E-01
RMM:   9    -0.692378208269E+03    0.21519E-04   -0.10801E-04  8545   0.196E-02
   5 F= -.69237821E+03 E0= -.69180548E+03  d E =-.420863E+00  mag=     3.9535
 curvature:  -0.09 expect dE=-0.142E+00 dE for cont linesearch -0.849E-03
 trial: gam= 0.99293 g(F)=  0.152E+01 g(S)=  0.000E+00 ort =-0.122E+00 (trialstep = 0.493E+00)
 search vector abs. value=  0.290E+01
 bond charge predicted
       N       E                     dE             d eps       ncg     rms          rms(c)
DAV:   1    -0.690333711578E+03    0.20445E+01   -0.16659E+02 14880   0.184E+01    0.521E+00
RMM:   2    -0.690999915466E+03   -0.66620E+00   -0.49590E+00 14850   0.337E+00    0.115E+01
RMM:   3    -0.692000089244E+03   -0.10002E+01   -0.86560E-01 15095   0.148E+00    0.162E+01
RMM:   4    -0.690663674403E+03    0.13364E+01   -0.25785E-01 14941   0.942E-01    0.655E+00
RMM:   5    -0.690433322823E+03    0.23035E+00   -0.93418E-02 14914   0.614E-01    0.402E+00
RMM:   6    -0.690357644084E+03    0.75679E-01   -0.82743E-02 15353   0.400E-01    0.309E+00
RMM:   7    -0.690381654190E+03   -0.24010E-01   -0.48546E-02 15609   0.311E-01    0.266E+00
RMM:   8    -0.690446761640E+03   -0.65107E-01   -0.38789E-02 15640   0.268E-01    0.268E+00
RMM:   9    -0.690456080545E+03   -0.93189E-02   -0.43109E-02 16234   0.253E-01    0.199E+00
RMM:  10    -0.690441466092E+03    0.14614E-01   -0.17070E-02 15830   0.197E-01    0.167E+00
RMM:  11    -0.690420020718E+03    0.21445E-01   -0.76414E-03 15035   0.148E-01    0.963E-01
RMM:  12    -0.690434004806E+03   -0.13984E-01   -0.28584E-03 14372   0.941E-02    0.710E-01
RMM:  13    -0.690457356400E+03   -0.23352E-01   -0.58760E-03 15066   0.944E-02    0.556E-01
RMM:  14    -0.690464410966E+03   -0.70546E-02   -0.38396E-03 15285   0.776E-02    0.387E-01
RMM:  15    -0.690465266484E+03   -0.85552E-03   -0.11489E-03 13700   0.502E-02    0.238E-01
RMM:  16    -0.690465128930E+03    0.13755E-03   -0.50463E-04 12101   0.349E-02    0.200E-01
RMM:  17    -0.690464776638E+03    0.35229E-03   -0.24735E-04 10123   0.249E-02    0.177E-01
RMM:  18    -0.690464561951E+03    0.21469E-03   -0.14752E-04  9254   0.193E-02    0.817E-02
RMM:  19    -0.690464706766E+03   -0.14481E-03   -0.59037E-05  8563   0.137E-02    0.508E-02
RMM:  20    -0.690464885425E+03   -0.17866E-03   -0.21608E-05  7877   0.866E-03    0.397E-02
RMM:  21    -0.690465238422E+03   -0.35300E-03   -0.10906E-05  6797   0.550E-03    0.413E-02
RMM:  22    -0.690465755916E+03   -0.51749E-03   -0.90810E-06  6269   0.465E-03    0.288E-02
RMM:  23    -0.690466864211E+03   -0.11083E-02   -0.27359E-05  7491   0.608E-03    0.225E-02
RMM:  24    -0.690467630867E+03   -0.76666E-03   -0.19075E-05  6577   0.497E-03    0.234E-02
RMM:  25    -0.690468615446E+03   -0.98458E-03   -0.24611E-05  6929   0.529E-03    0.221E-02
RMM:  26    -0.690469402505E+03   -0.78706E-03   -0.14329E-05  5541   0.443E-03    0.211E-02
RMM:  27    -0.690470311412E+03   -0.90891E-03   -0.18563E-05  6242   0.473E-03    0.182E-02
RMM:  28    -0.690471117529E+03   -0.80612E-03   -0.13363E-05  5644   0.450E-03    0.142E-02
RMM:  29    -0.690471583980E+03   -0.46645E-03   -0.66517E-06  4727   0.400E-03    0.139E-02
RMM:  30    -0.690472034279E+03   -0.45030E-03   -0.42005E-06  4175   0.348E-03    0.121E-02
RMM:  31    -0.690472932906E+03   -0.89863E-03   -0.60531E-06  4732   0.363E-03    0.108E-02
RMM:  32    -0.690473567360E+03   -0.63445E-03   -0.49807E-06  4702   0.362E-03    0.846E-03
RMM:  33    -0.690474090747E+03   -0.52339E-03   -0.34237E-06  4478   0.349E-03    0.810E-03
RMM:  34    -0.690474550833E+03   -0.46009E-03   -0.27272E-06  4176   0.327E-03    0.802E-03
RMM:  35    -0.690474869775E+03   -0.31894E-03   -0.17573E-06  3574   0.306E-03    0.752E-03
RMM:  36    -0.690475240106E+03   -0.37033E-03   -0.29051E-06  3958   0.314E-03    0.649E-03
RMM:  37    -0.690475438002E+03   -0.19790E-03   -0.18389E-06  3444   0.298E-03    0.417E-03
RMM:  38    -0.690475573719E+03   -0.13572E-03   -0.13476E-06  3082   0.289E-03    0.355E-03
RMM:  39    -0.690475669265E+03   -0.95545E-04   -0.11465E-06  2951   0.286E-03
   6 F= -.69047567E+03 E0= -.68989286E+03  d E =0.190254E+01  mag=     3.7496
 trial-energy change:    1.902539  1 .order    1.648633   -0.687893    3.985159
 step:   0.0563(harm=  0.0726)  dis= 0.01080  next Energy=  -692.417116 (dE=-0.389E-01)
 bond charge predicted
       N       E                     dE             d eps       ncg     rms          rms(c)
DAV:   1    -0.692430241568E+03   -0.19547E+01   -0.13067E+02 14944   0.165E+01    0.689E+00
RMM:   2    -0.694754916301E+03   -0.23247E+01   -0.73606E+00 14914   0.338E+00    0.169E+01
RMM:   3    -0.696637885352E+03   -0.18830E+01   -0.11098E+00 14936   0.185E+00    0.260E+01
RMM:   4    -0.692971676828E+03    0.36662E+01   -0.32012E-01 14896   0.110E+00    0.797E+00
RMM:   5    -0.692567272936E+03    0.40440E+00   -0.30000E-01 15202   0.766E-01    0.512E+00
RMM:   6    -0.692443587296E+03    0.12369E+00   -0.14763E-01 15637   0.537E-01    0.363E+00
RMM:   7    -0.692414475715E+03    0.29112E-01   -0.57310E-02 15950   0.324E-01    0.272E+00
RMM:   8    -0.692416249576E+03   -0.17739E-02   -0.24618E-02 15766   0.217E-01    0.258E+00
RMM:   9    -0.692411393698E+03    0.48559E-02   -0.31498E-02 16768   0.246E-01    0.198E+00
RMM:  10    -0.692394038742E+03    0.17355E-01   -0.18529E-02 16061   0.210E-01    0.133E+00
RMM:  11    -0.692384669585E+03    0.93692E-02   -0.44050E-03 14815   0.128E-01    0.766E-01
RMM:  12    -0.692381548104E+03    0.31215E-02   -0.20322E-03 14413   0.837E-02    0.628E-01
RMM:  13    -0.692379550338E+03    0.19978E-02   -0.16031E-03 14256   0.686E-02    0.608E-01
RMM:  14    -0.692377487199E+03    0.20631E-02   -0.71943E-04 12878   0.481E-02    0.223E-01
RMM:  15    -0.692378111197E+03   -0.62400E-03   -0.51894E-04 11752   0.309E-02    0.173E-01
RMM:  16    -0.692379765772E+03   -0.16546E-02   -0.26188E-04 10398   0.255E-02    0.136E-01
RMM:  17    -0.692381013113E+03   -0.12473E-02   -0.16421E-04  9423   0.194E-02    0.986E-02
RMM:  18    -0.692381560285E+03   -0.54717E-03   -0.92210E-05  8773   0.151E-02    0.721E-02
RMM:  19    -0.692382043525E+03   -0.48324E-03   -0.53862E-05  8359   0.120E-02    0.620E-02
RMM:  20    -0.692382704011E+03   -0.66049E-03   -0.33247E-05  8077   0.952E-03    0.418E-02
RMM:  21    -0.692383484228E+03   -0.78022E-03   -0.29267E-05  8016   0.801E-03    0.371E-02
RMM:  22    -0.692384237068E+03   -0.75284E-03   -0.24891E-05  7802   0.737E-03    0.337E-02
RMM:  23    -0.692385370381E+03   -0.11333E-02   -0.40144E-05  7816   0.770E-03    0.261E-02
RMM:  24    -0.692386099883E+03   -0.72950E-03   -0.22168E-05  6880   0.634E-03    0.260E-02
RMM:  25    -0.692386641336E+03   -0.54145E-03   -0.12487E-05  6175   0.534E-03    0.196E-02
RMM:  26    -0.692387556408E+03   -0.91507E-03   -0.15989E-05  6264   0.498E-03    0.186E-02
RMM:  27    -0.692388561131E+03   -0.10047E-02   -0.17382E-05  6299   0.497E-03    0.161E-02
RMM:  28    -0.692389170911E+03   -0.60978E-03   -0.91072E-06  5414   0.438E-03    0.152E-02
RMM:  29    -0.692389812095E+03   -0.64118E-03   -0.80846E-06  5149   0.404E-03    0.118E-02
RMM:  30    -0.692390447843E+03   -0.63575E-03   -0.52183E-06  4609   0.381E-03    0.115E-02
RMM:  31    -0.692391036673E+03   -0.58883E-03   -0.34141E-06  4014   0.344E-03    0.917E-03
RMM:  32    -0.692391793668E+03   -0.75700E-03   -0.26914E-06  3970   0.335E-03    0.786E-03
RMM:  33    -0.692392573179E+03   -0.77951E-03   -0.33052E-06  4428   0.337E-03    0.752E-03
RMM:  34    -0.692393054823E+03   -0.48164E-03   -0.18348E-06  3559   0.310E-03    0.709E-03
RMM:  35    -0.692393589727E+03   -0.53490E-03   -0.22192E-06  3662   0.308E-03    0.688E-03
RMM:  36    -0.692394010243E+03   -0.42052E-03   -0.24360E-06  3566   0.306E-03    0.554E-03
RMM:  37    -0.692394225541E+03   -0.21530E-03   -0.15560E-06  3178   0.297E-03    0.471E-03
RMM:  38    -0.692394432665E+03   -0.20712E-03   -0.17720E-06  3172   0.296E-03    0.409E-03
RMM:  39    -0.692394623431E+03   -0.19077E-03   -0.20527E-06  3342   0.301E-03    0.324E-03
RMM:  40    -0.692394811939E+03   -0.18851E-03   -0.23354E-06  3432   0.305E-03    0.283E-03
RMM:  41    -0.692394893424E+03   -0.81485E-04   -0.11739E-06  2965   0.298E-03
   7 F= -.69239489E+03 E0= -.69182073E+03  d E =-.166852E-01  mag=     3.9267
 curvature:  -0.08 expect dE=-0.480E-01 dE for cont linesearch -0.190E-01
 ZBRENT: interpolating
 opt :   0.0349  next Energy=  -692.404058 (dE=-0.258E-01)
 bond charge predicted
       N       E                     dE             d eps       ncg     rms          rms(c)
DAV:   1    -0.692404649069E+03   -0.98371E-02   -0.31181E-01 15568   0.797E-01    0.293E-01
RMM:   2    -0.692407600342E+03   -0.29513E-02   -0.10974E-02 14443   0.158E-01    0.913E-01
RMM:   3    -0.692408483119E+03   -0.88278E-03   -0.18064E-03 14081   0.782E-02    0.787E-01
RMM:   4    -0.692404950521E+03    0.35326E-02   -0.51072E-04 12203   0.441E-02    0.280E-01
RMM:   5    -0.692404885462E+03    0.65058E-04   -0.24794E-04  9630   0.287E-02    0.248E-01
RMM:   6    -0.692404807423E+03    0.78040E-04   -0.18128E-04  9010   0.216E-02    0.194E-01
RMM:   7    -0.692404726380E+03    0.81043E-04   -0.10901E-04  8392   0.179E-02    0.111E-01
RMM:   8    -0.692404711036E+03    0.15343E-04   -0.65937E-05  7941   0.143E-02
   8 F= -.69240471E+03 E0= -.69183098E+03  d E =-.265028E-01  mag=     3.9285
 curvature:  -0.04 expect dE=-0.188E-01 dE for cont linesearch -0.154E-06
 trial: gam=-0.02103 g(F)=  0.518E+00 g(S)=  0.000E+00 ort =-0.351E-02 (trialstep = 0.401E+00)
 search vector abs. value=  0.520E+00
 bond charge predicted
       N       E                     dE             d eps       ncg     rms          rms(c)
DAV:   1    -0.692123707106E+03    0.28102E+00   -0.16403E+01 15568   0.617E+00    0.171E+00
RMM:   2    -0.692374217223E+03   -0.25051E+00   -0.45981E-01 14851   0.111E+00    0.697E+00
RMM:   3    -0.692203955839E+03    0.17026E+00   -0.75050E-02 14951   0.505E-01    0.316E+00
RMM:   4    -0.692212866076E+03   -0.89102E-02   -0.28598E-02 14872   0.317E-01    0.345E+00
RMM:   5    -0.692160892685E+03    0.51973E-01   -0.11504E-02 14985   0.199E-01    0.202E+00
RMM:   6    -0.692151332087E+03    0.95606E-02   -0.61187E-03 15318   0.113E-01    0.142E+00
RMM:   7    -0.692143123020E+03    0.82091E-02   -0.35906E-03 14885   0.955E-02    0.779E-01
RMM:   8    -0.692142758143E+03    0.36488E-03   -0.27922E-03 14986   0.865E-02    0.567E-01
RMM:   9    -0.692142174261E+03    0.58388E-03   -0.11657E-03 13903   0.660E-02    0.432E-01
RMM:  10    -0.692141925303E+03    0.24896E-03   -0.32480E-04 11322   0.367E-02    0.344E-01
RMM:  11    -0.692141689863E+03    0.23544E-03   -0.12513E-04  9077   0.216E-02    0.253E-01
RMM:  12    -0.692141590034E+03    0.99829E-04   -0.70203E-05  8820   0.148E-02
   9 F= -.69214159E+03 E0= -.69156689E+03  d E =0.263121E+00  mag=     3.9346
 trial-energy change:    0.263121  1 .order    0.110358   -0.208037    0.428753
 step:   0.1311(harm=  0.1311)  dis= 0.01076  next Energy=  -692.438694 (dE=-0.340E-01)
 bond charge predicted
       N       E                     dE             d eps       ncg     rms          rms(c)
DAV:   1    -0.692398337927E+03   -0.25665E+00   -0.74192E+00 15248   0.410E+00    0.112E+00
RMM:   2    -0.692542087808E+03   -0.14375E+00   -0.19207E-01 14848   0.714E-01    0.494E+00
RMM:   3    -0.692422541181E+03    0.11955E+00   -0.31874E-02 14870   0.340E-01    0.176E+00
RMM:   4    -0.692427116763E+03   -0.45756E-02   -0.11941E-02 14895   0.206E-01    0.188E+00
RMM:   5    -0.692413656168E+03    0.13461E-01   -0.37283E-03 14635   0.122E-01    0.121E+00
RMM:   6    -0.692411543575E+03    0.21126E-02   -0.22016E-03 14542   0.731E-02    0.967E-01
RMM:   7    -0.692407784531E+03    0.37590E-02   -0.22299E-03 15051   0.735E-02    0.494E-01
RMM:   8    -0.692407206489E+03    0.57804E-03   -0.10956E-03 13900   0.554E-02    0.296E-01
RMM:   9    -0.692407071127E+03    0.13536E-03   -0.35482E-04 11775   0.375E-02    0.198E-01
RMM:  10    -0.692407034750E+03    0.36377E-04   -0.12058E-04  8909   0.221E-02
  10 F= -.69240703E+03 E0= -.69183332E+03  d E =-.232371E-02  mag=     3.9326
 curvature:  -0.07 expect dE=-0.836E-01 dE for cont linesearch -0.298E-01
 ZBRENT: interpolating
 opt :   0.0677  next Energy=  -692.422431 (dE=-0.177E-01)
 bond charge predicted
       N       E                     dE             d eps       ncg     rms          rms(c)
DAV:   1    -0.692422339767E+03   -0.15269E-01   -0.41125E-01 15488   0.974E-01    0.290E-01
RMM:   2    -0.692423441555E+03   -0.11018E-02   -0.11203E-02 14812   0.175E-01    0.426E-01
RMM:   3    -0.692423334434E+03    0.10712E-03   -0.16479E-03 14290   0.785E-02    0.258E-01
RMM:   4    -0.692423322510E+03    0.11924E-04   -0.51163E-04 12376   0.449E-02    0.257E-01
RMM:   5    -0.692423243256E+03    0.79254E-04   -0.20262E-04  9555   0.255E-02    0.193E-01
RMM:   6    -0.692424475050E+03   -0.12318E-02   -0.18947E-04  9422   0.216E-02    0.488E-01
RMM:   7    -0.692422991956E+03    0.14831E-02   -0.10473E-04  8576   0.215E-02    0.908E-02
RMM:   8    -0.692423057925E+03   -0.65970E-04   -0.55350E-05  8345   0.136E-02
  11 F= -.69242306E+03 E0= -.69184932E+03  d E =-.183469E-01  mag=     3.9313
 curvature:  -0.03 expect dE=-0.874E-02 dE for cont linesearch -0.110E-06
 trial: gam= 0.50699 g(F)=  0.257E+00 g(S)=  0.000E+00 ort =-0.130E-02 (trialstep = 0.335E+00)
 search vector abs. value=  0.390E+00
 bond charge predicted
       N       E                     dE             d eps       ncg     rms          rms(c)
DAV:   1    -0.692356635052E+03    0.66357E-01   -0.59811E+00 15296   0.373E+00    0.917E-01
RMM:   2    -0.692402157300E+03   -0.45522E-01   -0.13714E-01 14848   0.678E-01    0.266E+00
RMM:   3    -0.692392706788E+03    0.94505E-02   -0.29367E-02 15343   0.287E-01    0.212E+00
RMM:   4    -0.692371156521E+03    0.21550E-01   -0.85914E-03 14942   0.175E-01    0.959E-01
RMM:   5    -0.692367540002E+03    0.36165E-02   -0.34148E-03 14820   0.107E-01    0.607E-01
RMM:   6    -0.692368196203E+03   -0.65620E-03   -0.23171E-03 14348   0.760E-02    0.697E-01
RMM:   7    -0.692365699160E+03    0.24970E-02   -0.12523E-03 13900   0.670E-02    0.341E-01
RMM:   8    -0.692365583909E+03    0.11525E-03   -0.94609E-04 13641   0.488E-02    0.275E-01
RMM:   9    -0.692365484380E+03    0.99528E-04   -0.27888E-04 10816   0.336E-02
  12 F= -.69236548E+03 E0= -.69179160E+03  d E =0.575735E-01  mag=     3.9295
 trial-energy change:    0.057574  1 .order    0.062315   -0.085947    0.210578
 step:   0.1039(harm=  0.0970)  dis= 0.00981  next Energy=  -692.436538 (dE=-0.135E-01)
 bond charge predicted
       N       E                     dE             d eps       ncg     rms          rms(c)
DAV:   1    -0.692432165366E+03   -0.66581E-01   -0.28541E+00 15376   0.254E+00    0.613E-01
RMM:   2    -0.692443226481E+03   -0.11061E-01   -0.62494E-02 14848   0.461E-01    0.130E+00
RMM:   3    -0.692452622927E+03   -0.93964E-02   -0.13147E-02 15379   0.193E-01    0.164E+00
RMM:   4    -0.692439763199E+03    0.12860E-01   -0.39047E-03 14950   0.116E-01    0.802E-01
RMM:   5    -0.692437182521E+03    0.25807E-02   -0.15011E-03 14011   0.750E-02    0.457E-01
RMM:   6    -0.692437201277E+03   -0.18757E-04   -0.10118E-03 13711   0.531E-02    0.435E-01
RMM:   7    -0.692436686189E+03    0.51509E-03   -0.66173E-04 13067   0.479E-02    0.294E-01
RMM:   8    -0.692436413002E+03    0.27319E-03   -0.35045E-04 11313   0.323E-02    0.191E-01
RMM:   9    -0.692436449356E+03   -0.36355E-04   -0.16410E-04  9242   0.241E-02
  13 F= -.69243645E+03 E0= -.69186267E+03  d E =-.133914E-01  mag=     3.9281
 curvature:  -0.07 expect dE=-0.295E-01 dE for cont linesearch -0.913E-04
 trial: gam= 1.46347 g(F)=  0.401E+00 g(S)=  0.000E+00 ort =-0.220E-01 (trialstep = 0.960E-01)
 search vector abs. value=  0.117E+01
 bond charge predicted
       N       E                     dE             d eps       ncg     rms          rms(c)
DAV:   1    -0.692458314418E+03   -0.21901E-01   -0.19242E+00 15328   0.188E+00    0.419E-01
RMM:   2    -0.692468348400E+03   -0.10034E-01   -0.38763E-02 14848   0.320E-01    0.143E+00
RMM:   3    -0.692465108269E+03    0.32401E-02   -0.77056E-03 16139   0.125E-01    0.103E+00
RMM:   4    -0.692475414789E+03   -0.10307E-01   -0.17774E-03 14265   0.686E-02    0.159E+00
RMM:   5    -0.692461339113E+03    0.14076E-01   -0.11879E-03 13959   0.595E-02    0.554E-01
RMM:   6    -0.692462119264E+03   -0.78015E-03   -0.71451E-04 12545   0.452E-02    0.635E-01
RMM:   7    -0.692462889111E+03   -0.76985E-03   -0.60557E-04 12173   0.384E-02    0.656E-01
RMM:   8    -0.692461914051E+03    0.97506E-03   -0.39213E-04 11494   0.323E-02    0.436E-01
RMM:   9    -0.692461717949E+03    0.19610E-03   -0.89949E-05  8545   0.181E-02    0.348E-01
RMM:  10    -0.692461638850E+03    0.79099E-04   -0.27991E-05  8051   0.109E-02
  14 F= -.69246164E+03 E0= -.69188807E+03  d E =-.251895E-01  mag=     3.9256
 trial-energy change:   -0.025189  1 .order    0.003275   -0.035433    0.041983
 step:   0.0772(harm=  0.0439)  dis= 0.01404  next Energy=  -692.465529 (dE=-0.291E-01)
 bond charge predicted
       N       E                     dE             d eps       ncg     rms          rms(c)
DAV:   1    -0.692464959897E+03   -0.32419E-02   -0.73217E-02 15552   0.363E-01    0.280E-01
RMM:   2    -0.692475089065E+03   -0.10129E-01   -0.23633E-03 14225   0.741E-02    0.124E+00
RMM:   3    -0.692469847585E+03    0.52415E-02   -0.12844E-03 14019   0.664E-02    0.927E-01
RMM:   4    -0.692465669523E+03    0.41781E-02   -0.50222E-04 12001   0.467E-02    0.402E-01
RMM:   5    -0.692464947758E+03    0.72177E-03   -0.19067E-04  8995   0.258E-02    0.156E-01
RMM:   6    -0.692464975077E+03   -0.27319E-04   -0.77467E-05  8214   0.156E-02    0.115E-01
RMM:   7    -0.692464919842E+03    0.55235E-04   -0.32807E-05  7970   0.124E-02    0.473E-02
RMM:   8    -0.692464931092E+03   -0.11250E-04   -0.11397E-05  6914   0.622E-03
  15 F= -.69246493E+03 E0= -.69189117E+03  d E =-.284817E-01  mag=     3.9243
 curvature:  -0.04 expect dE=-0.122E-01 dE for cont linesearch -0.136E-03
 ZBRENT: interpolating
 opt :   0.0795  next Energy=  -692.465004 (dE=-0.286E-01)
 bond charge predicted
       N       E                     dE             d eps       ncg     rms          rms(c)
DAV:   1    -0.692465014551E+03   -0.94709E-04   -0.11943E-03 14832   0.482E-02    0.432E-02
RMM:   2    -0.692466111642E+03   -0.10971E-02   -0.11436E-04  8276   0.154E-02    0.413E-01
RMM:   3    -0.692464981225E+03    0.11304E-02   -0.80148E-05  7997   0.188E-02    0.710E-02
RMM:   4    -0.692465024327E+03   -0.43102E-04   -0.17970E-05  7198   0.903E-03    0.453E-02
RMM:   5    -0.692465017166E+03    0.71609E-05   -0.42537E-06  6196   0.486E-03    0.320E-02
RMM:   6    -0.692465014604E+03    0.25621E-05   -0.13046E-06  3898   0.327E-03    0.164E-02
RMM:   7    -0.692465014347E+03    0.25654E-06   -0.15261E-07  1841   0.269E-03    0.772E-03
RMM:   8    -0.692465015539E+03   -0.11913E-05   -0.90361E-09  1370   0.250E-03
  16 F= -.69246502E+03 E0= -.69189121E+03  d E =-.285662E-01  mag=     3.9231
 curvature:  -0.02 expect dE=-0.633E-02 dE for cont linesearch -0.196E-05
 trial: gam= 0.15677 g(F)=  0.288E+00 g(S)=  0.000E+00 ort = 0.102E-01 (trialstep = 0.927E-01)
 search vector abs. value=  0.320E+00
 bond charge predicted
       N       E                     dE             d eps       ncg     rms          rms(c)
DAV:   1    -0.692460460696E+03    0.45537E-02   -0.64532E-01 15264   0.120E+00    0.250E-01
RMM:   2    -0.692473717934E+03   -0.13257E-01   -0.15774E-02 14845   0.226E-01    0.154E+00
RMM:   3    -0.692461762371E+03    0.11956E-01   -0.26018E-03 14866   0.955E-02    0.494E-01
RMM:   4    -0.692464853635E+03   -0.30913E-02   -0.74195E-04 13482   0.519E-02    0.803E-01
RMM:   5    -0.692462529506E+03    0.23241E-02   -0.41035E-04 11183   0.359E-02    0.540E-01
RMM:   6    -0.692461869349E+03    0.66016E-03   -0.24066E-04  9987   0.251E-02    0.370E-01
RMM:   7    -0.692461575128E+03    0.29422E-03   -0.17435E-04  9229   0.227E-02    0.219E-01
RMM:   8    -0.692461580860E+03   -0.57325E-05   -0.95523E-05  8537   0.178E-02
  17 F= -.69246158E+03 E0= -.69188799E+03  d E =0.343468E-02  mag=     3.9214
 trial-energy change:    0.003435  1 .order    0.001929   -0.026812    0.030670
 step:   0.0397(harm=  0.0432)  dis= 0.00256  next Energy=  -692.470635 (dE=-0.562E-02)
 bond charge predicted
       N       E                     dE             d eps       ncg     rms          rms(c)
DAV:   1    -0.692470659657E+03   -0.90845E-02   -0.21158E-01 15488   0.689E-01    0.211E-01
RMM:   2    -0.692484897621E+03   -0.14238E-01   -0.65067E-03 14842   0.138E-01    0.160E+00
RMM:   3    -0.692471326264E+03    0.13571E-01   -0.13225E-03 14204   0.741E-02    0.413E-01
RMM:   4    -0.692471577040E+03   -0.25078E-03   -0.39837E-04 11539   0.414E-02    0.386E-01
RMM:   5    -0.692471234100E+03    0.34294E-03   -0.14925E-04  8876   0.233E-02    0.304E-01
RMM:   6    -0.692471006803E+03    0.22730E-03   -0.10898E-04  8473   0.176E-02    0.219E-01
RMM:   7    -0.692470912751E+03    0.94051E-04   -0.51144E-05  8108   0.135E-02    0.130E-01
RMM:   8    -0.692470899159E+03    0.13593E-04   -0.54404E-05  8017   0.120E-02
  18 F= -.69247090E+03 E0= -.69189703E+03  d E =-.588362E-02  mag=     3.9214
 curvature:  -0.02 expect dE=-0.302E-02 dE for cont linesearch -0.489E-06
 trial: gam= 0.30155 g(F)=  0.127E+00 g(S)=  0.000E+00 ort = 0.256E-02 (trialstep = 0.821E-01)
 search vector abs. value=  0.158E+00
 bond charge predicted
       N       E                     dE             d eps       ncg     rms          rms(c)
DAV:   1    -0.692475151491E+03   -0.42387E-02   -0.20544E-01 15600   0.673E-01    0.132E-01
RMM:   2    -0.692480651576E+03   -0.55001E-02   -0.46567E-03 14848   0.142E-01    0.918E-01
RMM:   3    -0.692475685899E+03    0.49657E-02   -0.94378E-04 13751   0.578E-02    0.276E-01
RMM:   4    -0.692475936270E+03   -0.25037E-03   -0.27606E-04 10262   0.303E-02    0.290E-01
RMM:   5    -0.692475617793E+03    0.31848E-03   -0.11754E-04  8704   0.220E-02    0.181E-01
RMM:   6    -0.692475581251E+03    0.36542E-04   -0.71630E-05  8519   0.165E-02    0.119E-01
RMM:   7    -0.692475574360E+03    0.68912E-05   -0.62154E-05  8330   0.144E-02    0.832E-02
RMM:   8    -0.692475581463E+03   -0.71039E-05   -0.30071E-05  7816   0.109E-02
  19 F= -.69247558E+03 E0= -.69190191E+03  d E =-.468230E-02  mag=     3.9214
 trial-energy change:   -0.004682  1 .order   -0.004697   -0.010488    0.001095
 step:   0.0743(harm=  0.0743)  dis= 0.00129  next Energy=  -692.475648 (dE=-0.475E-02)
 bond charge predicted
       N       E                     dE             d eps       ncg     rms          rms(c)
DAV:   1    -0.692475608935E+03   -0.34576E-04   -0.19576E-03 14960   0.692E-02    0.425E-02
RMM:   2    -0.692476772719E+03   -0.11638E-02   -0.18338E-04  8854   0.217E-02    0.414E-01
RMM:   3    -0.692475596112E+03    0.11766E-02   -0.79031E-05  7999   0.197E-02    0.939E-02
RMM:   4    -0.692475611141E+03   -0.15029E-04   -0.20545E-05  7692   0.906E-03    0.395E-02
RMM:   5    -0.692475615163E+03   -0.40221E-05   -0.51958E-06  6474   0.511E-03    0.247E-02
RMM:   6    -0.692475615923E+03   -0.76000E-06   -0.18690E-06  4188   0.324E-03    0.152E-02
RMM:   7    -0.692475620918E+03   -0.49958E-05   -0.10801E-06  3725   0.316E-03    0.161E-02
RMM:   8    -0.692475627728E+03   -0.68094E-05   -0.19235E-06  4199   0.333E-03
  20 F= -.69247563E+03 E0= -.69190198E+03  d E =-.472857E-02  mag=     3.9215
 curvature:  -0.05 expect dE=-0.186E-02 dE for cont linesearch -0.693E-08
 trial: gam= 0.30991 g(F)=  0.407E-01 g(S)=  0.000E+00 ort = 0.154E-03 (trialstep = 0.805E-01)
 search vector abs. value=  0.559E-01
 bond charge predicted
       N       E                     dE             d eps       ncg     rms          rms(c)
DAV:   1    -0.692476763913E+03   -0.11430E-02   -0.59712E-02 15520   0.352E-01    0.594E-02
RMM:   2    -0.692477002854E+03   -0.23894E-03   -0.10925E-03 13540   0.600E-02    0.173E-01
RMM:   3    -0.692476854042E+03    0.14881E-03   -0.22446E-04  9265   0.256E-02    0.544E-02
RMM:   4    -0.692476965805E+03   -0.11176E-03   -0.55568E-05  8125   0.159E-02    0.142E-01
RMM:   5    -0.692476874134E+03    0.91671E-04   -0.20067E-05  7837   0.930E-03    0.815E-02
RMM:   6    -0.692476859526E+03    0.14608E-04   -0.13184E-05  7300   0.660E-03    0.493E-02
RMM:   7    -0.692476859244E+03    0.28213E-06   -0.91913E-06  7092   0.596E-03    0.266E-02
RMM:   8    -0.692476864375E+03   -0.51312E-05   -0.48172E-06  6090   0.443E-03
  21 F= -.69247686E+03 E0= -.69190331E+03  d E =-.123665E-02  mag=     3.9216
 trial-energy change:   -0.001237  1 .order   -0.001194   -0.003278    0.000889
 step:   0.0633(harm=  0.0633)  dis= 0.00127  next Energy=  -692.476917 (dE=-0.129E-02)
 bond charge predicted
       N       E                     dE             d eps       ncg     rms          rms(c)
DAV:   1    -0.692476953397E+03   -0.94153E-04   -0.27490E-03 15136   0.759E-02    0.236E-02
RMM:   2    -0.692477353694E+03   -0.40030E-03   -0.86354E-05  7994   0.156E-02    0.250E-01
RMM:   3    -0.692476925152E+03    0.42854E-03   -0.29892E-05  7933   0.124E-02    0.274E-02
RMM:   4    -0.692476955912E+03   -0.30760E-04   -0.72036E-06  6952   0.556E-03    0.212E-02
RMM:   5    -0.692476959342E+03   -0.34303E-05   -0.16015E-06  4568   0.341E-03    0.146E-02
RMM:   6    -0.692476959636E+03   -0.29395E-06   -0.44476E-07  2381   0.277E-03    0.105E-02
RMM:   7    -0.692476961643E+03   -0.20073E-05   -0.48741E-07  2288   0.280E-03    0.836E-03
RMM:   8    -0.692476962377E+03   -0.73330E-06   -0.65293E-07  2312   0.286E-03
  22 F= -.69247696E+03 E0= -.69190340E+03  d E =-.133465E-02  mag=     3.9218
 curvature:  -0.04 expect dE=-0.117E-02 dE for cont linesearch -0.243E-07
 trial: gam= 0.67615 g(F)=  0.270E-01 g(S)=  0.000E+00 ort = 0.177E-03 (trialstep = 0.771E-01)
 search vector abs. value=  0.528E-01
 bond charge predicted
       N       E                     dE             d eps       ncg     rms          rms(c)
DAV:   1    -0.692478807300E+03   -0.18457E-02   -0.32578E-02 15552   0.208E-01    0.487E-02
RMM:   2    -0.692479088014E+03   -0.28071E-03   -0.63812E-04 11525   0.420E-02    0.204E-01
RMM:   3    -0.692478851530E+03    0.23648E-03   -0.11868E-04  8526   0.194E-02    0.764E-02
RMM:   4    -0.692478859582E+03   -0.80515E-05   -0.33186E-05  7852   0.123E-02    0.527E-02
RMM:   5    -0.692478849714E+03    0.98675E-05   -0.16258E-05  7118   0.746E-03    0.405E-02
RMM:   6    -0.692478850381E+03   -0.66681E-06   -0.17768E-05  7432   0.675E-03    0.464E-02
RMM:   7    -0.692478838324E+03    0.12057E-04   -0.90886E-06  6825   0.580E-03    0.225E-02
RMM:   8    -0.692478834439E+03    0.38848E-05   -0.38285E-06  5320   0.404E-03
  23 F= -.69247883E+03 E0= -.69190539E+03  d E =-.187206E-02  mag=     3.9221
 ZBRENT: can't locate minimum, use default step
 trial-energy change:   -0.001872  1 .order   -0.001861   -0.002092   -0.001629
 step:   0.3083(harm=  0.3483)  dis= 0.00900  next Energy=  -692.481688 (dE=-0.473E-02)
 bond charge predicted
       N       E                     dE             d eps       ncg     rms          rms(c)
DAV:   1    -0.692478352681E+03    0.48564E-03   -0.29406E-01 15600   0.627E-01    0.155E-01
RMM:   2    -0.692479489931E+03   -0.11373E-02   -0.56410E-03 14597   0.126E-01    0.376E-01
RMM:   3    -0.692480035115E+03   -0.54518E-03   -0.11306E-03 13885   0.542E-02    0.454E-01
RMM:   4    -0.692478826618E+03    0.12085E-02   -0.31490E-04 10510   0.324E-02    0.168E-01
RMM:   5    -0.692478756720E+03    0.69898E-04   -0.13830E-04  8753   0.232E-02    0.843E-02
RMM:   6    -0.692478749792E+03    0.69285E-05   -0.14131E-04  8795   0.180E-02    0.978E-02
RMM:   7    -0.692478705387E+03    0.44405E-04   -0.72289E-05  8247   0.155E-02    0.665E-02
RMM:   8    -0.692478682755E+03    0.22632E-04   -0.32582E-05  7742   0.108E-02
  24 F= -.69247868E+03 E0= -.69190556E+03  d E =-.172038E-02  mag=     3.9230
 curvature:  -0.33 expect dE=-0.851E-01 dE for cont linesearch -0.941E-02
 ZBRENT: interpolating
 opt :   0.1587  next Energy=  -692.479697 (dE=-0.273E-02)
 bond charge predicted
       N       E                     dE             d eps       ncg     rms          rms(c)
DAV:   1    -0.692480093698E+03   -0.13883E-02   -0.12356E-01 15568   0.409E-01    0.119E-01
RMM:   2    -0.692480647228E+03   -0.55353E-03   -0.24196E-03 13900   0.830E-02    0.283E-01
RMM:   3    -0.692481233011E+03   -0.58578E-03   -0.49834E-04 11845   0.384E-02    0.400E-01
RMM:   4    -0.692480278440E+03    0.95457E-03   -0.18236E-04  8969   0.260E-02    0.129E-01
RMM:   5    -0.692480238888E+03    0.39553E-04   -0.62058E-05  8246   0.168E-02    0.521E-02
RMM:   6    -0.692480274797E+03   -0.35910E-04   -0.70508E-05  8200   0.129E-02    0.970E-02
RMM:   7    -0.692480241698E+03    0.33099E-04   -0.41403E-05  7824   0.117E-02    0.384E-02
RMM:   8    -0.692480250847E+03   -0.91491E-05   -0.18861E-05  7263   0.782E-03
  25 F= -.69248025E+03 E0= -.69190691E+03  d E =-.328847E-02  mag=     3.9234
 curvature:  -0.03 expect dE=-0.211E-02 dE for cont linesearch -0.783E-04
 ZBRENT: interpolating
 opt :   0.2360  next Energy=  -692.480806 (dE=-0.384E-02)
 bond charge predicted
       N       E                     dE             d eps       ncg     rms          rms(c)
DAV:   1    -0.692480401589E+03   -0.15989E-03   -0.33068E-02 15536   0.211E-01    0.563E-02
RMM:   2    -0.692480583994E+03   -0.18240E-03   -0.64889E-04 11505   0.432E-02    0.160E-01
RMM:   3    -0.692480611057E+03   -0.27063E-04   -0.13174E-04  8608   0.204E-02    0.170E-01
RMM:   4    -0.692480449285E+03    0.16177E-03   -0.43999E-05  8044   0.144E-02    0.565E-02
RMM:   5    -0.692480444798E+03    0.44864E-05   -0.15160E-05  7338   0.770E-03    0.263E-02
RMM:   6    -0.692480448983E+03   -0.41844E-05   -0.24466E-05  7471   0.739E-03    0.489E-02
RMM:   7    -0.692480436410E+03    0.12572E-04   -0.95110E-06  6634   0.621E-03    0.172E-02
RMM:   8    -0.692480432573E+03    0.38378E-05   -0.35383E-06  4780   0.382E-03
  26 F= -.69248043E+03 E0= -.69190720E+03  d E =-.347020E-02  mag=     3.9239
 curvature:  -0.22 expect dE=-0.293E-01 dE for cont linesearch -0.353E-03
 ZBRENT: interpolating
 opt :   0.2017  next Energy=  -692.480592 (dE=-0.363E-02)
 bond charge predicted
       N       E                     dE             d eps       ncg     rms          rms(c)
DAV:   1    -0.692480542512E+03   -0.10610E-03   -0.64997E-03 15536   0.937E-02    0.278E-02
RMM:   2    -0.692480658659E+03   -0.11615E-03   -0.13547E-04  8472   0.196E-02    0.136E-01
RMM:   3    -0.692480563424E+03    0.95234E-04   -0.29868E-05  7794   0.111E-02    0.631E-02
RMM:   4    -0.692480553901E+03    0.95232E-05   -0.84365E-06  6862   0.642E-03    0.236E-02
RMM:   5    -0.692480551116E+03    0.27854E-05   -0.24358E-06  4829   0.367E-03    0.119E-02
RMM:   6    -0.692480556820E+03   -0.57044E-05   -0.32023E-06  4400   0.355E-03    0.250E-02
RMM:   7    -0.692480556040E+03    0.78047E-06   -0.12995E-06  3391   0.322E-03    0.111E-02
RMM:   8    -0.692480558684E+03   -0.26439E-05   -0.14959E-06  2990   0.307E-03
  27 F= -.69248056E+03 E0= -.69190728E+03  d E =-.359631E-02  mag=     3.9243
 curvature:  -0.10 expect dE=-0.990E-02 dE for cont linesearch -0.671E-05
 trial: gam= 3.60650 g(F)=  0.102E+00 g(S)=  0.000E+00 ort = 0.191E-02 (trialstep = 0.671E-02)
 search vector abs. value=  0.802E+00
 bond charge predicted
       N       E                     dE             d eps       ncg     rms          rms(c)
DAV:   1    -0.692481201043E+03   -0.64500E-03   -0.36462E-03 15504   0.652E-02    0.200E-02
RMM:   2    -0.692481208953E+03   -0.79098E-05   -0.75209E-05  7870   0.143E-02    0.269E-02
RMM:   3    -0.692481209196E+03   -0.24333E-06   -0.11075E-05  6795   0.696E-03    0.231E-02
RMM:   4    -0.692481221838E+03   -0.12642E-04   -0.32966E-06  5080   0.393E-03    0.503E-02
RMM:   5    -0.692481207363E+03    0.14474E-04   -0.13096E-06  3908   0.325E-03    0.168E-02
RMM:   6    -0.692481207358E+03    0.53260E-08   -0.19942E-06  3945   0.332E-03    0.157E-02
RMM:   7    -0.692481206873E+03    0.48441E-06   -0.20260E-06  3651   0.331E-03    0.744E-03
RMM:   8    -0.692481206543E+03    0.33054E-06   -0.17019E-07  1481   0.271E-03
  28 F= -.69248121E+03 E0= -.69190797E+03  d E =-.647859E-03  mag=     3.9248
 trial-energy change:   -0.000648  1 .order   -0.000637   -0.000729   -0.000545
 step:   0.0266(harm=  0.0266)  dis= 0.00317  next Energy=  -692.482001 (dE=-0.144E-02)
 bond charge predicted
       N       E                     dE             d eps       ncg     rms          rms(c)
DAV:   1    -0.692481788103E+03   -0.58123E-03   -0.32000E-02 15360   0.193E-01    0.629E-02
RMM:   2    -0.692481838126E+03   -0.50023E-04   -0.64062E-04 11326   0.414E-02    0.635E-02
RMM:   3    -0.692481857317E+03   -0.19191E-04   -0.94818E-05  8299   0.172E-02    0.719E-02
RMM:   4    -0.692482011591E+03   -0.15427E-03   -0.40700E-05  7802   0.118E-02    0.177E-01
RMM:   5    -0.692481833369E+03    0.17822E-03   -0.22984E-05  7755   0.937E-03    0.668E-02
RMM:   6    -0.692481828475E+03    0.48940E-05   -0.17661E-05  7374   0.775E-03    0.431E-02
RMM:   7    -0.692481818707E+03    0.97676E-05   -0.11104E-05  6939   0.642E-03    0.156E-02
RMM:   8    -0.692481815739E+03    0.29684E-05   -0.27336E-06  4813   0.383E-03
  29 F= -.69248182E+03 E0= -.69190870E+03  d E =-.125705E-02  mag=     3.9255
 curvature:  -0.10 expect dE=-0.648E-02 dE for cont linesearch -0.598E-04
 ZBRENT: interpolating
 opt :   0.0223  next Energy=  -692.481863 (dE=-0.130E-02)
 bond charge predicted
       N       E                     dE             d eps       ncg     rms          rms(c)
DAV:   1    -0.692481854346E+03   -0.35639E-04   -0.14689E-03 15424   0.415E-02    0.144E-02
RMM:   2    -0.692481859666E+03   -0.53197E-05   -0.31475E-05  7348   0.957E-03    0.301E-02
RMM:   3    -0.692481860276E+03   -0.61032E-06   -0.51476E-06  5714   0.492E-03    0.265E-02
RMM:   4    -0.692481861642E+03   -0.13656E-05   -0.92645E-07  3231   0.300E-03    0.305E-02
RMM:   5    -0.692481858590E+03    0.30516E-05   -0.53333E-07  2588   0.281E-03    0.149E-02
RMM:   6    -0.692481859273E+03   -0.68297E-06   -0.13299E-06  3108   0.305E-03    0.123E-02
RMM:   7    -0.692481861413E+03   -0.21391E-05   -0.13407E-06  2834   0.306E-03    0.373E-03
RMM:   8    -0.692481862789E+03   -0.13760E-05   -0.63745E-08  1338   0.266E-03
  30 F= -.69248186E+03 E0= -.69190871E+03  d E =-.130410E-02  mag=     3.9259
 curvature:  -0.08 expect dE=-0.506E-02 dE for cont linesearch -0.955E-07
 trial: gam=-0.03690 g(F)=  0.656E-01 g(S)=  0.000E+00 ort = 0.997E-03 (trialstep = 0.984E-02)
 search vector abs. value=  0.666E-01
 bond charge predicted
       N       E                     dE             d eps       ncg     rms          rms(c)
DAV:   1    -0.692482421180E+03   -0.55977E-03   -0.14145E-03 15040   0.550E-02    0.184E-02
RMM:   2    -0.692482436716E+03   -0.15537E-04   -0.49791E-05  7618   0.107E-02    0.628E-02
RMM:   3    -0.692482435663E+03    0.10533E-05   -0.81129E-06  6530   0.600E-03    0.492E-02
RMM:   4    -0.692482428119E+03    0.75436E-05   -0.18772E-06  4467   0.343E-03    0.346E-02
RMM:   5    -0.692482424516E+03    0.36035E-05   -0.76549E-07  2485   0.287E-03    0.238E-02
RMM:   6    -0.692482424201E+03    0.31489E-06   -0.31990E-07  1486   0.266E-03    0.187E-02
RMM:   7    -0.692482424332E+03   -0.13164E-06   -0.73714E-07  1977   0.283E-03    0.108E-02
RMM:   8    -0.692482424818E+03   -0.48536E-06   -0.18871E-07  1408   0.269E-03
  31 F= -.69248242E+03 E0= -.69190928E+03  d E =-.562029E-03  mag=     3.9264
 trial-energy change:   -0.000562  1 .order   -0.000559   -0.000645   -0.000473
 step:   0.0370(harm=  0.0370)  dis= 0.00078  next Energy=  -692.483075 (dE=-0.121E-02)
 bond charge predicted
       N       E                     dE             d eps       ncg     rms          rms(c)
DAV:   1    -0.692483058704E+03   -0.63437E-03   -0.10744E-02 15280   0.151E-01    0.464E-02
RMM:   2    -0.692483177498E+03   -0.11879E-03   -0.35721E-04  9214   0.290E-02    0.168E-01
RMM:   3    -0.692483130680E+03    0.46818E-04   -0.56951E-05  7979   0.147E-02    0.115E-01
RMM:   4    -0.692483106019E+03    0.24661E-04   -0.19625E-05  7677   0.911E-03    0.938E-02
RMM:   5    -0.692483075743E+03    0.30276E-04   -0.10751E-05  6703   0.637E-03    0.626E-02
RMM:   6    -0.692483064644E+03    0.11099E-04   -0.46732E-06  4811   0.416E-03    0.365E-02
RMM:   7    -0.692483063873E+03    0.77130E-06   -0.38799E-06  4645   0.379E-03    0.184E-02
RMM:   8    -0.692483065434E+03   -0.15611E-05   -0.16829E-06  3926   0.340E-03
  32 F= -.69248307E+03 E0= -.69190993E+03  d E =-.120265E-02  mag=     3.9270
 curvature:  -0.02 expect dE=-0.145E-03 dE for cont linesearch -0.439E-07
 trial: gam= 0.11959 g(F)=  0.772E-02 g(S)=  0.000E+00 ort =-0.394E-03 (trialstep = 0.153E-01)
 search vector abs. value=  0.858E-02
 bond charge predicted
       N       E                     dE             d eps       ncg     rms          rms(c)
DAV:   1    -0.692483168067E+03   -0.10419E-03   -0.38435E-04 14544   0.284E-02    0.111E-02
RMM:   2    -0.692483184492E+03   -0.16425E-04   -0.11308E-05  7692   0.624E-03    0.463E-02
RMM:   3    -0.692483175883E+03    0.86088E-05   -0.28445E-06  5774   0.408E-03    0.307E-02
RMM:   4    -0.692483172349E+03    0.35346E-05   -0.27401E-07  2392   0.272E-03    0.171E-02
RMM:   5    -0.692483172225E+03    0.12418E-06   -0.38118E-08  1381   0.241E-03    0.799E-03
RMM:   6    -0.692483173520E+03   -0.12951E-05   -0.19470E-08  1142   0.241E-03    0.756E-03
RMM:   7    -0.692483175938E+03   -0.24182E-05   -0.22020E-08  1117   0.242E-03    0.466E-03
RMM:   8    -0.692483178033E+03   -0.20952E-05   -0.38887E-08  1129   0.244E-03
  33 F= -.69248318E+03 E0= -.69191005E+03  d E =-.112599E-03  mag=     3.9274
 ZBRENT: can't locate minimum, use default step
 trial-energy change:   -0.000113  1 .order   -0.000104   -0.000117   -0.000091
 step:   0.0611(harm=  0.0687)  dis= 0.00063  next Energy=  -692.483329 (dE=-0.264E-03)
 bond charge predicted
       N       E                     dE             d eps       ncg     rms          rms(c)
DAV:   1    -0.692483328026E+03   -0.15209E-03   -0.33839E-03 15232   0.833E-02    0.144E-02
RMM:   2    -0.692483349340E+03   -0.21314E-04   -0.66078E-05  7986   0.158E-02    0.563E-02
RMM:   3    -0.692483334087E+03    0.15253E-04   -0.11282E-05  7508   0.736E-03    0.159E-02
RMM:   4    -0.692483342221E+03   -0.81336E-05   -0.31297E-06  5484   0.390E-03    0.360E-02
RMM:   5    -0.692483339423E+03    0.27978E-05   -0.81786E-07  3360   0.303E-03    0.239E-02
RMM:   6    -0.692483337814E+03    0.16085E-05   -0.16876E-07  1917   0.271E-03    0.137E-02
RMM:   7    -0.692483339218E+03   -0.14033E-05   -0.60881E-07  2406   0.290E-03    0.971E-03
RMM:   8    -0.692483339891E+03   -0.67319E-06   -0.17660E-07  1544   0.272E-03
  34 F= -.69248334E+03 E0= -.69191021E+03  d E =-.274457E-03  mag=     3.9277
 curvature:  -0.04 expect dE=-0.109E-03 dE for cont linesearch -0.255E-05
 ZBRENT: extrapolating
 opt :   0.0678  next Energy=  -692.483342 (dE=-0.277E-03)
 bond charge predicted
       N       E                     dE             d eps       ncg     rms          rms(c)
DAV:   1    -0.692483343462E+03   -0.42442E-05   -0.71701E-05  9616   0.126E-02    0.935E-03
RMM:   2    -0.692483368993E+03   -0.25532E-04   -0.74769E-06  6843   0.550E-03    0.608E-02
RMM:   3    -0.692483347532E+03    0.21461E-04   -0.25962E-06  5626   0.409E-03    0.291E-02
RMM:   4    -0.692483346306E+03    0.12267E-05   -0.15626E-07  1938   0.257E-03    0.123E-02
RMM:   5    -0.692483346903E+03   -0.59728E-06   -0.49451E-09  1064   0.240E-03    0.120E-02
RMM:   6    -0.692483347919E+03   -0.10157E-05    0.00000E+00   962   0.238E-03    0.112E-02
RMM:   7    -0.692483348579E+03   -0.66088E-06   -0.47324E-10   953   0.239E-03    0.811E-03
RMM:   8    -0.692483349845E+03   -0.12659E-05    0.00000E+00   940   0.239E-03
  35 F= -.69248335E+03 E0= -.69191022E+03  d E =-.284412E-03  mag=     3.9280
 curvature:  -0.04 expect dE=-0.135E-03 dE for cont linesearch -0.211E-07
 trial: gam= 0.45986 g(F)=  0.357E-02 g(S)=  0.000E+00 ort =-0.693E-04 (trialstep = 0.258E-01)
 search vector abs. value=  0.532E-02
 bond charge predicted
       N       E                     dE             d eps       ncg     rms          rms(c)
DAV:   1    -0.692483433369E+03   -0.84789E-04   -0.70136E-04 14896   0.324E-02    0.102E-02
RMM:   2    -0.692483436885E+03   -0.35156E-05   -0.16402E-05  7622   0.746E-03    0.260E-02
RMM:   3    -0.692483440097E+03   -0.32125E-05   -0.31559E-06  5606   0.428E-03    0.302E-02
RMM:   4    -0.692483434279E+03    0.58182E-05   -0.18527E-07  1820   0.256E-03    0.733E-03
RMM:   5    -0.692483435156E+03   -0.87704E-06   -0.15327E-07  1591   0.250E-03    0.965E-03
RMM:   6    -0.692483435457E+03   -0.30071E-06   -0.11158E-07  1196   0.250E-03    0.669E-03
RMM:   7    -0.692483436209E+03   -0.75184E-06   -0.34964E-07  1473   0.266E-03    0.562E-03
RMM:   8    -0.692483436837E+03   -0.62885E-06   -0.18081E-07  1297   0.266E-03
  36 F= -.69248344E+03 E0= -.69191033E+03  d E =-.869920E-04  mag=     3.9282
 ZBRENT: can't locate minimum, use default step
 trial-energy change:   -0.000087  1 .order   -0.000082   -0.000091   -0.000073
 step:   0.1031(harm=  0.1272)  dis= 0.00130  next Energy=  -692.483575 (dE=-0.225E-03)
 bond charge predicted
       N       E                     dE             d eps       ncg     rms          rms(c)
DAV:   1    -0.692483573930E+03   -0.13772E-03   -0.62504E-03 15504   0.967E-02    0.303E-02
RMM:   2    -0.692483649714E+03   -0.75784E-04   -0.14808E-04  8558   0.210E-02    0.115E-01
RMM:   3    -0.692483593497E+03    0.56217E-04   -0.32066E-05  7960   0.113E-02    0.717E-02
RMM:   4    -0.692483582463E+03    0.11034E-04   -0.10141E-05  6946   0.656E-03    0.398E-02
RMM:   5    -0.692483578457E+03    0.40052E-05   -0.49762E-06  5688   0.449E-03    0.287E-02
RMM:   6    -0.692483575847E+03    0.26105E-05   -0.24284E-06  4324   0.358E-03    0.178E-02
RMM:   7    -0.692483576216E+03   -0.36885E-06   -0.27139E-06  4407   0.351E-03    0.103E-02
RMM:   8    -0.692483576596E+03   -0.38061E-06   -0.79834E-07  2866   0.304E-03
  37 F= -.69248358E+03 E0= -.69191051E+03  d E =-.226751E-03  mag=     3.9284
 curvature:  -0.09 expect dE=-0.302E-03 dE for cont linesearch -0.116E-04
 ZBRENT: extrapolating
 opt :   0.1351  next Energy=  -692.483590 (dE=-0.240E-03)
 bond charge predicted
       N       E                     dE             d eps       ncg     rms          rms(c)
DAV:   1    -0.692483588467E+03   -0.12252E-04   -0.10688E-03 15120   0.402E-02    0.140E-02
RMM:   2    -0.692483634125E+03   -0.45658E-04   -0.30163E-05  7796   0.924E-03    0.881E-02
RMM:   3    -0.692483584625E+03    0.49500E-04   -0.72025E-06  6719   0.588E-03    0.249E-02
RMM:   4    -0.692483590412E+03   -0.57867E-05   -0.13892E-06  4084   0.327E-03    0.171E-02
RMM:   5    -0.692483590067E+03    0.34446E-06   -0.37325E-07  1962   0.275E-03    0.124E-02
RMM:   6    -0.692483590928E+03   -0.86093E-06   -0.30634E-07  1748   0.275E-03    0.131E-02
RMM:   7    -0.692483591353E+03   -0.42495E-06   -0.30847E-07  1549   0.277E-03    0.111E-02
RMM:   8    -0.692483591824E+03   -0.47063E-06   -0.30060E-07  1603   0.282E-03
  38 F= -.69248359E+03 E0= -.69191055E+03  d E =-.241978E-03  mag=     3.9286
 curvature:  -0.10 expect dE=-0.559E-03 dE for cont linesearch -0.120E-06
 trial: gam= 1.54710 g(F)=  0.543E-02 g(S)=  0.000E+00 ort =-0.786E-04 (trialstep = 0.141E-01)
 search vector abs. value=  0.179E-01
 bond charge predicted
       N       E                     dE             d eps       ncg     rms          rms(c)
DAV:   1    -0.692483659425E+03   -0.68072E-04   -0.71600E-04 14960   0.294E-02    0.977E-03
RMM:   2    -0.692483665004E+03   -0.55786E-05   -0.15557E-05  6939   0.685E-03    0.308E-02
RMM:   3    -0.692483661044E+03    0.39593E-05   -0.23331E-06  4595   0.379E-03    0.164E-02
RMM:   4    -0.692483663890E+03   -0.28452E-05   -0.17612E-07  1821   0.250E-03    0.228E-02
RMM:   5    -0.692483661244E+03    0.26458E-05   -0.20812E-07  1552   0.250E-03    0.125E-02
RMM:   6    -0.692483661516E+03   -0.27262E-06   -0.34662E-07  1708   0.266E-03    0.811E-03
RMM:   7    -0.692483662029E+03   -0.51282E-06   -0.43143E-07  1820   0.274E-03    0.392E-03
RMM:   8    -0.692483662256E+03   -0.22690E-06   -0.32352E-08  1078   0.257E-03
  39 F= -.69248366E+03 E0= -.69191063E+03  d E =-.704325E-04  mag=     3.9287
 ZBRENT: can't locate minimum, use default step
 trial-energy change:   -0.000070  1 .order   -0.000067   -0.000075   -0.000059
 step:   0.0566(harm=  0.0670)  dis= 0.00141  next Energy=  -692.483769 (dE=-0.178E-03)
 bond charge predicted
       N       E                     dE             d eps       ncg     rms          rms(c)
DAV:   1    -0.692483770879E+03   -0.10885E-03   -0.63426E-03 15520   0.866E-02    0.286E-02
RMM:   2    -0.692483791396E+03   -0.20517E-04   -0.12602E-04  8391   0.186E-02    0.688E-02
RMM:   3    -0.692483780234E+03    0.11162E-04   -0.21058E-05  7330   0.912E-03    0.395E-02
RMM:   4    -0.692483815860E+03   -0.35626E-04   -0.76791E-06  6267   0.518E-03    0.849E-02
RMM:   5    -0.692483773804E+03    0.42056E-04   -0.73239E-06  6339   0.522E-03    0.412E-02
RMM:   6    -0.692483773937E+03   -0.13307E-06   -0.45848E-06  5694   0.431E-03    0.225E-02
RMM:   7    -0.692483774051E+03   -0.11351E-06   -0.37282E-06  5120   0.380E-03    0.127E-02
RMM:   8    -0.692483773413E+03    0.63769E-06   -0.52095E-07  2618   0.300E-03
  40 F= -.69248377E+03 E0= -.69191078E+03  d E =-.181589E-03  mag=     3.9290
 curvature:  -0.11 expect dE=-0.263E-03 dE for cont linesearch -0.469E-05
 ZBRENT: extrapolating
 opt :   0.0679  next Energy=  -692.483778 (dE=-0.187E-03)
 bond charge predicted
       N       E                     dE             d eps       ncg     rms          rms(c)
DAV:   1    -0.692483777354E+03   -0.33034E-05   -0.44837E-04 14752   0.235E-02    0.120E-02
RMM:   2    -0.692483781146E+03   -0.37920E-05   -0.11658E-05  6546   0.583E-03    0.241E-02
RMM:   3    -0.692483786811E+03   -0.56653E-05   -0.25602E-06  4919   0.383E-03    0.405E-02
RMM:   4    -0.692483777570E+03    0.92417E-05   -0.25321E-07  2339   0.271E-03    0.143E-02
RMM:   5    -0.692483779119E+03   -0.15492E-05   -0.10090E-07  1426   0.252E-03    0.135E-02
RMM:   6    -0.692483779312E+03   -0.19271E-06   -0.25439E-07  1508   0.262E-03    0.104E-02
RMM:   7    -0.692483779304E+03    0.73778E-08   -0.92683E-09  1150   0.249E-03    0.669E-03
RMM:   8    -0.692483779505E+03   -0.20028E-06   -0.22055E-10  1002   0.245E-03
  41 F= -.69248378E+03 E0= -.69191080E+03  d E =-.187681E-03  mag=     3.9292
 curvature:  -0.12 expect dE=-0.327E-03 dE for cont linesearch -0.102E-06
 trial: gam= 0.32150 g(F)=  0.284E-02 g(S)=  0.000E+00 ort =-0.126E-03 (trialstep = 0.249E-01)
 search vector abs. value=  0.461E-02
 bond charge predicted
       N       E                     dE             d eps       ncg     rms          rms(c)
DAV:   1    -0.692483838529E+03   -0.59225E-04   -0.54925E-04 14512   0.313E-02    0.695E-03
RMM:   2    -0.692483853179E+03   -0.14650E-04   -0.13168E-05  7683   0.725E-03    0.493E-02
RMM:   3    -0.692483837716E+03    0.15463E-04   -0.23142E-06  5439   0.391E-03    0.114E-02
RMM:   4    -0.692483840533E+03   -0.28164E-05   -0.40397E-08  1523   0.241E-03    0.121E-02
RMM:   5    -0.692483840098E+03    0.43435E-06   -0.16420E-08  1216   0.239E-03    0.745E-03
RMM:   6    -0.692483840213E+03   -0.11410E-06   -0.17145E-08  1175   0.240E-03    0.464E-03
RMM:   7    -0.692483840704E+03   -0.49119E-06   -0.10798E-07  1298   0.254E-03    0.525E-03
RMM:   8    -0.692483840886E+03   -0.18228E-06   -0.45353E-08  1090   0.254E-03
  42 F= -.69248384E+03 E0= -.69191088E+03  d E =-.613815E-04  mag=     3.9293
 trial-energy change:   -0.000061  1 .order   -0.000058   -0.000070   -0.000047
 step:   0.0764(harm=  0.0764)  dis= 0.00062  next Energy=  -692.483886 (dE=-0.107E-03)
 bond charge predicted
       N       E                     dE             d eps       ncg     rms          rms(c)
DAV:   1    -0.692483892074E+03   -0.51370E-04   -0.23302E-03 15296   0.644E-02    0.135E-02
RMM:   2    -0.692483908983E+03   -0.16909E-04   -0.48588E-05  7923   0.140E-02    0.509E-02
RMM:   3    -0.692483894143E+03    0.14840E-04   -0.90464E-06  7340   0.672E-03    0.152E-02
RMM:   4    -0.692483900040E+03   -0.58963E-05   -0.23820E-06  5133   0.365E-03    0.307E-02
RMM:   5    -0.692483897007E+03    0.30329E-05   -0.43531E-07  2788   0.289E-03    0.219E-02
RMM:   6    -0.692483895475E+03    0.15316E-05   -0.37647E-07  2248   0.287E-03    0.143E-02
RMM:   7    -0.692483895332E+03    0.14293E-06   -0.73942E-07  2584   0.296E-03    0.785E-03
RMM:   8    -0.692483895306E+03    0.26579E-07   -0.63508E-08  1347   0.268E-03
  43 F= -.69248390E+03 E0= -.69191095E+03  d E =-.115801E-03  mag=     3.9295
 curvature:  -0.06 expect dE=-0.349E-04 dE for cont linesearch -0.221E-06
 trial: gam= 0.14513 g(F)=  0.554E-03 g(S)=  0.000E+00 ort = 0.127E-03 (trialstep = 0.352E-01)
 search vector abs. value=  0.688E-03
 reached required accuracy - stopping structural energy minimisation
 writing wavefunctions
