 ----------------------------------------------------
    OOO  PPPP  EEEEE N   N M   M PPPP
   O   O P   P E     NN  N MM MM P   P
   O   O PPPP  EEEEE N N N M M M PPPP   -- VERSION
   O   O P     E     N  NN M   M P
    OOO  P     EEEEE N   N M   M P
 ----------------------------------------------------
 running   16 mpi-ranks, with    4 threads/rank
 distrk:  each k-point on   16 cores,    1 groups
 distr:  one band on    1 cores,   16 groups
 vasp.6.2.1 16May21 (build Jul 28 2021 23:24:15) complex                        
  
 POSCAR found type information on POSCAR H IrO 
 POSCAR found :  3 types and     105 ions
 scaLAPACK will be used
 -----------------------------------------------------------------------------
|                                                                             |
|           W    W    AA    RRRRR   N    N  II  N    N   GGGG   !!!           |
|           W    W   A  A   R    R  NN   N  II  NN   N  G    G  !!!           |
|           W    W  A    A  R    R  N N  N  II  N N  N  G       !!!           |
|           W WW W  AAAAAA  RRRRR   N  N N  II  N  N N  G  GGG   !            |
|           WW  WW  A    A  R   R   N   NN  II  N   NN  G    G                |
|           W    W  A    A  R    R  N    N  II  N    N   GGGG   !!!           |
|                                                                             |
|     The real-space projection scheme for the treatment of the non-local     |
|     pseudopotentials has been switched on but on file POTCAR I have not     |
|     found any entries, signalling me that you have never performed a        |
|     real-space optimization of all non-local projectors! BE WARNED that     |
|     a calculation using the real-space projection scheme together with      |
|     non-local projectors which were not real-space optimized (according     |
|     to the plane-wave cutoff used in this calculation) might give more      |
|     or less inaccurate results. I hope you know what you are doing.         |
|                                                                             |
 -----------------------------------------------------------------------------

 LDA part: xc-table for Pade appr. of Perdew
 POSCAR, INCAR and KPOINTS ok, starting setup
 FFT: planning ...
 WAVECAR not read
 WARNING: random wavefunctions but no delay for mixing, default for NELMDL
 entering main loop
       N       E                     dE             d eps       ncg     rms          rms(c)
DAV:   1     0.775514753776E+04    0.77551E+04   -0.30859E+05 13648   0.126E+03
DAV:   2     0.593203948262E+03   -0.71619E+04   -0.64671E+04 14496   0.370E+02
DAV:   3    -0.787093325015E+03   -0.13803E+04   -0.13198E+04 16640   0.164E+02
DAV:   4    -0.863418781627E+03   -0.76325E+02   -0.74432E+02 18784   0.431E+01
DAV:   5    -0.864915456664E+03   -0.14967E+01   -0.14786E+01 17408   0.563E+00    0.197E+02
RMM:   6    -0.762215933876E+03    0.10270E+03   -0.69719E+02 13463   0.421E+01    0.206E+02
RMM:   7    -0.105026931148E+04   -0.28805E+03   -0.24399E+02 13993   0.257E+01    0.364E+02
RMM:   8    -0.941930217045E+03    0.10834E+03   -0.75421E+01 16124   0.967E+00    0.340E+02
RMM:   9    -0.142376674762E+04   -0.48184E+03   -0.32564E+02 18507   0.239E+01    0.381E+02
RMM:  10    -0.877963178390E+03    0.54580E+03   -0.15917E+02 16880   0.175E+01    0.177E+02
RMM:  11    -0.773355619109E+03    0.10461E+03   -0.10728E+02 15164   0.173E+01    0.115E+02
RMM:  12    -0.677260145213E+03    0.96095E+02   -0.73446E+01 14693   0.129E+01    0.118E+02
RMM:  13    -0.661983606175E+03    0.15277E+02   -0.14774E+01 13957   0.656E+00    0.103E+02
RMM:  14    -0.640793771637E+03    0.21190E+02   -0.11153E+01 13542   0.489E+00    0.795E+01
RMM:  15    -0.637400566624E+03    0.33932E+01   -0.92217E+00 13921   0.453E+00    0.631E+01
RMM:  16    -0.647194181833E+03   -0.97936E+01   -0.76683E+00 14250   0.420E+00    0.578E+01
RMM:  17    -0.650388853260E+03   -0.31947E+01   -0.45215E+00 13781   0.327E+00    0.476E+01
RMM:  18    -0.654022395649E+03   -0.36335E+01   -0.30784E+00 13785   0.251E+00    0.460E+01
RMM:  19    -0.660287759933E+03   -0.62654E+01   -0.63801E+00 15767   0.354E+00    0.374E+01
RMM:  20    -0.668023956101E+03   -0.77362E+01   -0.10238E+01 17449   0.442E+00    0.211E+01
RMM:  21    -0.673257305232E+03   -0.52333E+01   -0.27029E+00 14402   0.239E+00    0.184E+01
RMM:  22    -0.675683987399E+03   -0.24267E+01   -0.12525E+00 13915   0.162E+00    0.206E+01
RMM:  23    -0.677557562324E+03   -0.18736E+01   -0.94081E-01 13867   0.139E+00    0.178E+01
RMM:  24    -0.682744068241E+03   -0.51865E+01   -0.18859E+00 15538   0.198E+00    0.228E+01
RMM:  25    -0.683999996786E+03   -0.12559E+01   -0.45434E-01 13473   0.112E+00    0.218E+01
RMM:  26    -0.686247685290E+03   -0.22477E+01   -0.63117E-01 14348   0.111E+00    0.192E+01
RMM:  27    -0.687527729195E+03   -0.12800E+01   -0.37301E-01 14002   0.893E-01    0.164E+01
RMM:  28    -0.688261137720E+03   -0.73341E+00   -0.17812E-01 13599   0.619E-01    0.142E+01
RMM:  29    -0.690338057383E+03   -0.20769E+01   -0.42499E-01 15723   0.865E-01    0.143E+01
RMM:  30    -0.694198246538E+03   -0.38602E+01   -0.13868E+00 18690   0.150E+00    0.936E+00
RMM:  31    -0.697247221234E+03   -0.30490E+01   -0.74937E-01 17503   0.110E+00    0.554E+00
RMM:  32    -0.699110957629E+03   -0.18637E+01   -0.34627E-01 15313   0.716E-01    0.521E+00
RMM:  33    -0.700031288437E+03   -0.92033E+00   -0.16585E-01 14364   0.535E-01    0.468E+00
RMM:  34    -0.700877486013E+03   -0.84620E+00   -0.16065E-01 15006   0.498E-01    0.392E+00
RMM:  35    -0.702166162837E+03   -0.12887E+01   -0.19478E-01 15572   0.523E-01    0.401E+00
RMM:  36    -0.703029349919E+03   -0.86319E+00   -0.19315E-01 16054   0.511E-01    0.269E+00
RMM:  37    -0.703283844542E+03   -0.25449E+00   -0.47347E-02 13887   0.298E-01    0.252E+00
RMM:  38    -0.703540828323E+03   -0.25698E+00   -0.39613E-02 14238   0.250E-01    0.269E+00
RMM:  39    -0.703575377930E+03   -0.34550E-01   -0.27233E-02 14283   0.214E-01    0.184E+00
RMM:  40    -0.703941714808E+03   -0.36634E+00   -0.49228E-02 15498   0.261E-01    0.164E+00
RMM:  41    -0.704393767330E+03   -0.45205E+00   -0.61991E-02 16274   0.282E-01    0.144E+00
RMM:  42    -0.704709354106E+03   -0.31559E+00   -0.25475E-02 14906   0.194E-01    0.132E+00
RMM:  43    -0.704747366866E+03   -0.38013E-01   -0.90929E-03 13844   0.127E-01    0.119E+00
RMM:  44    -0.704815052586E+03   -0.67686E-01   -0.86784E-03 14409   0.120E-01    0.105E+00
RMM:  45    -0.704882147691E+03   -0.67095E-01   -0.47364E-03 13806   0.922E-02    0.879E-01
RMM:  46    -0.704945271963E+03   -0.63124E-01   -0.34599E-03 13570   0.745E-02    0.781E-01
RMM:  47    -0.705056627656E+03   -0.11136E+00   -0.28240E-03 13838   0.666E-02    0.645E-01
RMM:  48    -0.705117301359E+03   -0.60674E-01   -0.10179E-03 12516   0.443E-02    0.591E-01
RMM:  49    -0.705185643141E+03   -0.68342E-01   -0.87097E-04 12688   0.420E-02    0.522E-01
RMM:  50    -0.705235428037E+03   -0.49785E-01   -0.66928E-04 12316   0.388E-02    0.456E-01
RMM:  51    -0.705203422570E+03    0.32005E-01   -0.23741E-03 14833   0.556E-02    0.429E-01
RMM:  52    -0.705262803592E+03   -0.59381E-01   -0.25710E-04  9360   0.260E-02    0.304E-01
RMM:  53    -0.705301413774E+03   -0.38610E-01   -0.20061E-04  8877   0.209E-02    0.240E-01
RMM:  54    -0.705334200973E+03   -0.32787E-01   -0.26455E-04  9344   0.218E-02    0.180E-01
RMM:  55    -0.705352281777E+03   -0.18081E-01   -0.13210E-04  8473   0.172E-02    0.155E-01
RMM:  56    -0.705316531886E+03    0.35750E-01   -0.10824E-04  8206   0.185E-02    0.127E-01
RMM:  57    -0.705335808853E+03   -0.19277E-01   -0.38277E-05  8089   0.117E-02    0.649E-02
RMM:  58    -0.705356365074E+03   -0.20556E-01   -0.36344E-05  7828   0.817E-03    0.622E-02
RMM:  59    -0.705367903618E+03   -0.11539E-01   -0.30153E-05  7662   0.784E-03    0.541E-02
RMM:  60    -0.705377164655E+03   -0.92610E-02   -0.23077E-05  6951   0.654E-03    0.405E-02
RMM:  61    -0.705379301559E+03   -0.21369E-02   -0.11951E-05  7086   0.550E-03    0.339E-02
RMM:  62    -0.705383030721E+03   -0.37292E-02   -0.82390E-06  5597   0.436E-03    0.290E-02
RMM:  63    -0.705385825375E+03   -0.27947E-02   -0.94142E-06  5613   0.414E-03    0.228E-02
RMM:  64    -0.705387071597E+03   -0.12462E-02   -0.57216E-06  4754   0.379E-03    0.156E-02
RMM:  65    -0.705387489999E+03   -0.41840E-03   -0.27367E-06  3937   0.334E-03    0.119E-02
RMM:  66    -0.705387818233E+03   -0.32823E-03   -0.21751E-06  3781   0.314E-03    0.975E-03
RMM:  67    -0.705387883200E+03   -0.64967E-04   -0.14512E-06  3334   0.300E-03
   1 F= -.70538788E+03 E0= -.70477087E+03  d E =-.705388E+03  mag=     7.3168
 curvature:   0.00 expect dE= 0.000E+00 dE for cont linesearch  0.000E+00
 trial: gam= 0.00000 g(F)=  0.532E+00 g(S)=  0.000E+00 ort = 0.000E+00 (trialstep = 0.100E+01)
 search vector abs. value=  0.532E+00
 bond charge predicted
       N       E                     dE             d eps       ncg     rms          rms(c)
DAV:   1    -0.705206834948E+03    0.18098E+00   -0.88478E+01 13856   0.129E+01    0.385E+00
RMM:   2    -0.705995989826E+03   -0.78915E+00   -0.24690E+00 13440   0.246E+00    0.116E+01
RMM:   3    -0.705384034078E+03    0.61196E+00   -0.45848E-01 14458   0.105E+00    0.459E+00
RMM:   4    -0.705509057464E+03   -0.12502E+00   -0.14218E-01 13546   0.601E-01    0.679E+00
RMM:   5    -0.705347384079E+03    0.16167E+00   -0.53453E-02 13458   0.441E-01    0.396E+00
RMM:   6    -0.705331206350E+03    0.16178E-01   -0.40068E-02 13634   0.321E-01    0.319E+00
RMM:   7    -0.705270549697E+03    0.60657E-01   -0.37292E-02 14180   0.287E-01    0.134E+00
RMM:   8    -0.705259939611E+03    0.10610E-01   -0.18922E-02 13992   0.197E-01    0.764E-01
RMM:   9    -0.705259816756E+03    0.12286E-03   -0.47003E-03 13751   0.108E-01    0.407E-01
RMM:  10    -0.705261686851E+03   -0.18701E-02   -0.15566E-03 13162   0.555E-02    0.305E-01
RMM:  11    -0.705264653028E+03   -0.29662E-02   -0.11214E-03 12423   0.463E-02    0.201E-01
RMM:  12    -0.705267604699E+03   -0.29517E-02   -0.12721E-03 12881   0.469E-02    0.190E-01
RMM:  13    -0.705268182436E+03   -0.57774E-03   -0.23402E-04  9201   0.285E-02    0.102E-01
RMM:  14    -0.705268975078E+03   -0.79264E-03   -0.93274E-05  8202   0.174E-02    0.794E-02
RMM:  15    -0.705270088270E+03   -0.11132E-02   -0.40396E-05  7550   0.106E-02    0.519E-02
RMM:  16    -0.705271671516E+03   -0.15832E-02   -0.37207E-05  7375   0.799E-03    0.425E-02
RMM:  17    -0.705273964413E+03   -0.22929E-02   -0.47476E-05  7520   0.817E-03    0.385E-02
RMM:  18    -0.705276772589E+03   -0.28082E-02   -0.57575E-05  7444   0.795E-03    0.405E-02
RMM:  19    -0.705279723869E+03   -0.29513E-02   -0.57664E-05  7160   0.776E-03    0.374E-02
RMM:  20    -0.705282759816E+03   -0.30359E-02   -0.66073E-05  7298   0.808E-03    0.305E-02
RMM:  21    -0.705285317608E+03   -0.25578E-02   -0.62236E-05  7100   0.778E-03    0.270E-02
RMM:  22    -0.705286915064E+03   -0.15975E-02   -0.47377E-05  6722   0.711E-03    0.178E-02
RMM:  23    -0.705287981818E+03   -0.10668E-02   -0.33919E-05  6249   0.644E-03    0.173E-02
RMM:  24    -0.705288544225E+03   -0.56241E-03   -0.17329E-05  5374   0.542E-03    0.111E-02
RMM:  25    -0.705289104070E+03   -0.55984E-03   -0.12906E-05  5049   0.453E-03    0.104E-02
RMM:  26    -0.705289537195E+03   -0.43313E-03   -0.75237E-06  4673   0.417E-03    0.810E-03
RMM:  27    -0.705289994485E+03   -0.45729E-03   -0.57894E-06  4402   0.368E-03    0.705E-03
RMM:  28    -0.705290380759E+03   -0.38627E-03   -0.41103E-06  4245   0.354E-03    0.667E-03
RMM:  29    -0.705290668206E+03   -0.28745E-03   -0.25081E-06  3638   0.318E-03    0.516E-03
RMM:  30    -0.705290893885E+03   -0.22568E-03   -0.14985E-06  3213   0.302E-03    0.518E-03
RMM:  31    -0.705291067928E+03   -0.17404E-03   -0.10462E-06  2932   0.292E-03    0.447E-03
RMM:  32    -0.705291213088E+03   -0.14516E-03   -0.14976E-06  3172   0.295E-03    0.368E-03
RMM:  33    -0.705291310883E+03   -0.97795E-04   -0.12862E-06  3027   0.290E-03
   2 F= -.70529131E+03 E0= -.70467769E+03  d E =0.965723E-01  mag=     7.5677
 trial-energy change:    0.096572  1 .order    0.101489   -0.532321    0.735300
 step:   0.4256(harm=  0.4199)  dis= 0.02486  next Energy=  -705.501547 (dE=-0.114E+00)
 bond charge predicted
       N       E                     dE             d eps       ncg     rms          rms(c)
DAV:   1    -0.705491020501E+03   -0.19981E+00   -0.29448E+01 13920   0.740E+00    0.304E+00
RMM:   2    -0.706050519729E+03   -0.55950E+00   -0.11879E+00 13444   0.172E+00    0.988E+00
RMM:   3    -0.705745048481E+03    0.30547E+00   -0.19255E-01 13578   0.813E-01    0.605E+00
RMM:   4    -0.705618639211E+03    0.12641E+00   -0.74572E-02 13462   0.456E-01    0.498E+00
RMM:   5    -0.705508774043E+03    0.10987E+00   -0.65044E-02 13960   0.355E-01    0.281E+00
RMM:   6    -0.705491277368E+03    0.17497E-01   -0.36217E-02 14682   0.241E-01    0.173E+00
RMM:   7    -0.705484247873E+03    0.70295E-02   -0.14877E-02 13866   0.182E-01    0.137E+00
RMM:   8    -0.705478853869E+03    0.53940E-02   -0.62202E-03 13460   0.133E-01    0.104E+00
RMM:   9    -0.705476546489E+03    0.23074E-02   -0.28955E-03 13084   0.841E-02    0.761E-01
RMM:  10    -0.705475161101E+03    0.13854E-02   -0.96252E-04 12389   0.506E-02    0.433E-01
RMM:  11    -0.705474639213E+03    0.52189E-03   -0.44499E-04 10768   0.312E-02    0.194E-01
RMM:  12    -0.705475044378E+03   -0.40516E-03   -0.17814E-04  8601   0.213E-02    0.136E-01
RMM:  13    -0.705475437917E+03   -0.39354E-03   -0.10307E-04  8105   0.167E-02    0.943E-02
RMM:  14    -0.705475827031E+03   -0.38911E-03   -0.67778E-05  7849   0.128E-02    0.705E-02
RMM:  15    -0.705476189648E+03   -0.36262E-03   -0.35044E-05  7309   0.104E-02    0.450E-02
RMM:  16    -0.705476803762E+03   -0.61411E-03   -0.24084E-05  7043   0.750E-03    0.284E-02
RMM:  17    -0.705477414198E+03   -0.61044E-03   -0.13513E-05  6403   0.596E-03    0.234E-02
RMM:  18    -0.705478224413E+03   -0.81022E-03   -0.13610E-05  6249   0.511E-03    0.203E-02
RMM:  19    -0.705478910322E+03   -0.68591E-03   -0.10388E-05  5624   0.449E-03    0.168E-02
RMM:  20    -0.705479504776E+03   -0.59445E-03   -0.87439E-06  5404   0.423E-03    0.179E-02
RMM:  21    -0.705480167980E+03   -0.66320E-03   -0.98942E-06  5342   0.411E-03    0.169E-02
RMM:  22    -0.705481015155E+03   -0.84717E-03   -0.21076E-05  6399   0.491E-03    0.165E-02
RMM:  23    -0.705481547317E+03   -0.53216E-03   -0.13333E-05  5522   0.444E-03    0.117E-02
RMM:  24    -0.705481842390E+03   -0.29507E-03   -0.74525E-06  4934   0.417E-03    0.882E-03
RMM:  25    -0.705482106751E+03   -0.26436E-03   -0.59653E-06  4456   0.368E-03    0.657E-03
RMM:  26    -0.705482287088E+03   -0.18034E-03   -0.38098E-06  4038   0.348E-03    0.673E-03
RMM:  27    -0.705482418974E+03   -0.13189E-03   -0.23456E-06  3547   0.320E-03    0.574E-03
RMM:  28    -0.705482534708E+03   -0.11573E-03   -0.14569E-06  3143   0.304E-03    0.465E-03
RMM:  29    -0.705482668173E+03   -0.13347E-03   -0.13563E-06  2968   0.297E-03    0.335E-03
RMM:  30    -0.705482753270E+03   -0.85096E-04   -0.81092E-07  2682   0.292E-03
   3 F= -.70548275E+03 E0= -.70486732E+03  d E =-.948701E-01  mag=     7.4469
 curvature:  -0.21 expect dE=-0.202E+00 dE for cont linesearch -0.443E-02
 ZBRENT: interpolating
 opt :   0.3549  next Energy=  -705.486500 (dE=-0.986E-01)
 bond charge predicted
       N       E                     dE             d eps       ncg     rms          rms(c)
DAV:   1    -0.705488316776E+03   -0.56486E-02   -0.44565E-01 13888   0.908E-01    0.317E-01
RMM:   2    -0.705495779052E+03   -0.74623E-02   -0.14350E-02 13369   0.186E-01    0.120E+00
RMM:   3    -0.705489948752E+03    0.58303E-02   -0.21254E-03 12996   0.851E-02    0.522E-01
RMM:   4    -0.705490124471E+03   -0.17572E-03   -0.81998E-04 12203   0.469E-02    0.618E-01
RMM:   5    -0.705488872994E+03    0.12515E-02   -0.76322E-04 11228   0.404E-02    0.405E-01
RMM:   6    -0.705488421583E+03    0.45141E-03   -0.38344E-04 10246   0.311E-02    0.240E-01
RMM:   7    -0.705488131319E+03    0.29026E-03   -0.19391E-04  8465   0.240E-02    0.127E-01
RMM:   8    -0.705488054684E+03    0.76635E-04   -0.85256E-05  7652   0.173E-02
   4 F= -.70548805E+03 E0= -.70487243E+03  d E =-.100171E+00  mag=     7.4407
 curvature:  -0.18 expect dE=-0.126E+00 dE for cont linesearch -0.680E-03
 trial: gam= 1.42268 g(F)=  0.712E+00 g(S)=  0.000E+00 ort =-0.452E-01 (trialstep = 0.279E+00)
 search vector abs. value=  0.166E+01
 bond charge predicted
       N       E                     dE             d eps       ncg     rms          rms(c)
DAV:   1    -0.705372966951E+03    0.11516E+00   -0.18337E+01 14016   0.606E+00    0.195E+00
RMM:   2    -0.705516867670E+03   -0.14390E+00   -0.57875E-01 13443   0.111E+00    0.496E+00
RMM:   3    -0.705492245049E+03    0.24623E-01   -0.89817E-02 13457   0.541E-01    0.492E+00
RMM:   4    -0.705372530833E+03    0.11971E+00   -0.24067E-02 13553   0.279E-01    0.860E-01
RMM:   5    -0.705372087576E+03    0.44326E-03   -0.97645E-03 13500   0.172E-01    0.114E+00
RMM:   6    -0.705369317134E+03    0.27704E-02   -0.47346E-03 13498   0.108E-01    0.795E-01
RMM:   7    -0.705370590973E+03   -0.12738E-02   -0.42921E-03 13840   0.962E-02    0.712E-01
RMM:   8    -0.705367437577E+03    0.31534E-02   -0.32826E-03 13686   0.843E-02    0.331E-01
RMM:   9    -0.705367150211E+03    0.28737E-03   -0.74258E-04 12114   0.454E-02    0.202E-01
RMM:  10    -0.705367166801E+03   -0.16590E-04   -0.29343E-04  9569   0.256E-02
   5 F= -.70536717E+03 E0= -.70475256E+03  d E =0.120888E+00  mag=     7.4338
 trial-energy change:    0.120888  1 .order    0.077009   -0.180843    0.334862
 step:   0.0709(harm=  0.0979)  dis= 0.00741  next Energy=  -705.510299 (dE=-0.222E-01)
 bond charge predicted
       N       E                     dE             d eps       ncg     rms          rms(c)
DAV:   1    -0.705527009262E+03   -0.15986E+00   -0.10257E+01 13984   0.459E+00    0.200E+00
RMM:   2    -0.705670495969E+03   -0.14349E+00   -0.48534E-01 13505   0.998E-01    0.494E+00
RMM:   3    -0.705598216115E+03    0.72280E-01   -0.65984E-02 13445   0.501E-01    0.368E+00
RMM:   4    -0.705543786204E+03    0.54430E-01   -0.18311E-02 13509   0.231E-01    0.202E+00
RMM:   5    -0.705518598684E+03    0.25188E-01   -0.17349E-02 13770   0.180E-01    0.106E+00
RMM:   6    -0.705516342129E+03    0.22566E-02   -0.10788E-02 14224   0.131E-01    0.706E-01
RMM:   7    -0.705516276154E+03    0.65976E-04   -0.29253E-03 13372   0.816E-02    0.521E-01
RMM:   8    -0.705515455306E+03    0.82085E-03   -0.18370E-03 12907   0.650E-02    0.421E-01
RMM:   9    -0.705515118304E+03    0.33700E-03   -0.65716E-04 11760   0.458E-02    0.305E-01
RMM:  10    -0.705514857204E+03    0.26110E-03   -0.24962E-04  9354   0.276E-02    0.171E-01
RMM:  11    -0.705514760382E+03    0.96821E-04   -0.10048E-04  8052   0.187E-02
   6 F= -.70551476E+03 E0= -.70489929E+03  d E =-.267057E-01  mag=     7.4288
 curvature:  -0.12 expect dE=-0.774E-01 dE for cont linesearch -0.699E-04
 trial: gam= 0.61816 g(F)=  0.631E+00 g(S)=  0.000E+00 ort = 0.308E-01 (trialstep = 0.237E+00)
 search vector abs. value=  0.130E+01
 bond charge predicted
       N       E                     dE             d eps       ncg     rms          rms(c)
DAV:   1    -0.705412633289E+03    0.10222E+00   -0.11000E+01 13904   0.500E+00    0.143E+00
RMM:   2    -0.705465717636E+03   -0.53084E-01   -0.28669E-01 13440   0.908E-01    0.383E+00
RMM:   3    -0.705429097901E+03    0.36620E-01   -0.37986E-02 13513   0.383E-01    0.127E+00
RMM:   4    -0.705517345278E+03   -0.88247E-01   -0.21337E-02 13756   0.221E-01    0.445E+00
RMM:   5    -0.705431482769E+03    0.85863E-01   -0.78091E-03 13482   0.168E-01    0.165E+00
RMM:   6    -0.705424046245E+03    0.74365E-02   -0.57568E-03 13514   0.109E-01    0.718E-01
RMM:   7    -0.705424245157E+03   -0.19891E-03   -0.20446E-03 12943   0.806E-02    0.648E-01
RMM:   8    -0.705423680209E+03    0.56495E-03   -0.99230E-04 12498   0.554E-02    0.472E-01
RMM:   9    -0.705423525129E+03    0.15508E-03   -0.45416E-04 10785   0.314E-02    0.352E-01
RMM:  10    -0.705423332179E+03    0.19295E-03   -0.13847E-04  8206   0.204E-02    0.262E-01
RMM:  11    -0.705423296593E+03    0.35586E-04   -0.92366E-05  8106   0.165E-02
   7 F= -.70542330E+03 E0= -.70480774E+03  d E =0.914638E-01  mag=     7.4194
 trial-energy change:    0.091464  1 .order    0.013869   -0.154286    0.182023
 step:   0.1089(harm=  0.1089)  dis= 0.00591  next Energy=  -705.550151 (dE=-0.354E-01)
 bond charge predicted
       N       E                     dE             d eps       ncg     rms          rms(c)
DAV:   1    -0.705521242592E+03   -0.97910E-01   -0.32145E+00 13936   0.273E+00    0.891E-01
RMM:   2    -0.705543008681E+03   -0.21766E-01   -0.95124E-02 13440   0.511E-01    0.228E+00
RMM:   3    -0.705525714912E+03    0.17294E-01   -0.12735E-02 13432   0.230E-01    0.653E-01
RMM:   4    -0.705528167655E+03   -0.24527E-02   -0.58813E-03 13550   0.121E-01    0.103E+00
RMM:   5    -0.705533718600E+03   -0.55509E-02   -0.30205E-03 13268   0.851E-02    0.149E+00
RMM:   6    -0.705524625603E+03    0.90930E-02   -0.12754E-03 12589   0.646E-02    0.442E-01
RMM:   7    -0.705524504962E+03    0.12064E-03   -0.79584E-04 12327   0.480E-02    0.355E-01
RMM:   8    -0.705524300287E+03    0.20467E-03   -0.35992E-04 10603   0.343E-02    0.193E-01
RMM:   9    -0.705524229263E+03    0.71024E-04   -0.12575E-04  8187   0.201E-02
   8 F= -.70552423E+03 E0= -.70490868E+03  d E =-.946888E-02  mag=     7.4155
 curvature:  -0.11 expect dE=-0.123E+00 dE for cont linesearch -0.167E-01
 ZBRENT: interpolating
 opt :   0.0645  next Energy=  -705.534151 (dE=-0.194E-01)
 bond charge predicted
       N       E                     dE             d eps       ncg     rms          rms(c)
DAV:   1    -0.705535797662E+03   -0.11497E-01   -0.38490E-01 14128   0.942E-01    0.287E-01
RMM:   2    -0.705537360705E+03   -0.15630E-02   -0.10559E-02 13431   0.173E-01    0.535E-01
RMM:   3    -0.705536541419E+03    0.81929E-03   -0.13893E-03 12908   0.712E-02    0.263E-01
RMM:   4    -0.705537882181E+03   -0.13408E-02   -0.60970E-04 11894   0.401E-02    0.529E-01
RMM:   5    -0.705537314083E+03    0.56810E-03   -0.48950E-04 11411   0.356E-02    0.472E-01
RMM:   6    -0.705536462401E+03    0.85168E-03   -0.16688E-04  8344   0.264E-02    0.147E-01
RMM:   7    -0.705536481708E+03   -0.19306E-04   -0.86006E-05  7870   0.169E-02    0.110E-01
RMM:   8    -0.705536469287E+03    0.12420E-04   -0.44375E-05  7575   0.134E-02
   9 F= -.70553647E+03 E0= -.70492103E+03  d E =-.217089E-01  mag=     7.4146
 curvature:  -0.06 expect dE=-0.288E-01 dE for cont linesearch -0.549E-04
 trial: gam= 0.81664 g(F)=  0.444E+00 g(S)=  0.000E+00 ort =-0.332E-01 (trialstep = 0.203E+00)
 search vector abs. value=  0.126E+01
 bond charge predicted
       N       E                     dE             d eps       ncg     rms          rms(c)
DAV:   1    -0.705468586859E+03    0.67895E-01   -0.76399E+00 13856   0.407E+00    0.114E+00
RMM:   2    -0.705510885216E+03   -0.42298E-01   -0.17794E-01 13440   0.725E-01    0.388E+00
RMM:   3    -0.705488223750E+03    0.22661E-01   -0.28616E-02 14276   0.294E-01    0.212E+00
RMM:   4    -0.705563420204E+03   -0.75196E-01   -0.13053E-02 13508   0.175E-01    0.446E+00
RMM:   5    -0.705486308979E+03    0.77111E-01   -0.87481E-03 13695   0.164E-01    0.185E+00
RMM:   6    -0.705476551780E+03    0.97572E-02   -0.50051E-03 13384   0.105E-01    0.962E-01
RMM:   7    -0.705475759897E+03    0.79188E-03   -0.21916E-03 13003   0.801E-02    0.788E-01
RMM:   8    -0.705475843891E+03   -0.83994E-04   -0.84123E-04 12408   0.526E-02
  10 F= -.70547584E+03 E0= -.70486019E+03  d E =0.606254E-01  mag=     7.3969
 trial-energy change:    0.060625  1 .order    0.036167   -0.084638    0.156973
 step:   0.0486(harm=  0.0711)  dis= 0.00292  next Energy=  -705.546274 (dE=-0.980E-02)
 bond charge predicted
       N       E                     dE             d eps       ncg     rms          rms(c)
DAV:   1    -0.705541488977E+03   -0.65729E-01   -0.44185E+00 13952   0.312E+00    0.110E+00
RMM:   2    -0.705611402388E+03   -0.69913E-01   -0.11942E-01 13440   0.570E-01    0.425E+00
RMM:   3    -0.705563228121E+03    0.48174E-01   -0.19509E-02 13458   0.280E-01    0.186E+00
RMM:   4    -0.705560806703E+03    0.24214E-02   -0.70889E-03 13635   0.143E-01    0.198E+00
RMM:   5    -0.705554109439E+03    0.66973E-02   -0.37219E-03 13224   0.103E-01    0.152E+00
RMM:   6    -0.705550914568E+03    0.31949E-02   -0.28305E-03 13420   0.851E-02    0.107E+00
RMM:   7    -0.705547251229E+03    0.36633E-02   -0.22169E-03 13405   0.780E-02    0.425E-01
RMM:   8    -0.705546981607E+03    0.26962E-03   -0.86438E-04 12363   0.504E-02    0.280E-01
RMM:   9    -0.705546873163E+03    0.10844E-03   -0.32732E-04 10078   0.310E-02    0.159E-01
RMM:  10    -0.705546961949E+03   -0.88786E-04   -0.93584E-05  7985   0.167E-02
  11 F= -.70554696E+03 E0= -.70493132E+03  d E =-.104927E-01  mag=     7.3936
 curvature:  -0.10 expect dE=-0.214E-01 dE for cont linesearch -0.522E-03
 ZBRENT: interpolating
 opt :   0.0630  next Energy=  -705.547532 (dE=-0.111E-01)
 bond charge predicted
       N       E                     dE             d eps       ncg     rms          rms(c)
DAV:   1    -0.705547340405E+03   -0.46724E-03   -0.38061E-02 13856   0.288E-01    0.146E-01
RMM:   2    -0.705551667095E+03   -0.43267E-02   -0.14888E-03 12985   0.619E-02    0.951E-01
RMM:   3    -0.705547656907E+03    0.40102E-02   -0.36113E-04 10389   0.397E-02    0.238E-01
RMM:   4    -0.705547557307E+03    0.99600E-04   -0.92578E-05  7445   0.191E-02    0.168E-01
RMM:   5    -0.705547650349E+03   -0.93042E-04   -0.58880E-05  7150   0.132E-02    0.157E-01
RMM:   6    -0.705547622688E+03    0.27660E-04   -0.30731E-05  7020   0.977E-03    0.713E-02
RMM:   7    -0.705547656050E+03   -0.33362E-04   -0.19033E-05  6830   0.787E-03    0.458E-02
RMM:   8    -0.705547682217E+03   -0.26167E-04   -0.80843E-06  6270   0.574E-03
  12 F= -.70554768E+03 E0= -.70493204E+03  d E =-.112129E-01  mag=     7.3924
 curvature:  -0.11 expect dE=-0.305E-01 dE for cont linesearch -0.140E-03
 trial: gam= 0.41599 g(F)=  0.268E+00 g(S)=  0.000E+00 ort =-0.393E-01 (trialstep = 0.175E+00)
 search vector abs. value=  0.453E+00
 bond charge predicted
       N       E                     dE             d eps       ncg     rms          rms(c)
DAV:   1    -0.705566229423E+03   -0.18573E-01   -0.26954E+00 13776   0.243E+00    0.509E-01
RMM:   2    -0.705584922268E+03   -0.18693E-01   -0.59219E-02 13440   0.414E-01    0.204E+00
RMM:   3    -0.705577625598E+03    0.72967E-02   -0.10259E-02 14894   0.170E-01    0.144E+00
RMM:   4    -0.705585477997E+03   -0.78524E-02   -0.20916E-03 13235   0.798E-02    0.185E+00
RMM:   5    -0.705571764173E+03    0.13714E-01   -0.29197E-03 13661   0.774E-02    0.882E-01
RMM:   6    -0.705570499525E+03    0.12646E-02   -0.16724E-03 13127   0.609E-02    0.598E-01
RMM:   7    -0.705570097566E+03    0.40196E-03   -0.10337E-03 12797   0.513E-02    0.482E-01
RMM:   8    -0.705569824674E+03    0.27289E-03   -0.46085E-04 11191   0.360E-02    0.439E-01
RMM:   9    -0.705569468144E+03    0.35653E-03   -0.12698E-04  8101   0.207E-02    0.335E-01
RMM:  10    -0.705569259559E+03    0.20859E-03   -0.99712E-05  7839   0.167E-02    0.234E-01
RMM:  11    -0.705569152936E+03    0.10662E-03   -0.13312E-04  7991   0.157E-02    0.173E-01
RMM:  12    -0.705569131045E+03    0.21891E-04   -0.50185E-05  7338   0.125E-02
  13 F= -.70556913E+03 E0= -.70495304E+03  d E =-.214488E-01  mag=     7.3753
 trial-energy change:   -0.021449  1 .order   -0.016740   -0.044025    0.010545
 step:   0.1516(harm=  0.1411)  dis= 0.00607  next Energy=  -705.569823 (dE=-0.221E-01)
 bond charge predicted
       N       E                     dE             d eps       ncg     rms          rms(c)
DAV:   1    -0.705569918686E+03   -0.76575E-03   -0.47465E-02 13952   0.323E-01    0.113E-01
RMM:   2    -0.705571483291E+03   -0.15646E-02   -0.11533E-03 12653   0.573E-02    0.526E-01
RMM:   3    -0.705570337914E+03    0.11454E-02   -0.24195E-04  8654   0.316E-02    0.225E-01
RMM:   4    -0.705570124677E+03    0.21324E-03   -0.77865E-05  7399   0.184E-02    0.746E-02
RMM:   5    -0.705570256391E+03   -0.13171E-03   -0.36728E-05  7079   0.109E-02    0.778E-02
RMM:   6    -0.705570348111E+03   -0.91720E-04   -0.24070E-05  6828   0.871E-03    0.599E-02
RMM:   7    -0.705570450402E+03   -0.10229E-03   -0.15928E-05  6656   0.756E-03    0.381E-02
RMM:   8    -0.705570499860E+03   -0.49458E-04   -0.56344E-06  5878   0.488E-03
  14 F= -.70557050E+03 E0= -.70495449E+03  d E =-.228176E-01  mag=     7.3685
 curvature:  -0.11 expect dE=-0.393E-01 dE for cont linesearch -0.539E-04
 trial: gam= 1.06351 g(F)=  0.342E+00 g(S)=  0.000E+00 ort =-0.146E-01 (trialstep = 0.937E-01)
 search vector abs. value=  0.824E+00
 bond charge predicted
       N       E                     dE             d eps       ncg     rms          rms(c)
DAV:   1    -0.705562102134E+03    0.83483E-02   -0.15805E+00 13680   0.193E+00    0.377E-01
RMM:   2    -0.705569002259E+03   -0.69001E-02   -0.36811E-02 13440   0.349E-01    0.118E+00
RMM:   3    -0.705566504428E+03    0.24978E-02   -0.60570E-03 14502   0.135E-01    0.699E-01
RMM:   4    -0.705571636621E+03   -0.51322E-02   -0.14635E-03 13257   0.648E-02    0.119E+00
RMM:   5    -0.705565884245E+03    0.57524E-02   -0.14048E-03 12893   0.564E-02    0.551E-01
RMM:   6    -0.705565234499E+03    0.64975E-03   -0.57621E-04 11754   0.387E-02    0.372E-01
RMM:   7    -0.705565125738E+03    0.10876E-03   -0.36085E-04 10447   0.308E-02    0.270E-01
RMM:   8    -0.705565104033E+03    0.21704E-04   -0.21297E-04  8830   0.253E-02
  15 F= -.70556510E+03 E0= -.70494899E+03  d E =0.539583E-02  mag=     7.3607
 trial-energy change:    0.005396  1 .order    0.007103   -0.030591    0.044796
 step:   0.0411(harm=  0.0380)  dis= 0.00252  next Energy=  -705.577363 (dE=-0.686E-02)
 bond charge predicted
       N       E                     dE             d eps       ncg     rms          rms(c)
DAV:   1    -0.705576805593E+03   -0.11680E-01   -0.49854E-01 13904   0.109E+00    0.261E-01
RMM:   2    -0.705582057286E+03   -0.52517E-02   -0.12237E-02 13433   0.199E-01    0.103E+00
RMM:   3    -0.705578834733E+03    0.32226E-02   -0.18444E-03 13108   0.869E-02    0.529E-01
RMM:   4    -0.705577946037E+03    0.88870E-03   -0.56896E-04 11693   0.415E-02    0.330E-01
RMM:   5    -0.705577795157E+03    0.15088E-03   -0.22440E-04  8725   0.262E-02    0.272E-01
RMM:   6    -0.705577781007E+03    0.14150E-04   -0.20300E-04  8419   0.242E-02    0.222E-01
RMM:   7    -0.705577750182E+03    0.30824E-04   -0.14682E-04  7937   0.216E-02    0.114E-01
RMM:   8    -0.705577764138E+03   -0.13956E-04   -0.67783E-05  7419   0.157E-02
  16 F= -.70557776E+03 E0= -.70496161E+03  d E =-.726428E-02  mag=     7.3558
 curvature:  -0.05 expect dE=-0.107E-01 dE for cont linesearch -0.218E-06
 trial: gam= 0.54801 g(F)=  0.224E+00 g(S)=  0.000E+00 ort =-0.194E-02 (trialstep = 0.832E-01)
 search vector abs. value=  0.469E+00
 bond charge predicted
       N       E                     dE             d eps       ncg     rms          rms(c)
DAV:   1    -0.705570961122E+03    0.67891E-02   -0.72578E-01 13888   0.134E+00    0.254E-01
RMM:   2    -0.705573267740E+03   -0.23066E-02   -0.16925E-02 13440   0.248E-01    0.626E-01
RMM:   3    -0.705572918640E+03    0.34910E-03   -0.27544E-03 14034   0.922E-02    0.381E-01
RMM:   4    -0.705575487278E+03   -0.25686E-02   -0.71954E-04 12649   0.462E-02    0.767E-01
RMM:   5    -0.705572804117E+03    0.26832E-02   -0.46506E-04 10962   0.366E-02    0.292E-01
RMM:   6    -0.705572686858E+03    0.11726E-03   -0.22113E-04  8777   0.255E-02    0.224E-01
RMM:   7    -0.705572692369E+03   -0.55106E-05   -0.10897E-04  7889   0.189E-02    0.162E-01
RMM:   8    -0.705572697416E+03   -0.50472E-05   -0.75080E-05  7603   0.152E-02
  17 F= -.70557270E+03 E0= -.70495649E+03  d E =0.506672E-02  mag=     7.3510
 trial-energy change:    0.005067  1 .order    0.009139   -0.018526    0.036804
 step:   0.0369(harm=  0.0278)  dis= 0.00263  next Energy=  -705.582231 (dE=-0.447E-02)
 bond charge predicted
       N       E                     dE             d eps       ncg     rms          rms(c)
DAV:   1    -0.705582276740E+03   -0.95844E-02   -0.22429E-01 13888   0.745E-01    0.140E-01
RMM:   2    -0.705583159875E+03   -0.88314E-03   -0.52054E-03 13394   0.138E-01    0.425E-01
RMM:   3    -0.705582781489E+03    0.37839E-03   -0.74034E-04 12072   0.526E-02    0.137E-01
RMM:   4    -0.705583158919E+03   -0.37743E-03   -0.23024E-04  8687   0.260E-02    0.300E-01
RMM:   5    -0.705582830411E+03    0.32851E-03   -0.87619E-05  7555   0.192E-02    0.149E-01
RMM:   6    -0.705582831455E+03   -0.10438E-05   -0.62626E-05  7375   0.132E-02    0.124E-01
RMM:   7    -0.705582857271E+03   -0.25816E-04   -0.41403E-05  7157   0.123E-02    0.785E-02
RMM:   8    -0.705582873110E+03   -0.15838E-04   -0.24342E-05  6828   0.899E-03
  18 F= -.70558287E+03 E0= -.70496666E+03  d E =-.510897E-02  mag=     7.3482
 curvature:  -0.03 expect dE=-0.438E-02 dE for cont linesearch -0.635E-06
 trial: gam= 0.31947 g(F)=  0.153E+00 g(S)=  0.000E+00 ort = 0.323E-02 (trialstep = 0.739E-01)
 search vector abs. value=  0.203E+00
 bond charge predicted
       N       E                     dE             d eps       ncg     rms          rms(c)
DAV:   1    -0.705583271849E+03   -0.41458E-03   -0.25337E-01 13952   0.787E-01    0.128E-01
RMM:   2    -0.705584400864E+03   -0.11290E-02   -0.49237E-03 13410   0.128E-01    0.458E-01
RMM:   3    -0.705583850542E+03    0.55032E-03   -0.71662E-04 12442   0.514E-02    0.215E-01
RMM:   4    -0.705584245195E+03   -0.39465E-03   -0.21267E-04  8525   0.260E-02    0.338E-01
RMM:   5    -0.705583849628E+03    0.39557E-03   -0.10303E-04  7706   0.209E-02    0.182E-01
RMM:   6    -0.705583828011E+03    0.21617E-04   -0.53581E-05  7398   0.133E-02    0.132E-01
RMM:   7    -0.705583831546E+03   -0.35349E-05   -0.42905E-05  7308   0.118E-02    0.934E-02
RMM:   8    -0.705583833109E+03   -0.15629E-05   -0.20641E-05  6880   0.896E-03
  19 F= -.70558383E+03 E0= -.70496760E+03  d E =-.959999E-03  mag=     7.3477
 trial-energy change:   -0.000960  1 .order   -0.000967   -0.011412    0.009478
 step:   0.0404(harm=  0.0404)  dis= 0.00162  next Energy=  -705.585990 (dE=-0.312E-02)
 bond charge predicted
       N       E                     dE             d eps       ncg     rms          rms(c)
DAV:   1    -0.705586041150E+03   -0.22096E-02   -0.52228E-02 13984   0.357E-01    0.832E-02
RMM:   2    -0.705587191192E+03   -0.11500E-02   -0.11546E-03 12894   0.609E-02    0.476E-01
RMM:   3    -0.705586213372E+03    0.97782E-03   -0.20101E-04  8081   0.293E-02    0.148E-01
RMM:   4    -0.705586159034E+03    0.54337E-04   -0.54685E-05  7298   0.164E-02    0.853E-02
RMM:   5    -0.705586182512E+03   -0.23477E-04   -0.19077E-05  6956   0.851E-03    0.924E-02
RMM:   6    -0.705586181639E+03    0.87255E-06   -0.14797E-05  6702   0.697E-03    0.714E-02
RMM:   7    -0.705586175243E+03    0.63962E-05   -0.12477E-05  6640   0.660E-03    0.337E-02
RMM:   8    -0.705586177825E+03   -0.25814E-05   -0.53859E-06  5999   0.472E-03
  20 F= -.70558618E+03 E0= -.70496998E+03  d E =-.330472E-02  mag=     7.3470
 curvature:  -0.03 expect dE=-0.193E-02 dE for cont linesearch -0.147E-05
 trial: gam= 0.45882 g(F)=  0.728E-01 g(S)=  0.000E+00 ort =-0.336E-02 (trialstep = 0.672E-01)
 search vector abs. value=  0.112E+00
 bond charge predicted
       N       E                     dE             d eps       ncg     rms          rms(c)
DAV:   1    -0.705588449072E+03   -0.22738E-02   -0.95981E-02 13952   0.474E-01    0.114E-01
RMM:   2    -0.705589844687E+03   -0.13956E-02   -0.23892E-03 13314   0.862E-02    0.552E-01
RMM:   3    -0.705588693069E+03    0.11516E-02   -0.37168E-04 10270   0.380E-02    0.208E-01
RMM:   4    -0.705588890695E+03   -0.19763E-03   -0.13776E-04  7912   0.224E-02    0.295E-01
RMM:   5    -0.705588665067E+03    0.22563E-03   -0.93346E-05  7529   0.175E-02    0.207E-01
RMM:   6    -0.705588528198E+03    0.13687E-03   -0.49532E-05  7292   0.131E-02    0.131E-01
RMM:   7    -0.705588440010E+03    0.88187E-04   -0.30467E-05  7185   0.100E-02    0.679E-02
RMM:   8    -0.705588398769E+03    0.41241E-04   -0.15705E-05  6658   0.733E-03
  21 F= -.70558840E+03 E0= -.70497225E+03  d E =-.222094E-02  mag=     7.3490
 trial-energy change:   -0.002221  1 .order   -0.002332   -0.004787    0.000124
 step:   0.0655(harm=  0.0655)  dis= 0.00155  next Energy=  -705.588511 (dE=-0.233E-02)
 bond charge predicted
       N       E                     dE             d eps       ncg     rms          rms(c)
DAV:   1    -0.705588396989E+03    0.43021E-04   -0.65008E-05  8160   0.152E-02    0.460E-02
RMM:   2    -0.705588929647E+03   -0.53266E-03   -0.85768E-05  7408   0.138E-02    0.319E-01
RMM:   3    -0.705588413858E+03    0.51579E-03   -0.52319E-05  7225   0.153E-02    0.742E-02
RMM:   4    -0.705588399088E+03    0.14770E-04   -0.11283E-05  6417   0.640E-03    0.239E-02
RMM:   5    -0.705588402332E+03   -0.32444E-05   -0.17391E-06  4186   0.337E-03    0.147E-02
RMM:   6    -0.705588411440E+03   -0.91079E-05   -0.29084E-07  1663   0.258E-03    0.135E-02
RMM:   7    -0.705588419709E+03   -0.82687E-05   -0.24702E-07  1629   0.250E-03    0.180E-02
RMM:   8    -0.705588429291E+03   -0.95820E-05   -0.14592E-07  1369   0.249E-03
  22 F= -.70558843E+03 E0= -.70497229E+03  d E =-.225147E-02  mag=     7.3509
 curvature:  -0.05 expect dE=-0.349E-02 dE for cont linesearch -0.265E-08
 trial: gam= 0.87711 g(F)=  0.674E-01 g(S)=  0.000E+00 ort =-0.759E-04 (trialstep = 0.489E-01)
 search vector abs. value=  0.154E+00
 bond charge predicted
       N       E                     dE             d eps       ncg     rms          rms(c)
DAV:   1    -0.705590811390E+03   -0.23917E-02   -0.48167E-02 13824   0.321E-01    0.917E-02
RMM:   2    -0.705591559426E+03   -0.74804E-03   -0.13109E-03 12995   0.621E-02    0.394E-01
RMM:   3    -0.705590933124E+03    0.62630E-03   -0.21938E-04  8320   0.281E-02    0.158E-01
RMM:   4    -0.705591003918E+03   -0.70793E-04   -0.89947E-05  7446   0.190E-02    0.205E-01
RMM:   5    -0.705590873943E+03    0.12997E-03   -0.59680E-05  7234   0.134E-02    0.133E-01
RMM:   6    -0.705590794369E+03    0.79574E-04   -0.29725E-05  7062   0.104E-02    0.755E-02
RMM:   7    -0.705590763480E+03    0.30889E-04   -0.15756E-05  6673   0.745E-03    0.348E-02
RMM:   8    -0.705590751557E+03    0.11923E-04   -0.74371E-06  6201   0.534E-03
  23 F= -.70559075E+03 E0= -.70497468E+03  d E =-.232227E-02  mag=     7.3537
 trial-energy change:   -0.002322  1 .order   -0.002363   -0.003293   -0.001433
 step:   0.0866(harm=  0.0866)  dis= 0.00187  next Energy=  -705.591344 (dE=-0.291E-02)
 bond charge predicted
       N       E                     dE             d eps       ncg     rms          rms(c)
DAV:   1    -0.705591152768E+03   -0.38929E-03   -0.28551E-02 14176   0.247E-01    0.711E-02
RMM:   2    -0.705591279414E+03   -0.12665E-03   -0.73500E-04 11944   0.474E-02    0.171E-01
RMM:   3    -0.705591173118E+03    0.10630E-03   -0.11518E-04  7478   0.204E-02    0.571E-02
RMM:   4    -0.705591322459E+03   -0.14934E-03   -0.58780E-05  7279   0.145E-02    0.196E-01
RMM:   5    -0.705591162570E+03    0.15989E-03   -0.21542E-05  6933   0.915E-03    0.785E-02
RMM:   6    -0.705591128062E+03    0.34507E-04   -0.13737E-05  6705   0.620E-03    0.515E-02
RMM:   7    -0.705591112462E+03    0.15601E-04   -0.61038E-06  6123   0.514E-03    0.244E-02
RMM:   8    -0.705591109547E+03    0.29143E-05   -0.17879E-06  3946   0.340E-03
  24 F= -.70559111E+03 E0= -.70497510E+03  d E =-.268026E-02  mag=     7.3573
 curvature:  -0.10 expect dE=-0.132E-01 dE for cont linesearch -0.421E-04
 trial: gam= 1.91409 g(F)=  0.133E+00 g(S)=  0.000E+00 ort =-0.809E-02 (trialstep = 0.130E-01)
 search vector abs. value=  0.665E+00
 bond charge predicted
       N       E                     dE             d eps       ncg     rms          rms(c)
DAV:   1    -0.705592413576E+03   -0.13011E-02   -0.12086E-02 14144   0.158E-01    0.471E-02
RMM:   2    -0.705592445991E+03   -0.32415E-04   -0.30741E-04  8713   0.313E-02    0.707E-02
RMM:   3    -0.705592424055E+03    0.21937E-04   -0.50410E-05  7240   0.147E-02    0.273E-02
RMM:   4    -0.705592431979E+03   -0.79248E-05   -0.18875E-05  6931   0.832E-03    0.585E-02
RMM:   5    -0.705592430442E+03    0.15371E-05   -0.68615E-06  6262   0.539E-03    0.543E-02
RMM:   6    -0.705592419239E+03    0.11203E-04   -0.36905E-06  5488   0.385E-03    0.276E-02
RMM:   7    -0.705592420065E+03   -0.82604E-06   -0.15305E-06  3715   0.329E-03    0.164E-02
RMM:   8    -0.705592423785E+03   -0.37201E-05   -0.23044E-07  2103   0.281E-03
  25 F= -.70559242E+03 E0= -.70497645E+03  d E =-.131424E-02  mag=     7.3611
 trial-energy change:   -0.001314  1 .order   -0.001308   -0.001534   -0.001082
 step:   0.0443(harm=  0.0443)  dis= 0.00226  next Energy=  -705.593714 (dE=-0.260E-02)
 bond charge predicted
       N       E                     dE             d eps       ncg     rms          rms(c)
DAV:   1    -0.705593763746E+03   -0.13437E-02   -0.69451E-02 14128   0.379E-01    0.112E-01
RMM:   2    -0.705594710628E+03   -0.94688E-03   -0.18438E-03 13230   0.754E-02    0.416E-01
RMM:   3    -0.705593959234E+03    0.75139E-03   -0.33675E-04  9756   0.336E-02    0.184E-01
RMM:   4    -0.705593930573E+03    0.28662E-04   -0.14300E-04  7790   0.228E-02    0.186E-01
RMM:   5    -0.705593825787E+03    0.10479E-03   -0.68567E-05  7343   0.157E-02    0.115E-01
RMM:   6    -0.705593747365E+03    0.78422E-04   -0.33560E-05  7239   0.108E-02    0.627E-02
RMM:   7    -0.705593722786E+03    0.24579E-04   -0.19142E-05  6947   0.837E-03    0.320E-02
RMM:   8    -0.705593708168E+03    0.14618E-04   -0.10003E-05  6424   0.609E-03
  26 F= -.70559371E+03 E0= -.70497780E+03  d E =-.259862E-02  mag=     7.3654
 curvature:  -0.13 expect dE=-0.131E-01 dE for cont linesearch -0.161E-06
 trial: gam= 0.16841 g(F)=  0.104E+00 g(S)=  0.000E+00 ort =-0.925E-03 (trialstep = 0.193E-01)
 search vector abs. value=  0.123E+00
 bond charge predicted
       N       E                     dE             d eps       ncg     rms          rms(c)
DAV:   1    -0.705595328608E+03   -0.16058E-02   -0.10794E-02 13776   0.165E-01    0.313E-02
RMM:   2    -0.705595512904E+03   -0.18430E-03   -0.23039E-04  7914   0.276E-02    0.179E-01
RMM:   3    -0.705595368992E+03    0.14391E-03   -0.37639E-05  7209   0.144E-02    0.413E-02
RMM:   4    -0.705595371834E+03   -0.28418E-05   -0.75397E-06  6736   0.580E-03    0.361E-02
RMM:   5    -0.705595391785E+03   -0.19951E-04   -0.25476E-06  4798   0.369E-03    0.474E-02
RMM:   6    -0.705595415159E+03   -0.23375E-04   -0.36444E-06  5053   0.366E-03    0.265E-02
RMM:   7    -0.705595431679E+03   -0.16520E-04   -0.26117E-06  4752   0.363E-03    0.190E-02
RMM:   8    -0.705595444426E+03   -0.12747E-04   -0.67885E-07  2585   0.293E-03
  27 F= -.70559544E+03 E0= -.70497954E+03  d E =-.173626E-02  mag=     7.3690
 trial-energy change:   -0.001736  1 .order   -0.001636   -0.002007   -0.001265
 step:   0.0522(harm=  0.0522)  dis= 0.00080  next Energy=  -705.596423 (dE=-0.271E-02)
 bond charge predicted
       N       E                     dE             d eps       ncg     rms          rms(c)
DAV:   1    -0.705596513972E+03   -0.10823E-02   -0.31308E-02 14112   0.280E-01    0.413E-02
RMM:   2    -0.705596638748E+03   -0.12478E-03   -0.60951E-04 10778   0.454E-02    0.128E-01
RMM:   3    -0.705596607266E+03    0.31482E-04   -0.88037E-05  7329   0.191E-02    0.586E-02
RMM:   4    -0.705596656144E+03   -0.48878E-04   -0.21689E-05  7065   0.102E-02    0.110E-01
RMM:   5    -0.705596620580E+03    0.35564E-04   -0.99846E-06  6630   0.618E-03    0.459E-02
RMM:   6    -0.705596637374E+03   -0.16794E-04   -0.39245E-06  5480   0.408E-03    0.467E-02
RMM:   7    -0.705596658577E+03   -0.21203E-04   -0.23313E-06  4539   0.349E-03    0.519E-02
RMM:   8    -0.705596676681E+03   -0.18104E-04   -0.33475E-06  5222   0.366E-03
  28 F= -.70559668E+03 E0= -.70498082E+03  d E =-.296851E-02  mag=     7.3715
 curvature:  -0.03 expect dE=-0.258E-02 dE for cont linesearch -0.543E-05
 trial: gam= 0.77254 g(F)=  0.837E-01 g(S)=  0.000E+00 ort = 0.465E-02 (trialstep = 0.194E-01)
 search vector abs. value=  0.164E+00
 bond charge predicted
       N       E                     dE             d eps       ncg     rms          rms(c)
DAV:   1    -0.705598114366E+03   -0.14558E-02   -0.14893E-02 14128   0.194E-01    0.411E-02
RMM:   2    -0.705598180389E+03   -0.66024E-04   -0.32200E-04  8391   0.333E-02    0.896E-02
RMM:   3    -0.705598168696E+03    0.11693E-04   -0.43960E-05  7165   0.151E-02    0.455E-02
RMM:   4    -0.705598208216E+03   -0.39520E-04   -0.13353E-05  6862   0.704E-03    0.878E-02
RMM:   5    -0.705598194907E+03    0.13309E-04   -0.10753E-05  6517   0.631E-03    0.521E-02
RMM:   6    -0.705598208450E+03   -0.13543E-04   -0.37246E-06  5560   0.425E-03    0.299E-02
RMM:   7    -0.705598225773E+03   -0.17323E-04   -0.13902E-06  3601   0.313E-03    0.258E-02
RMM:   8    -0.705598240406E+03   -0.14633E-04   -0.67019E-07  2753   0.296E-03
  29 F= -.70559824E+03 E0= -.70498235E+03  d E =-.156372E-02  mag=     7.3730
 trial-energy change:   -0.001564  1 .order   -0.001472   -0.001689   -0.001255
 step:   0.0754(harm=  0.0754)  dis= 0.00206  next Energy=  -705.599964 (dE=-0.329E-02)
 bond charge predicted
       N       E                     dE             d eps       ncg     rms          rms(c)
DAV:   1    -0.705599927621E+03   -0.17018E-02   -0.12467E-01 14032   0.561E-01    0.970E-02
RMM:   2    -0.705600544461E+03   -0.61684E-03   -0.26017E-03 13373   0.957E-02    0.317E-01
RMM:   3    -0.705600223219E+03    0.32124E-03   -0.41447E-04 10573   0.381E-02    0.137E-01
RMM:   4    -0.705600346864E+03   -0.12365E-03   -0.94376E-05  7595   0.204E-02    0.198E-01
RMM:   5    -0.705600251072E+03    0.95792E-04   -0.60174E-05  7415   0.145E-02    0.143E-01
RMM:   6    -0.705600221475E+03    0.29597E-04   -0.37414E-05  7254   0.113E-02    0.867E-02
RMM:   7    -0.705600210884E+03    0.10590E-04   -0.30347E-05  7113   0.958E-03    0.616E-02
RMM:   8    -0.705600192811E+03    0.18073E-04   -0.17215E-05  6748   0.815E-03
  30 F= -.70560019E+03 E0= -.70498437E+03  d E =-.351613E-02  mag=     7.3726
 curvature:  -0.07 expect dE=-0.754E-02 dE for cont linesearch -0.460E-05
 trial: gam= 1.29008 g(F)=  0.106E+00 g(S)=  0.000E+00 ort = 0.327E-02 (trialstep = 0.129E-01)
 search vector abs. value=  0.388E+00
 bond charge predicted
       N       E                     dE             d eps       ncg     rms          rms(c)
DAV:   1    -0.705601557759E+03   -0.13469E-02   -0.15554E-02 13856   0.196E-01    0.409E-02
RMM:   2    -0.705601633931E+03   -0.76172E-04   -0.33734E-04  8707   0.341E-02    0.107E-01
RMM:   3    -0.705601598951E+03    0.34980E-04   -0.50875E-05  7217   0.157E-02    0.410E-02
RMM:   4    -0.705601613440E+03   -0.14489E-04   -0.13839E-05  6896   0.750E-03    0.676E-02
RMM:   5    -0.705601607698E+03    0.57416E-05   -0.53170E-06  6249   0.511E-03    0.435E-02
RMM:   6    -0.705601608413E+03   -0.71444E-06   -0.51183E-06  5719   0.399E-03    0.271E-02
RMM:   7    -0.705601607298E+03    0.11144E-05   -0.22179E-06  4935   0.379E-03    0.179E-02
RMM:   8    -0.705601609133E+03   -0.18349E-05   -0.44870E-08  1717   0.248E-03
  31 F= -.70560161E+03 E0= -.70498581E+03  d E =-.141632E-02  mag=     7.3719
 ZBRENT: can't locate minimum, use default step
 trial-energy change:   -0.001416  1 .order   -0.001424   -0.001429   -0.001419
 step:   0.0517(harm=  1.8293)  dis= 0.00274  next Energy=  -705.701343 (dE=-0.101E+00)
 bond charge predicted
       N       E                     dE             d eps       ncg     rms          rms(c)
DAV:   1    -0.705604928096E+03   -0.33208E-02   -0.14006E-01 13952   0.586E-01    0.939E-02
RMM:   2    -0.705605322939E+03   -0.39484E-03   -0.28127E-03 13348   0.100E-01    0.239E-01
RMM:   3    -0.705605235270E+03    0.87670E-04   -0.44708E-04 10741   0.391E-02    0.137E-01
RMM:   4    -0.705605373688E+03   -0.13842E-03   -0.99773E-05  7740   0.204E-02    0.200E-01
RMM:   5    -0.705605231600E+03    0.14209E-03   -0.49822E-05  7448   0.140E-02    0.133E-01
RMM:   6    -0.705605215864E+03    0.15736E-04   -0.35237E-05  7200   0.107E-02    0.988E-02
RMM:   7    -0.705605203156E+03    0.12708E-04   -0.27766E-05  7011   0.956E-03    0.649E-02
RMM:   8    -0.705605192648E+03    0.10508E-04   -0.16764E-05  6764   0.781E-03
  32 F= -.70560519E+03 E0= -.70498950E+03  d E =-.499984E-02  mag=     7.3707
 curvature:  -0.14 expect dE=-0.165E-01 dE for cont linesearch -0.170E-02
 ZBRENT: increasing intervall
 opt :   0.1293  next Energy=  -705.607493 (dE=-0.730E-02)
 bond charge predicted
       N       E                     dE             d eps       ncg     rms          rms(c)
DAV:   1    -0.705603286761E+03    0.19164E-02   -0.56122E-01 13888   0.117E+00    0.193E-01
RMM:   2    -0.705604567769E+03   -0.12810E-02   -0.11300E-02 13433   0.201E-01    0.414E-01
RMM:   3    -0.705604568788E+03   -0.10196E-05   -0.18477E-03 13781   0.779E-02    0.290E-01
RMM:   4    -0.705606086011E+03   -0.15172E-02   -0.48206E-04 11887   0.403E-02    0.593E-01
RMM:   5    -0.705604496403E+03    0.15896E-02   -0.19510E-04  8295   0.271E-02    0.259E-01
RMM:   6    -0.705604429304E+03    0.67099E-04   -0.97559E-05  7906   0.189E-02    0.222E-01
RMM:   7    -0.705604435841E+03   -0.65366E-05   -0.74874E-05  7730   0.155E-02    0.190E-01
RMM:   8    -0.705604401931E+03    0.33909E-04   -0.70892E-05  7540   0.150E-02
  33 F= -.70560440E+03 E0= -.70498890E+03  d E =-.420912E-02  mag=     7.3684
 curvature:  -0.18 expect dE=-0.502E-01 dE for cont linesearch -0.477E-02
 ZBRENT: bracketing found
 ZBRENT: interpolating
 opt :   0.0835  next Energy=  -705.606301 (dE=-0.611E-02)
 bond charge predicted
       N       E                     dE             d eps       ncg     rms          rms(c)
DAV:   1    -0.705606206715E+03   -0.17709E-02   -0.19608E-01 14080   0.694E-01    0.138E-01
RMM:   2    -0.705607023163E+03   -0.81645E-03   -0.39869E-03 13391   0.120E-01    0.372E-01
RMM:   3    -0.705606663010E+03    0.36015E-03   -0.61834E-04 12117   0.517E-02    0.173E-01
RMM:   4    -0.705606621321E+03    0.41689E-04   -0.17781E-04  8171   0.244E-02    0.144E-01
RMM:   5    -0.705606570373E+03    0.50948E-04   -0.53862E-05  7368   0.161E-02    0.998E-02
RMM:   6    -0.705606569728E+03    0.64502E-06   -0.34020E-05  7087   0.102E-02    0.881E-02
RMM:   7    -0.705606587665E+03   -0.17937E-04   -0.48970E-05  7229   0.120E-02    0.548E-02
RMM:   8    -0.705606588461E+03   -0.79672E-06   -0.21349E-05  6843   0.913E-03
  34 F= -.70560659E+03 E0= -.70499097E+03  d E =-.639565E-02  mag=     7.3673
 curvature:  -0.04 expect dE=-0.669E-02 dE for cont linesearch -0.922E-05
 trial: gam= 0.82735 g(F)=  0.157E+00 g(S)=  0.000E+00 ort = 0.916E-02 (trialstep = 0.240E-01)
 search vector abs. value=  0.438E+00
 bond charge predicted
       N       E                     dE             d eps       ncg     rms          rms(c)
DAV:   1    -0.705609641122E+03   -0.30535E-02   -0.59709E-02 14096   0.385E-01    0.670E-02
RMM:   2    -0.705609846262E+03   -0.20514E-03   -0.12947E-03 12953   0.696E-02    0.179E-01
RMM:   3    -0.705609804894E+03    0.41368E-04   -0.21187E-04  8204   0.264E-02    0.102E-01
RMM:   4    -0.705609954896E+03   -0.15000E-03   -0.61340E-05  7335   0.160E-02    0.200E-01
RMM:   5    -0.705609783022E+03    0.17187E-03   -0.25850E-05  7073   0.106E-02    0.668E-02
RMM:   6    -0.705609800091E+03   -0.17069E-04   -0.84334E-06  6408   0.551E-03    0.817E-02
RMM:   7    -0.705609825880E+03   -0.25789E-04   -0.88112E-06  6501   0.539E-03    0.834E-02
RMM:   8    -0.705609817271E+03    0.86087E-05   -0.49232E-06  5991   0.474E-03
  35 F= -.70560982E+03 E0= -.70499424E+03  d E =-.322881E-02  mag=     7.3669
 trial-energy change:   -0.003229  1 .order   -0.003178   -0.003943   -0.002413
 step:   0.0618(harm=  0.0618)  dis= 0.00384  next Energy=  -705.611670 (dE=-0.508E-02)
 bond charge predicted
       N       E                     dE             d eps       ncg     rms          rms(c)
DAV:   1    -0.705611483245E+03   -0.16574E-02   -0.14779E-01 14000   0.606E-01    0.129E-01
RMM:   2    -0.705611835959E+03   -0.35271E-03   -0.32463E-03 13357   0.110E-01    0.243E-01
RMM:   3    -0.705611902975E+03   -0.67016E-04   -0.56270E-04 11572   0.419E-02    0.217E-01
RMM:   4    -0.705611944670E+03   -0.41695E-04   -0.16667E-04  7977   0.255E-02    0.208E-01
RMM:   5    -0.705611961809E+03   -0.17139E-04   -0.73283E-05  7599   0.172E-02    0.251E-01
RMM:   6    -0.705611833963E+03    0.12785E-03   -0.28381E-05  7223   0.105E-02    0.202E-01
RMM:   7    -0.705611819083E+03    0.14879E-04   -0.19766E-05  7124   0.782E-03    0.201E-01
RMM:   8    -0.705611841849E+03   -0.22765E-04   -0.50666E-05  7363   0.117E-02
  36 F= -.70561184E+03 E0= -.70499644E+03  d E =-.525339E-02  mag=     7.3672
 curvature:  -0.08 expect dE=-0.153E-01 dE for cont linesearch -0.776E-05
 trial: gam= 0.77418 g(F)=  0.186E+00 g(S)=  0.000E+00 ort =-0.643E-02 (trialstep = 0.315E-01)
 search vector abs. value=  0.438E+00
 bond charge predicted
       N       E                     dE             d eps       ncg     rms          rms(c)
DAV:   1    -0.705615807173E+03   -0.39881E-02   -0.99581E-02 14016   0.507E-01    0.319E-01
RMM:   2    -0.705616143657E+03   -0.33648E-03   -0.26476E-03 13354   0.980E-02    0.398E-01
RMM:   3    -0.705616034911E+03    0.10875E-03   -0.42429E-04 10647   0.385E-02    0.275E-01
RMM:   4    -0.705622818970E+03   -0.67841E-02   -0.84842E-04 12842   0.409E-02    0.113E+00
RMM:   5    -0.705616066869E+03    0.67521E-02   -0.41990E-04 10809   0.383E-02    0.221E-01
RMM:   6    -0.705615990075E+03    0.76793E-04   -0.14897E-04  8071   0.217E-02    0.125E-01
RMM:   7    -0.705615990286E+03   -0.21113E-06   -0.53550E-05  7397   0.141E-02    0.781E-02
RMM:   8    -0.705615994050E+03   -0.37638E-05   -0.18559E-05  6886   0.874E-03
  37 F= -.70561599E+03 E0= -.70500070E+03  d E =-.415220E-02  mag=     7.3678
 trial-energy change:   -0.004152  1 .order   -0.004100   -0.005697   -0.002502
 step:   0.0561(harm=  0.0561)  dis= 0.00329  next Energy=  -705.616921 (dE=-0.508E-02)
 bond charge predicted
       N       E                     dE             d eps       ncg     rms          rms(c)
DAV:   1    -0.705616660871E+03   -0.67058E-03   -0.61907E-02 14048   0.400E-01    0.104E-01
RMM:   2    -0.705616951615E+03   -0.29074E-03   -0.14824E-03 13177   0.749E-02    0.208E-01
RMM:   3    -0.705616822407E+03    0.12921E-03   -0.24353E-04  8507   0.284E-02    0.107E-01
RMM:   4    -0.705617015642E+03   -0.19323E-03   -0.87722E-05  7532   0.185E-02    0.227E-01
RMM:   5    -0.705616836613E+03    0.17903E-03   -0.49999E-05  7325   0.142E-02    0.112E-01
RMM:   6    -0.705616798523E+03    0.38090E-04   -0.25288E-05  7143   0.961E-03    0.647E-02
RMM:   7    -0.705616800293E+03   -0.17701E-05   -0.11408E-05  6617   0.661E-03    0.468E-02
RMM:   8    -0.705616796305E+03    0.39877E-05   -0.59601E-06  6053   0.517E-03
  38 F= -.70561680E+03 E0= -.70500165E+03  d E =-.495446E-02  mag=     7.3686
 curvature:  -0.07 expect dE=-0.735E-02 dE for cont linesearch -0.449E-04
 trial: gam= 0.31520 g(F)=  0.108E+00 g(S)=  0.000E+00 ort =-0.170E-01 (trialstep = 0.364E-01)
 search vector abs. value=  0.141E+00
 bond charge predicted
       N       E                     dE             d eps       ncg     rms          rms(c)
DAV:   1    -0.705619641756E+03   -0.28415E-02   -0.42410E-02 14096   0.330E-01    0.601E-02
RMM:   2    -0.705619758046E+03   -0.11629E-03   -0.93850E-04 12354   0.559E-02    0.124E-01
RMM:   3    -0.705619717933E+03    0.40113E-04   -0.12730E-04  7455   0.225E-02    0.441E-02
RMM:   4    -0.705619733279E+03   -0.15346E-04   -0.40621E-05  7233   0.134E-02    0.846E-02
RMM:   5    -0.705619743548E+03   -0.10269E-04   -0.13843E-05  6887   0.743E-03    0.944E-02
RMM:   6    -0.705619702550E+03    0.40997E-04   -0.51402E-06  5924   0.462E-03    0.445E-02
RMM:   7    -0.705619700163E+03    0.23870E-05   -0.30002E-06  4798   0.366E-03    0.347E-02
RMM:   8    -0.705619689342E+03    0.10821E-04   -0.36718E-06  5552   0.373E-03
  39 F= -.70561969E+03 E0= -.70500462E+03  d E =-.289304E-02  mag=     7.3699
 trial-energy change:   -0.002893  1 .order   -0.002929   -0.003741   -0.002116
 step:   0.0838(harm=  0.0838)  dis= 0.00293  next Energy=  -705.621103 (dE=-0.431E-02)
 bond charge predicted
       N       E                     dE             d eps       ncg     rms          rms(c)
DAV:   1    -0.705620819947E+03   -0.11198E-02   -0.71699E-02 13920   0.429E-01    0.766E-02
RMM:   2    -0.705621141796E+03   -0.32185E-03   -0.15782E-03 13213   0.725E-02    0.220E-01
RMM:   3    -0.705620986431E+03    0.15537E-03   -0.22880E-04  8245   0.293E-02    0.111E-01
RMM:   4    -0.705620994216E+03   -0.77853E-05   -0.62397E-05  7300   0.177E-02    0.119E-01
RMM:   5    -0.705620955905E+03    0.38311E-04   -0.31597E-05  7158   0.104E-02    0.923E-02
RMM:   6    -0.705620929259E+03    0.26646E-04   -0.14497E-05  6800   0.786E-03    0.609E-02
RMM:   7    -0.705620917572E+03    0.11687E-04   -0.12957E-05  6567   0.628E-03    0.458E-02
RMM:   8    -0.705620899596E+03    0.17976E-04   -0.83904E-06  6307   0.568E-03
  40 F= -.70562090E+03 E0= -.70500589E+03  d E =-.410329E-02  mag=     7.3717
 curvature:  -0.06 expect dE=-0.418E-02 dE for cont linesearch -0.134E-04
 trial: gam= 0.54780 g(F)=  0.728E-01 g(S)=  0.000E+00 ort =-0.573E-02 (trialstep = 0.459E-01)
 search vector abs. value=  0.109E+00
 bond charge predicted
       N       E                     dE             d eps       ncg     rms          rms(c)
DAV:   1    -0.705622879496E+03   -0.19619E-02   -0.46577E-02 14096   0.344E-01    0.554E-02
RMM:   2    -0.705622996012E+03   -0.11652E-03   -0.96437E-04 12666   0.593E-02    0.129E-01
RMM:   3    -0.705622988176E+03    0.78365E-05   -0.15579E-04  7668   0.233E-02    0.763E-02
RMM:   4    -0.705623122314E+03   -0.13414E-03   -0.44171E-05  7278   0.139E-02    0.179E-01
RMM:   5    -0.705622968550E+03    0.15376E-03   -0.15276E-05  6945   0.823E-03    0.516E-02
RMM:   6    -0.705622973308E+03   -0.47585E-05   -0.52884E-06  5940   0.461E-03    0.639E-02
RMM:   7    -0.705622979923E+03   -0.66151E-05   -0.30034E-06  5147   0.385E-03    0.617E-02
RMM:   8    -0.705622979888E+03    0.35441E-07   -0.49184E-06  6319   0.406E-03
  41 F= -.70562298E+03 E0= -.70500800E+03  d E =-.208029E-02  mag=     7.3734
 trial-energy change:   -0.002080  1 .order   -0.002066   -0.003196   -0.000936
 step:   0.0649(harm=  0.0649)  dis= 0.00144  next Energy=  -705.623159 (dE=-0.226E-02)
 bond charge predicted
       N       E                     dE             d eps       ncg     rms          rms(c)
DAV:   1    -0.705623151997E+03   -0.17207E-03   -0.79665E-03 14048   0.142E-01    0.506E-02
RMM:   2    -0.705623212672E+03   -0.60675E-04   -0.18289E-04  7606   0.252E-02    0.107E-01
RMM:   3    -0.705623182006E+03    0.30666E-04   -0.28913E-05  7187   0.124E-02    0.583E-02
RMM:   4    -0.705623183972E+03   -0.19658E-05   -0.11829E-05  6831   0.664E-03    0.475E-02
RMM:   5    -0.705623182932E+03    0.10398E-05   -0.78118E-06  6435   0.590E-03    0.402E-02
RMM:   6    -0.705623185523E+03   -0.25905E-05   -0.48025E-06  5723   0.447E-03    0.221E-02
RMM:   7    -0.705623185699E+03   -0.17584E-06   -0.11645E-06  3609   0.325E-03    0.140E-02
RMM:   8    -0.705623187507E+03   -0.18081E-05   -0.41520E-08  1598   0.250E-03
  42 F= -.70562319E+03 E0= -.70500827E+03  d E =-.228791E-02  mag=     7.3750
 curvature:  -0.05 expect dE=-0.258E-02 dE for cont linesearch -0.115E-08
 trial: gam= 0.60000 g(F)=  0.509E-01 g(S)=  0.000E+00 ort = 0.496E-04 (trialstep = 0.497E-01)
 search vector abs. value=  0.901E-01
 bond charge predicted
       N       E                     dE             d eps       ncg     rms          rms(c)
DAV:   1    -0.705624518103E+03   -0.13324E-02   -0.37224E-02 14048   0.308E-01    0.533E-02
RMM:   2    -0.705624611937E+03   -0.93834E-04   -0.78618E-04 12322   0.542E-02    0.114E-01
RMM:   3    -0.705624608268E+03    0.36688E-05   -0.13170E-04  7439   0.215E-02    0.643E-02
RMM:   4    -0.705624709432E+03   -0.10116E-03   -0.38242E-05  7237   0.131E-02    0.159E-01
RMM:   5    -0.705624594968E+03    0.11446E-03   -0.14405E-05  6907   0.783E-03    0.457E-02
RMM:   6    -0.705624595517E+03   -0.54915E-06   -0.54156E-06  6071   0.475E-03    0.536E-02
RMM:   7    -0.705624599320E+03   -0.38029E-05   -0.31098E-06  5349   0.386E-03    0.526E-02
RMM:   8    -0.705624595742E+03    0.35779E-05   -0.32288E-06  5483   0.370E-03
  43 F= -.70562460E+03 E0= -.70500970E+03  d E =-.140824E-02  mag=     7.3766
 trial-energy change:   -0.001408  1 .order   -0.001411   -0.002528   -0.000294
 step:   0.0562(harm=  0.0562)  dis= 0.00130  next Energy=  -705.624618 (dE=-0.143E-02)
 bond charge predicted
       N       E                     dE             d eps       ncg     rms          rms(c)
DAV:   1    -0.705624612339E+03   -0.13018E-04   -0.63665E-04 13408   0.405E-02    0.338E-02
RMM:   2    -0.705624652435E+03   -0.40096E-04   -0.23401E-05  7151   0.853E-03    0.857E-02
RMM:   3    -0.705624641668E+03    0.10767E-04   -0.10760E-05  6793   0.661E-03    0.734E-02
RMM:   4    -0.705624632640E+03    0.90285E-05   -0.73572E-06  6164   0.514E-03    0.441E-02
RMM:   5    -0.705624625526E+03    0.71133E-05   -0.20054E-06  4740   0.384E-03    0.136E-02
RMM:   6    -0.705624629470E+03   -0.39432E-05   -0.51324E-07  1832   0.260E-03    0.692E-03
RMM:   7    -0.705624631120E+03   -0.16507E-05   -0.15434E-07  1618   0.229E-03    0.662E-03
RMM:   8    -0.705624633596E+03   -0.24757E-05   -0.38324E-09  1053   0.213E-03
  44 F= -.70562463E+03 E0= -.70500977E+03  d E =-.144609E-02  mag=     7.3779
 curvature:  -0.05 expect dE=-0.170E-02 dE for cont linesearch -0.558E-08
 trial: gam= 0.67991 g(F)=  0.342E-01 g(S)=  0.000E+00 ort =-0.101E-03 (trialstep = 0.510E-01)
 search vector abs. value=  0.757E-01
 bond charge predicted
       N       E                     dE             d eps       ncg     rms          rms(c)
DAV:   1    -0.705625984845E+03   -0.13537E-02   -0.19950E-02 13936   0.219E-01    0.377E-02
RMM:   2    -0.705626033037E+03   -0.48192E-04   -0.41332E-04  9422   0.386E-02    0.694E-02
RMM:   3    -0.705626031549E+03    0.14884E-05   -0.64743E-05  7182   0.171E-02    0.314E-02
RMM:   4    -0.705626093060E+03   -0.61511E-04   -0.20042E-05  7061   0.890E-03    0.113E-01
RMM:   5    -0.705626033652E+03    0.59408E-04   -0.95514E-06  6639   0.649E-03    0.345E-02
RMM:   6    -0.705626037969E+03   -0.43171E-05   -0.35550E-06  5513   0.391E-03    0.200E-02
RMM:   7    -0.705626042544E+03   -0.45753E-05   -0.70591E-07  2991   0.300E-03    0.204E-02
RMM:   8    -0.705626048273E+03   -0.57288E-05   -0.92292E-07  2840   0.307E-03
  45 F= -.70562605E+03 E0= -.70501121E+03  d E =-.141468E-02  mag=     7.3789
 trial-energy change:   -0.001415  1 .order   -0.001368   -0.001739   -0.000998
 step:   0.1196(harm=  0.1196)  dis= 0.00205  next Energy=  -705.626673 (dE=-0.204E-02)
 bond charge predicted
       N       E                     dE             d eps       ncg     rms          rms(c)
DAV:   1    -0.705626524694E+03   -0.48215E-03   -0.35966E-02 13984   0.294E-01    0.541E-02
RMM:   2    -0.705626601827E+03   -0.77133E-04   -0.74234E-04 12236   0.517E-02    0.805E-02
RMM:   3    -0.705626603444E+03   -0.16173E-05   -0.12619E-04  7389   0.210E-02    0.358E-02
RMM:   4    -0.705626709825E+03   -0.10638E-03   -0.38317E-05  7282   0.132E-02    0.147E-01
RMM:   5    -0.705626609473E+03    0.10035E-03   -0.13637E-05  6903   0.759E-03    0.547E-02
RMM:   6    -0.705626609971E+03   -0.49787E-06   -0.64367E-06  6298   0.488E-03    0.314E-02
RMM:   7    -0.705626611849E+03   -0.18788E-05   -0.27438E-06  4956   0.377E-03    0.278E-02
RMM:   8    -0.705626616997E+03   -0.51480E-05   -0.13947E-06  3751   0.323E-03
  46 F= -.70562662E+03 E0= -.70501182E+03  d E =-.198340E-02  mag=     7.3795
 curvature:  -0.13 expect dE=-0.610E-02 dE for cont linesearch -0.296E-04
 trial: gam= 1.35989 g(F)=  0.460E-01 g(S)=  0.000E+00 ort =-0.411E-02 (trialstep = 0.280E-01)
 search vector abs. value=  0.175E+00
 bond charge predicted
       N       E                     dE             d eps       ncg     rms          rms(c)
DAV:   1    -0.705627483195E+03   -0.87135E-03   -0.85431E-03 14192   0.143E-01    0.341E-02
RMM:   2    -0.705627526146E+03   -0.42951E-04   -0.17831E-04  7560   0.262E-02    0.793E-02
RMM:   3    -0.705627520859E+03    0.52866E-05   -0.33168E-05  7177   0.131E-02    0.579E-02
RMM:   4    -0.705627508330E+03    0.12529E-04   -0.94278E-06  6764   0.612E-03    0.341E-02
RMM:   5    -0.705627514979E+03   -0.66489E-05   -0.41085E-06  6108   0.431E-03    0.308E-02
RMM:   6    -0.705627515335E+03   -0.35526E-06   -0.21995E-06  4343   0.361E-03    0.268E-02
RMM:   7    -0.705627516397E+03   -0.10621E-05   -0.84069E-07  3343   0.316E-03    0.115E-02
RMM:   8    -0.705627518689E+03   -0.22925E-05   -0.16233E-07  1644   0.278E-03
  47 F= -.70562752E+03 E0= -.70501275E+03  d E =-.901692E-03  mag=     7.3799
 trial-energy change:   -0.000902  1 .order   -0.000879   -0.001132   -0.000626
 step:   0.0628(harm=  0.0628)  dis= 0.00104  next Energy=  -705.627884 (dE=-0.127E-02)
 bond charge predicted
       N       E                     dE             d eps       ncg     rms          rms(c)
DAV:   1    -0.705627991746E+03   -0.47535E-03   -0.13100E-02 14064   0.177E-01    0.330E-02
RMM:   2    -0.705628030143E+03   -0.38397E-04   -0.26211E-04  8045   0.321E-02    0.749E-02
RMM:   3    -0.705628026033E+03    0.41104E-05   -0.44726E-05  7169   0.149E-02    0.364E-02
RMM:   4    -0.705628041293E+03   -0.15260E-04   -0.13167E-05  6924   0.726E-03    0.663E-02
RMM:   5    -0.705628027440E+03    0.13853E-04   -0.61447E-06  6441   0.534E-03    0.317E-02
RMM:   6    -0.705628028537E+03   -0.10971E-05   -0.23451E-06  4367   0.349E-03    0.213E-02
RMM:   7    -0.705628029849E+03   -0.13119E-05   -0.14655E-06  3943   0.330E-03    0.106E-02
RMM:   8    -0.705628031254E+03   -0.14050E-05   -0.21984E-07  1917   0.282E-03
  48 F= -.70562803E+03 E0= -.70501331E+03  d E =-.141426E-02  mag=     7.3800
 curvature:  -0.14 expect dE=-0.401E-02 dE for cont linesearch -0.442E-04
 ZBRENT: increasing intervall
 opt :   0.1323  next Energy=  -705.627527 (dE=-0.910E-03)
 bond charge predicted
       N       E                     dE             d eps       ncg     rms          rms(c)
DAV:   1    -0.705627461214E+03    0.56863E-03   -0.52451E-02 14064   0.353E-01    0.642E-02
RMM:   2    -0.705627582925E+03   -0.12171E-03   -0.10105E-03 13216   0.636E-02    0.116E-01
RMM:   3    -0.705627583978E+03   -0.10531E-05   -0.20480E-04  8016   0.254E-02    0.667E-02
RMM:   4    -0.705627662288E+03   -0.78310E-04   -0.51274E-05  7304   0.161E-02    0.140E-01
RMM:   5    -0.705627583098E+03    0.79190E-04   -0.23081E-05  7198   0.930E-03    0.650E-02
RMM:   6    -0.705627579653E+03    0.34446E-05   -0.13708E-05  6760   0.704E-03    0.492E-02
RMM:   7    -0.705627576285E+03    0.33686E-05   -0.77294E-06  6406   0.552E-03    0.290E-02
RMM:   8    -0.705627573952E+03    0.23326E-05   -0.33623E-06  5420   0.395E-03
  49 F= -.70562757E+03 E0= -.70501291E+03  d E =-.956955E-03  mag=     7.3796
 curvature:   1.55 expect dE= 0.177E+00 dE for cont linesearch  0.515E-02
 ZBRENT: bracketing found
 ZBRENT: interpolating
 opt :   0.0793  next Energy=  -705.628094 (dE=-0.148E-02)
 bond charge predicted
       N       E                     dE             d eps       ncg     rms          rms(c)
DAV:   1    -0.705628033355E+03   -0.45707E-03   -0.30486E-02 14016   0.269E-01    0.558E-02
RMM:   2    -0.705628174195E+03   -0.14084E-03   -0.59753E-04 12035   0.489E-02    0.154E-01
RMM:   3    -0.705628138227E+03    0.35967E-04   -0.12062E-04  7321   0.211E-02    0.103E-01
RMM:   4    -0.705628098706E+03    0.39522E-04   -0.31824E-05  7175   0.128E-02    0.524E-02
RMM:   5    -0.705628101092E+03   -0.23867E-05   -0.11992E-05  6822   0.672E-03    0.492E-02
RMM:   6    -0.705628100592E+03    0.50087E-06   -0.87558E-06  6548   0.533E-03    0.367E-02
RMM:   7    -0.705628099830E+03    0.76176E-06   -0.64456E-06  6315   0.510E-03    0.177E-02
RMM:   8    -0.705628099839E+03   -0.92477E-08   -0.13143E-06  3818   0.324E-03
  50 F= -.70562810E+03 E0= -.70501338E+03  d E =-.148284E-02  mag=     7.3795
 curvature:  -0.02 expect dE=-0.761E-03 dE for cont linesearch -0.589E-08
 trial: gam= 0.67933 g(F)=  0.405E-01 g(S)=  0.000E+00 ort = 0.234E-03 (trialstep = 0.383E-01)
 search vector abs. value=  0.121E+00
 bond charge predicted
       N       E                     dE             d eps       ncg     rms          rms(c)
DAV:   1    -0.705629300777E+03   -0.12009E-02   -0.12734E-02 13984   0.180E-01    0.360E-02
RMM:   2    -0.705629343867E+03   -0.43090E-04   -0.28703E-04  8209   0.329E-02    0.946E-02
RMM:   3    -0.705629326351E+03    0.17516E-04   -0.43145E-05  7170   0.151E-02    0.376E-02
RMM:   4    -0.705629380619E+03   -0.54268E-04   -0.16255E-05  6996   0.732E-03    0.111E-01
RMM:   5    -0.705629323249E+03    0.57369E-04   -0.83488E-06  6520   0.612E-03    0.331E-02
RMM:   6    -0.705629325324E+03   -0.20750E-05   -0.31836E-06  4984   0.368E-03    0.260E-02
RMM:   7    -0.705629325370E+03   -0.45809E-07   -0.92361E-07  3440   0.311E-03    0.196E-02
RMM:   8    -0.705629325458E+03   -0.87741E-07   -0.52701E-07  2234   0.289E-03
  51 F= -.70562933E+03 E0= -.70501463E+03  d E =-.122562E-02  mag=     7.3794
 trial-energy change:   -0.001226  1 .order   -0.001219   -0.001556   -0.000882
 step:   0.0884(harm=  0.0884)  dis= 0.00147  next Energy=  -705.629895 (dE=-0.180E-02)
 bond charge predicted
       N       E                     dE             d eps       ncg     rms          rms(c)
DAV:   1    -0.705629582674E+03   -0.25730E-03   -0.21678E-02 14160   0.235E-01    0.480E-02
RMM:   2    -0.705629640649E+03   -0.57975E-04   -0.47775E-04 10022   0.427E-02    0.999E-02
RMM:   3    -0.705629627786E+03    0.12863E-04   -0.75669E-05  7208   0.182E-02    0.496E-02
RMM:   4    -0.705629725964E+03   -0.98177E-04   -0.28997E-05  7215   0.104E-02    0.141E-01
RMM:   5    -0.705629624946E+03    0.10102E-03   -0.15617E-05  6825   0.800E-03    0.542E-02
RMM:   6    -0.705629625475E+03   -0.52842E-06   -0.57552E-06  6069   0.475E-03    0.386E-02
RMM:   7    -0.705629623306E+03    0.21687E-05   -0.16057E-06  4165   0.340E-03    0.296E-02
RMM:   8    -0.705629622894E+03    0.41255E-06   -0.60571E-07  2833   0.298E-03
  52 F= -.70562962E+03 E0= -.70501496E+03  d E =-.152305E-02  mag=     7.3791
 curvature:  -0.13 expect dE=-0.750E-02 dE for cont linesearch -0.181E-03
 ZBRENT: interpolating
 opt :   0.0704  next Energy=  -705.629739 (dE=-0.164E-02)
 bond charge predicted
       N       E                     dE             d eps       ncg     rms          rms(c)
DAV:   1    -0.705629720558E+03   -0.97252E-04   -0.28284E-03 13936   0.849E-02    0.267E-02
RMM:   2    -0.705629746376E+03   -0.25818E-04   -0.71598E-05  7221   0.163E-02    0.707E-02
RMM:   3    -0.705629732491E+03    0.13885E-04   -0.16571E-05  7098   0.958E-03    0.396E-02
RMM:   4    -0.705629725317E+03    0.71735E-05   -0.25335E-06  5151   0.360E-03    0.124E-02
RMM:   5    -0.705629726926E+03   -0.16085E-05   -0.35138E-07  2277   0.268E-03    0.111E-02
RMM:   6    -0.705629727727E+03   -0.80156E-06   -0.15141E-07  1745   0.266E-03    0.109E-02
RMM:   7    -0.705629729148E+03   -0.14210E-05   -0.42993E-07  2052   0.287E-03    0.758E-03
RMM:   8    -0.705629729385E+03   -0.23698E-06   -0.51576E-07  1943   0.289E-03
  53 F= -.70562973E+03 E0= -.70501505E+03  d E =-.162955E-02  mag=     7.3789
 curvature:  -0.08 expect dE=-0.285E-02 dE for cont linesearch -0.101E-05
 trial: gam= 0.89365 g(F)=  0.337E-01 g(S)=  0.000E+00 ort = 0.120E-02 (trialstep = 0.409E-01)
 search vector abs. value=  0.133E+00
 bond charge predicted
       N       E                     dE             d eps       ncg     rms          rms(c)
DAV:   1    -0.705630658868E+03   -0.92972E-03   -0.14917E-02 14048   0.194E-01    0.377E-02
RMM:   2    -0.705630727849E+03   -0.68981E-04   -0.32341E-04  8492   0.348E-02    0.129E-01
RMM:   3    -0.705630689873E+03    0.37976E-04   -0.48388E-05  7176   0.160E-02    0.575E-02
RMM:   4    -0.705630717114E+03   -0.27240E-04   -0.13739E-05  6970   0.729E-03    0.945E-02
RMM:   5    -0.705630684512E+03    0.32602E-04   -0.10019E-05  6584   0.612E-03    0.433E-02
RMM:   6    -0.705630682220E+03    0.22916E-05   -0.40311E-06  5625   0.413E-03    0.311E-02
RMM:   7    -0.705630681609E+03    0.61108E-06   -0.93502E-07  3464   0.314E-03    0.251E-02
RMM:   8    -0.705630680646E+03    0.96259E-06   -0.74264E-07  2546   0.297E-03
  54 F= -.70563068E+03 E0= -.70501602E+03  d E =-.951261E-03  mag=     7.3786
 trial-energy change:   -0.000951  1 .order   -0.000941   -0.001421   -0.000461
 step:   0.0606(harm=  0.0606)  dis= 0.00084  next Energy=  -705.630781 (dE=-0.105E-02)
 bond charge predicted
       N       E                     dE             d eps       ncg     rms          rms(c)
DAV:   1    -0.705630760843E+03   -0.79234E-04   -0.34148E-03 14048   0.930E-02    0.242E-02
RMM:   2    -0.705630787604E+03   -0.26761E-04   -0.77059E-05  7286   0.169E-02    0.634E-02
RMM:   3    -0.705630767237E+03    0.20367E-04   -0.11945E-05  7116   0.816E-03    0.282E-02
RMM:   4    -0.705630767601E+03   -0.36418E-06   -0.29062E-06  5434   0.367E-03    0.231E-02
RMM:   5    -0.705630768117E+03   -0.51585E-06   -0.16898E-06  4040   0.331E-03    0.242E-02
RMM:   6    -0.705630764693E+03    0.34245E-05   -0.66487E-07  2991   0.304E-03    0.147E-02
RMM:   7    -0.705630763328E+03    0.13645E-05   -0.17209E-07  1993   0.290E-03    0.903E-03
RMM:   8    -0.705630763162E+03    0.16596E-06   -0.19644E-08  1341   0.272E-03
  55 F= -.70563076E+03 E0= -.70501611E+03  d E =-.103378E-02  mag=     7.3781
 curvature:  -0.12 expect dE=-0.448E-02 dE for cont linesearch -0.278E-05
 trial: gam= 0.81607 g(F)=  0.387E-01 g(S)=  0.000E+00 ort =-0.179E-02 (trialstep = 0.448E-01)
 search vector abs. value=  0.124E+00
 bond charge predicted
       N       E                     dE             d eps       ncg     rms          rms(c)
DAV:   1    -0.705632184382E+03   -0.14211E-02   -0.14311E-02 14016   0.188E-01    0.373E-02
RMM:   2    -0.705632221740E+03   -0.37358E-04   -0.28008E-04  8179   0.323E-02    0.823E-02
RMM:   3    -0.705632211824E+03    0.99159E-05   -0.42617E-05  7170   0.147E-02    0.385E-02
RMM:   4    -0.705632268317E+03   -0.56493E-04   -0.16380E-05  7058   0.746E-03    0.113E-01
RMM:   5    -0.705632205400E+03    0.62917E-04   -0.90534E-06  6542   0.630E-03    0.284E-02
RMM:   6    -0.705632206050E+03   -0.65030E-06   -0.30563E-06  5084   0.371E-03    0.255E-02
RMM:   7    -0.705632205209E+03    0.84091E-06   -0.58493E-07  2913   0.298E-03    0.216E-02
RMM:   8    -0.705632203578E+03    0.16313E-05   -0.41154E-07  2046   0.290E-03
  56 F= -.70563220E+03 E0= -.70501756E+03  d E =-.144042E-02  mag=     7.3773
 trial-energy change:   -0.001440  1 .order   -0.001415   -0.001669   -0.001161
 step:   0.1473(harm=  0.1473)  dis= 0.00194  next Energy=  -705.633504 (dE=-0.274E-02)
 bond charge predicted
       N       E                     dE             d eps       ncg     rms          rms(c)
DAV:   1    -0.705632614620E+03   -0.40941E-03   -0.74919E-02 13856   0.431E-01    0.906E-02
RMM:   2    -0.705632813454E+03   -0.19883E-03   -0.14301E-03 13376   0.736E-02    0.178E-01
RMM:   3    -0.705632766376E+03    0.47079E-04   -0.25881E-04  8665   0.291E-02    0.956E-02
RMM:   4    -0.705632977410E+03   -0.21103E-03   -0.77321E-05  7538   0.184E-02    0.223E-01
RMM:   5    -0.705632748259E+03    0.22915E-03   -0.40588E-05  7274   0.126E-02    0.841E-02
RMM:   6    -0.705632738208E+03    0.10050E-04   -0.21228E-05  6982   0.888E-03    0.574E-02
RMM:   7    -0.705632731460E+03    0.67489E-05   -0.10955E-05  6523   0.643E-03    0.383E-02
RMM:   8    -0.705632727737E+03    0.37228E-05   -0.46975E-06  5709   0.455E-03
  57 F= -.70563273E+03 E0= -.70501810E+03  d E =-.196457E-02  mag=     7.3760
 curvature:  -0.25 expect dE=-0.101E-01 dE for cont linesearch -0.249E-03
 ZBRENT: interpolating
 opt :   0.1163  next Energy=  -705.632902 (dE=-0.214E-02)
 bond charge predicted
       N       E                     dE             d eps       ncg     rms          rms(c)
DAV:   1    -0.705632943500E+03   -0.21204E-03   -0.68753E-03 14128   0.131E-01    0.399E-02
RMM:   2    -0.705633035866E+03   -0.92366E-04   -0.15737E-04  7428   0.239E-02    0.137E-01
RMM:   3    -0.705632994077E+03    0.41789E-04   -0.36119E-05  7180   0.137E-02    0.897E-02
RMM:   4    -0.705632955428E+03    0.38649E-04   -0.87437E-06  6740   0.603E-03    0.231E-02
RMM:   5    -0.705632959914E+03   -0.44867E-05   -0.24616E-06  5201   0.379E-03    0.240E-02
RMM:   6    -0.705632964283E+03   -0.43689E-05   -0.15337E-06  3995   0.327E-03    0.244E-02
RMM:   7    -0.705632968458E+03   -0.41747E-05   -0.14439E-06  3837   0.332E-03    0.185E-02
RMM:   8    -0.705632970029E+03   -0.15710E-05   -0.15603E-07  1489   0.274E-03
  58 F= -.70563297E+03 E0= -.70501833E+03  d E =-.220687E-02  mag=     7.3752
 curvature:  -0.17 expect dE=-0.538E-02 dE for cont linesearch -0.125E-04
 trial: gam= 0.31278 g(F)=  0.314E-01 g(S)=  0.000E+00 ort =-0.301E-02 (trialstep = 0.591E-01)
 search vector abs. value=  0.417E-01
 bond charge predicted
       N       E                     dE             d eps       ncg     rms          rms(c)
DAV:   1    -0.705633976871E+03   -0.10084E-02   -0.14509E-02 14080   0.200E-01    0.542E-02
RMM:   2    -0.705634053271E+03   -0.76400E-04   -0.42271E-04  9363   0.384E-02    0.132E-01
RMM:   3    -0.705633999669E+03    0.53602E-04   -0.65625E-05  7228   0.181E-02    0.364E-02
RMM:   4    -0.705634032493E+03   -0.32824E-04   -0.25871E-05  7125   0.960E-03    0.901E-02
RMM:   5    -0.705634007025E+03    0.25467E-04   -0.92473E-06  6582   0.628E-03    0.495E-02
RMM:   6    -0.705634005846E+03    0.11794E-05   -0.56470E-06  5838   0.421E-03    0.339E-02
RMM:   7    -0.705634006256E+03   -0.41054E-06   -0.29683E-06  5254   0.394E-03    0.201E-02
RMM:   8    -0.705634007956E+03   -0.16998E-05   -0.46346E-07  2348   0.280E-03
  59 F= -.70563401E+03 E0= -.70501938E+03  d E =-.103793E-02  mag=     7.3745
 trial-energy change:   -0.001038  1 .order   -0.001030   -0.001801   -0.000259
 step:   0.0690(harm=  0.0690)  dis= 0.00195  next Energy=  -705.634022 (dE=-0.105E-02)
 bond charge predicted
       N       E                     dE             d eps       ncg     rms          rms(c)
DAV:   1    -0.705634029107E+03   -0.22851E-04   -0.40185E-04 13472   0.336E-02    0.136E-02
RMM:   2    -0.705634047228E+03   -0.18121E-04   -0.15890E-05  7187   0.762E-03    0.483E-02
RMM:   3    -0.705634035304E+03    0.11924E-04   -0.37055E-06  6340   0.457E-03    0.295E-02
RMM:   4    -0.705634031858E+03    0.34452E-05   -0.62801E-08  1568   0.221E-03    0.997E-03
RMM:   5    -0.705634033743E+03   -0.18848E-05   -0.18400E-07  1396   0.227E-03    0.132E-02
RMM:   6    -0.705634036247E+03   -0.25038E-05   -0.15866E-09  1094   0.215E-03    0.113E-02
RMM:   7    -0.705634037171E+03   -0.92355E-06   -0.38752E-10  1046   0.220E-03    0.582E-03
RMM:   8    -0.705634037762E+03   -0.59143E-06   -0.12661E-09   997   0.221E-03
  60 F= -.70563404E+03 E0= -.70501941E+03  d E =-.106773E-02  mag=     7.3739
 curvature:  -0.05 expect dE=-0.116E-02 dE for cont linesearch -0.373E-09
[...]
DAV:   1    -0.705675624160E+03   -0.10961E-03   -0.51592E-03 13376   0.110E-01    0.243E-02
RMM:   2    -0.705675660599E+03   -0.36439E-04   -0.11082E-04  7384   0.186E-02    0.596E-02
RMM:   3    -0.705675650435E+03    0.10164E-04   -0.15882E-05  7047   0.870E-03    0.409E-02
RMM:   4    -0.705675646978E+03    0.34572E-05   -0.38254E-06  5663   0.415E-03    0.160E-02
RMM:   5    -0.705675651360E+03   -0.43819E-05   -0.10350E-06  3297   0.313E-03    0.202E-02
RMM:   6    -0.705675656639E+03   -0.52791E-05   -0.64352E-07  2705   0.289E-03    0.159E-02
RMM:   7    -0.705675659430E+03   -0.27915E-05   -0.94081E-08  1692   0.268E-03    0.773E-03
RMM:   8    -0.705675662829E+03   -0.33986E-05   -0.58524E-09  1224   0.256E-03
 106 F= -.70567566E+03 E0= -.70506143E+03  d E =-.145964E-02  mag=     7.3416
 curvature:  -0.05 expect dE=-0.161E-02 dE for cont linesearch -0.296E-09
 trial: gam= 0.00350 g(F)=  0.354E-01 g(S)=  0.000E+00 ort = 0.310E-04 (trialstep = 0.308E-01)
 search vector abs. value=  0.354E-01
 bond charge predicted
       N       E                     dE             d eps       ncg     rms          rms(c)
DAV:   1    -0.705676569805E+03   -0.91038E-03   -0.56824E-03 13840   0.121E-01    0.251E-02
RMM:   2    -0.705676608190E+03   -0.38385E-04   -0.13928E-04  7410   0.220E-02    0.673E-02
RMM:   3    -0.705676600044E+03    0.81455E-05   -0.19502E-05  7139   0.103E-02    0.424E-02
RMM:   4    -0.705676598198E+03    0.18468E-05   -0.45463E-06  6313   0.448E-03    0.261E-02
RMM:   5    -0.705676610323E+03   -0.12125E-04   -0.27692E-06  4679   0.362E-03    0.284E-02
RMM:   6    -0.705676626020E+03   -0.15698E-04   -0.80684E-07  3000   0.312E-03    0.133E-02
RMM:   7    -0.705676642405E+03   -0.16385E-04   -0.11471E-06  3286   0.311E-03    0.905E-03
RMM:   8    -0.705676652983E+03   -0.10578E-04   -0.41470E-07  2205   0.275E-03
 107 F= -.70567665E+03 E0= -.70506241E+03  d E =-.990155E-03  mag=     7.3399
 trial-energy change:   -0.000990  1 .order   -0.000913   -0.001091   -0.000736
 step:   0.0946(harm=  0.0946)  dis= 0.00134  next Energy=  -705.677338 (dE=-0.168E-02)
 bond charge predicted
       N       E                     dE             d eps       ncg     rms          rms(c)
DAV:   1    -0.705677433847E+03   -0.79144E-03   -0.24249E-02 14144   0.250E-01    0.519E-02
RMM:   2    -0.705677543194E+03   -0.10935E-03   -0.58551E-04 10887   0.454E-02    0.126E-01
RMM:   3    -0.705677518753E+03    0.24441E-04   -0.87948E-05  7304   0.193E-02    0.821E-02
RMM:   4    -0.705677510415E+03    0.83383E-05   -0.22882E-05  7163   0.106E-02    0.653E-02
RMM:   5    -0.705677512753E+03   -0.23388E-05   -0.13988E-05  6768   0.660E-03    0.540E-02
RMM:   6    -0.705677522269E+03   -0.95159E-05   -0.69425E-06  6142   0.535E-03    0.288E-02
RMM:   7    -0.705677536787E+03   -0.14517E-04   -0.48516E-06  5820   0.417E-03    0.238E-02
RMM:   8    -0.705677543528E+03   -0.67417E-05   -0.19919E-06  4481   0.355E-03
 108 F= -.70567754E+03 E0= -.70506326E+03  d E =-.188070E-02  mag=     7.3395
 curvature:  -0.05 expect dE=-0.745E-03 dE for cont linesearch -0.263E-05
 trial: gam= 0.40528 g(F)=  0.157E-01 g(S)=  0.000E+00 ort = 0.140E-02 (trialstep = 0.436E-01)
 search vector abs. value=  0.227E-01
 bond charge predicted
       N       E                     dE             d eps       ncg     rms          rms(c)
DAV:   1    -0.705678034065E+03   -0.49728E-03   -0.44003E-03 13728   0.102E-01    0.205E-02
RMM:   2    -0.705678058853E+03   -0.24788E-04   -0.88012E-05  7260   0.181E-02    0.575E-02
RMM:   3    -0.705678053103E+03    0.57501E-05   -0.14419E-05  7144   0.890E-03    0.240E-02
RMM:   4    -0.705678057726E+03   -0.46231E-05   -0.41168E-06  6095   0.414E-03    0.345E-02
RMM:   5    -0.705678059585E+03   -0.18591E-05   -0.16476E-06  4406   0.345E-03    0.228E-02
RMM:   6    -0.705678063906E+03   -0.43209E-05   -0.47294E-07  2686   0.287E-03    0.120E-02
RMM:   7    -0.705678067974E+03   -0.40679E-05   -0.32717E-07  2188   0.267E-03    0.992E-03
RMM:   8    -0.705678071258E+03   -0.32836E-05   -0.16330E-07  1603   0.263E-03
 109 F= -.70567807E+03 E0= -.70506378E+03  d E =-.527730E-03  mag=     7.3392
 trial-energy change:   -0.000528  1 .order   -0.000499   -0.000711   -0.000286
 step:   0.0730(harm=  0.0730)  dis= 0.00064  next Energy=  -705.678139 (dE=-0.595E-03)
 bond charge predicted
       N       E                     dE             d eps       ncg     rms          rms(c)
DAV:   1    -0.705678169614E+03   -0.10164E-03   -0.19958E-03 13648   0.684E-02    0.132E-02
RMM:   2    -0.705678181174E+03   -0.11561E-04   -0.40704E-05  7142   0.125E-02    0.328E-02
RMM:   3    -0.705678177789E+03    0.33857E-05   -0.67584E-06  6933   0.606E-03    0.197E-02
RMM:   4    -0.705678177531E+03    0.25732E-06   -0.48988E-07  2592   0.289E-03    0.765E-03
RMM:   5    -0.705678180497E+03   -0.29657E-05   -0.97335E-08  1887   0.276E-03    0.140E-02
RMM:   6    -0.705678182574E+03   -0.20769E-05   -0.77959E-08  1499   0.279E-03    0.592E-03
RMM:   7    -0.705678184911E+03   -0.23374E-05   -0.25321E-07  1649   0.290E-03    0.380E-03
RMM:   8    -0.705678185663E+03   -0.75181E-06   -0.23493E-08  1146   0.279E-03
 110 F= -.70567819E+03 E0= -.70506388E+03  d E =-.642135E-03  mag=     7.3391
 curvature:  -0.05 expect dE=-0.749E-03 dE for cont linesearch -0.411E-06
 trial: gam= 0.92605 g(F)=  0.148E-01 g(S)=  0.000E+00 ort = 0.429E-03 (trialstep = 0.321E-01)
 search vector abs. value=  0.350E-01
 bond charge predicted
       N       E                     dE             d eps       ncg     rms          rms(c)
DAV:   1    -0.705678508970E+03   -0.32406E-03   -0.39769E-03 13856   0.949E-02    0.184E-02
RMM:   2    -0.705678521112E+03   -0.12142E-04   -0.81749E-05  7229   0.178E-02    0.408E-02
RMM:   3    -0.705678519101E+03    0.20111E-05   -0.13442E-05  7126   0.856E-03    0.223E-02
RMM:   4    -0.705678522584E+03   -0.34830E-05   -0.38188E-06  6049   0.399E-03    0.336E-02
RMM:   5    -0.705678519458E+03    0.31260E-05   -0.13343E-06  4099   0.332E-03    0.181E-02
RMM:   6    -0.705678519648E+03   -0.18986E-06   -0.69178E-07  2897   0.291E-03    0.120E-02
RMM:   7    -0.705678519363E+03    0.28435E-06   -0.22379E-07  1979   0.267E-03    0.854E-03
RMM:   8    -0.705678519642E+03   -0.27859E-06   -0.28647E-07  1748   0.271E-03
 111 F= -.70567852E+03 E0= -.70506419E+03  d E =-.333979E-03  mag=     7.3392
 trial-energy change:   -0.000334  1 .order   -0.000329   -0.000486   -0.000172
 step:   0.0496(harm=  0.0496)  dis= 0.00040  next Energy=  -705.678561 (dE=-0.376E-03)
 bond charge predicted
       N       E                     dE             d eps       ncg     rms          rms(c)
DAV:   1    -0.705678572895E+03   -0.53532E-04   -0.11714E-03 13168   0.517E-02    0.108E-02
RMM:   2    -0.705678576496E+03   -0.36011E-05   -0.25155E-05  7135   0.100E-02    0.150E-02
RMM:   3    -0.705678576848E+03   -0.35155E-06   -0.42023E-06  6712   0.480E-03    0.140E-02
RMM:   4    -0.705678577000E+03   -0.15234E-06   -0.39834E-08  1681   0.241E-03    0.141E-02
RMM:   5    -0.705678576786E+03    0.21467E-06   -0.18763E-08  1513   0.242E-03    0.108E-02
RMM:   6    -0.705678576145E+03    0.64047E-06   -0.32614E-09  1361   0.234E-03    0.804E-03
RMM:   7    -0.705678575935E+03    0.21025E-06   -0.35577E-10  1121   0.239E-03    0.307E-03
RMM:   8    -0.705678575969E+03   -0.33731E-07   -0.33418E-09  1066   0.244E-03
 112 F= -.70567858E+03 E0= -.70506423E+03  d E =-.390305E-03  mag=     7.3395
 curvature:  -0.06 expect dE=-0.213E-03 dE for cont linesearch -0.853E-06
 trial: gam= 0.26777 g(F)=  0.371E-02 g(S)=  0.000E+00 ort = 0.722E-03 (trialstep = 0.356E-01)
 search vector abs. value=  0.661E-02
 bond charge predicted
       N       E                     dE             d eps       ncg     rms          rms(c)
DAV:   1    -0.705678683022E+03   -0.10709E-03   -0.14347E-03 13280   0.560E-02    0.105E-02
RMM:   2    -0.705678686719E+03   -0.36976E-05   -0.29537E-05  7152   0.106E-02    0.184E-02
RMM:   3    -0.705678686684E+03    0.34997E-07   -0.46845E-06  6692   0.506E-03    0.118E-02
RMM:   4    -0.705678689245E+03   -0.25603E-05   -0.11336E-07  1874   0.251E-03    0.212E-02
RMM:   5    -0.705678687146E+03    0.20987E-05   -0.79469E-08  1730   0.249E-03    0.877E-03
RMM:   6    -0.705678688347E+03   -0.12008E-05   -0.11300E-08  1170   0.244E-03    0.478E-03
RMM:   7    -0.705678689187E+03   -0.83987E-06   -0.11683E-08  1116   0.253E-03    0.336E-03
RMM:   8    -0.705678690066E+03   -0.87947E-06   -0.32567E-08  1136   0.258E-03
 113 F= -.70567869E+03 E0= -.70506434E+03  d E =-.114098E-03  mag=     7.3396
 trial-energy change:   -0.000114  1 .order   -0.000106   -0.000139   -0.000072
 step:   0.0739(harm=  0.0739)  dis= 0.00029  next Energy=  -705.678720 (dE=-0.144E-03)
 bond charge predicted
       N       E                     dE             d eps       ncg     rms          rms(c)
DAV:   1    -0.705678723443E+03   -0.34257E-04   -0.16491E-03 13248   0.602E-02    0.114E-02
RMM:   2    -0.705678727473E+03   -0.40292E-05   -0.34821E-05  7140   0.116E-02    0.180E-02
RMM:   3    -0.705678727528E+03   -0.55297E-07   -0.55705E-06  6820   0.550E-03    0.906E-03
RMM:   4    -0.705678732932E+03   -0.54044E-05   -0.40610E-07  2445   0.280E-03    0.309E-02
RMM:   5    -0.705678728494E+03    0.44384E-05   -0.74565E-08  1902   0.267E-03    0.124E-02
RMM:   6    -0.705678728929E+03   -0.43480E-06   -0.17955E-08  1318   0.257E-03    0.617E-03
RMM:   7    -0.705678729809E+03   -0.88000E-06   -0.16074E-08  1174   0.264E-03    0.466E-03
RMM:   8    -0.705678730242E+03   -0.43304E-06   -0.22085E-08  1103   0.267E-03
 114 F= -.70567873E+03 E0= -.70506437E+03  d E =-.154273E-03  mag=     7.3396
 curvature:  -0.06 expect dE=-0.919E-04 dE for cont linesearch -0.420E-06
 trial: gam= 0.47212 g(F)=  0.147E-02 g(S)=  0.000E+00 ort =-0.211E-03 (trialstep = 0.432E-01)
 search vector abs. value=  0.274E-02
 bond charge predicted
       N       E                     dE             d eps       ncg     rms          rms(c)
DAV:   1    -0.705678772207E+03   -0.42398E-04   -0.10999E-03 13216   0.468E-02    0.102E-02
RMM:   2    -0.705678775539E+03   -0.33320E-05   -0.24260E-05  7128   0.969E-03    0.192E-02
RMM:   3    -0.705678775000E+03    0.53846E-06   -0.41178E-06  6531   0.480E-03    0.117E-02
RMM:   4    -0.705678776573E+03   -0.15723E-05   -0.55881E-08  1672   0.246E-03    0.188E-02
RMM:   5    -0.705678774504E+03    0.20688E-05   -0.61470E-08  1619   0.247E-03    0.712E-03
RMM:   6    -0.705678775002E+03   -0.49800E-06   -0.14508E-08  1151   0.243E-03    0.659E-03
RMM:   7    -0.705678774553E+03    0.44859E-06   -0.17499E-08  1094   0.252E-03    0.360E-03
RMM:   8    -0.705678774501E+03    0.52009E-07   -0.32866E-08  1060   0.258E-03
 115 F= -.70567877E+03 E0= -.70506440E+03  d E =-.442595E-04  mag=     7.3398
 trial-energy change:   -0.000044  1 .order   -0.000042   -0.000059   -0.000025
 step:   0.0747(harm=  0.0747)  dis= 0.00029  next Energy=  -705.678781 (dE=-0.512E-04)
 bond charge predicted
       N       E                     dE             d eps       ncg     rms          rms(c)
DAV:   1    -0.705678785334E+03   -0.10781E-04   -0.58084E-04 13040   0.341E-02    0.732E-03
RMM:   2    -0.705678787029E+03   -0.16952E-05   -0.13863E-05  7039   0.744E-03    0.143E-02
RMM:   3    -0.705678786392E+03    0.63748E-06   -0.18738E-06  4921   0.365E-03    0.810E-03
RMM:   4    -0.705678786712E+03   -0.32044E-06   -0.13177E-08  1262   0.234E-03    0.995E-03
RMM:   5    -0.705678786387E+03    0.32544E-06   -0.22218E-09  1023   0.233E-03    0.756E-03
RMM:   6    -0.705678786124E+03    0.26240E-06   -0.50116E-08  1155   0.236E-03    0.709E-03
RMM:   7    -0.705678785739E+03    0.38565E-06   -0.26028E-08  1014   0.232E-03    0.348E-03
RMM:   8    -0.705678785538E+03    0.20080E-06   -0.52029E-09   869   0.235E-03
 116 F= -.70567879E+03 E0= -.70506440E+03  d E =-.552960E-04  mag=     7.3399
 curvature:  -0.07 expect dE=-0.126E-03 dE for cont linesearch -0.245E-06
 trial: gam= 0.95983 g(F)=  0.169E-02 g(S)=  0.000E+00 ort = 0.949E-04 (trialstep = 0.309E-01)
 search vector abs. value=  0.440E-02
 bond charge predicted
       N       E                     dE             d eps       ncg     rms          rms(c)
DAV:   1    -0.705678834703E+03   -0.48964E-04   -0.85635E-04 13312   0.388E-02    0.887E-03
RMM:   2    -0.705678837353E+03   -0.26495E-05   -0.18413E-05  7042   0.825E-03    0.225E-02
RMM:   3    -0.705678835844E+03    0.15090E-05   -0.28637E-06  5558   0.416E-03    0.855E-03
RMM:   4    -0.705678837316E+03   -0.14727E-05   -0.50231E-08  1489   0.237E-03    0.166E-02
RMM:   5    -0.705678835226E+03    0.20905E-05   -0.39507E-08  1333   0.238E-03    0.750E-03
RMM:   6    -0.705678834674E+03    0.55143E-06   -0.44713E-08  1113   0.240E-03    0.411E-03
RMM:   7    -0.705678834084E+03    0.58997E-06   -0.65295E-08  1077   0.248E-03    0.343E-03
RMM:   8    -0.705678833670E+03    0.41411E-06   -0.58430E-08   987   0.250E-03
 117 F= -.70567883E+03 E0= -.70506444E+03  d E =-.481325E-04  mag=     7.3402
 trial-energy change:   -0.000048  1 .order   -0.000048   -0.000055   -0.000041
 step:   0.1173(harm=  0.1173)  dis= 0.00068  next Energy=  -705.678890 (dE=-0.105E-03)
 bond charge predicted
       N       E                     dE             d eps       ncg     rms          rms(c)
DAV:   1    -0.705678875041E+03   -0.40957E-04   -0.66097E-03 13904   0.108E-01    0.261E-02
RMM:   2    -0.705678895906E+03   -0.20865E-04   -0.13550E-04  7434   0.218E-02    0.636E-02
RMM:   3    -0.705678885319E+03    0.10587E-04   -0.23711E-05  7088   0.110E-02    0.276E-02
RMM:   4    -0.705678893023E+03   -0.77040E-05   -0.72124E-06  6336   0.516E-03    0.455E-02
RMM:   5    -0.705678881010E+03    0.12013E-04   -0.37864E-06  5796   0.428E-03    0.178E-02
RMM:   6    -0.705678878513E+03    0.24971E-05   -0.10421E-06  3073   0.305E-03    0.130E-02
RMM:   7    -0.705678875666E+03    0.28462E-05   -0.13183E-06  3347   0.313E-03    0.911E-03
RMM:   8    -0.705678874261E+03    0.14055E-05   -0.42396E-07  1881   0.281E-03
 118 F= -.70567887E+03 E0= -.70506444E+03  d E =-.887231E-04  mag=     7.3407
 curvature:  -0.14 expect dE=-0.522E-03 dE for cont linesearch -0.541E-05
 ZBRENT: interpolating
 opt :   0.0969  next Energy=  -705.678878 (dE=-0.929E-04)
 bond charge predicted
       N       E                     dE             d eps       ncg     rms          rms(c)
DAV:   1    -0.705678876003E+03   -0.33611E-06   -0.36133E-04 13056   0.254E-02    0.768E-03
RMM:   2    -0.705678883809E+03   -0.78068E-05   -0.91138E-06  6800   0.569E-03    0.409E-02
RMM:   3    -0.705678875751E+03    0.80584E-05   -0.13101E-06  4100   0.326E-03    0.135E-02
RMM:   4    -0.705678875798E+03   -0.47228E-07   -0.18422E-08  1076   0.231E-03    0.421E-03
RMM:   5    -0.705678876375E+03   -0.57660E-06   -0.20997E-08   932   0.234E-03    0.793E-03
RMM:   6    -0.705678876849E+03   -0.47385E-06   -0.55580E-08  1083   0.246E-03    0.664E-03
RMM:   7    -0.705678877384E+03   -0.53546E-06   -0.98652E-08  1117   0.257E-03    0.363E-03
RMM:   8    -0.705678878146E+03   -0.76208E-06   -0.16375E-07  1231   0.265E-03
 119 F= -.70567888E+03 E0= -.70506446E+03  d E =-.926083E-04  mag=     7.3411
 curvature:  -0.11 expect dE=-0.279E-03 dE for cont linesearch -0.573E-06
 trial: gam= 1.50505 g(F)=  0.252E-02 g(S)=  0.000E+00 ort = 0.151E-03 (trialstep = 0.150E-01)
 search vector abs. value=  0.129E-01
 bond charge predicted
       N       E                     dE             d eps       ncg     rms          rms(c)
DAV:   1    -0.705678912411E+03   -0.35027E-04   -0.55373E-04 12992   0.305E-02    0.723E-03
RMM:   2    -0.705678915506E+03   -0.30947E-05   -0.11125E-05  6865   0.629E-03    0.195E-02
RMM:   3    -0.705678914090E+03    0.14157E-05   -0.97816E-07  3307   0.320E-03    0.135E-02
RMM:   4    -0.705678913623E+03    0.46696E-06   -0.98969E-08  1311   0.250E-03    0.483E-03
RMM:   5    -0.705678913618E+03    0.55952E-08   -0.64650E-08  1075   0.250E-03    0.867E-03
RMM:   6    -0.705678912969E+03    0.64880E-06   -0.22384E-07  1449   0.258E-03    0.703E-03
RMM:   7    -0.705678912601E+03    0.36751E-06   -0.20471E-07  1355   0.253E-03    0.401E-03
RMM:   8    -0.705678912314E+03    0.28771E-06   -0.97397E-08  1073   0.245E-03
 120 F= -.70567891E+03 E0= -.70506448E+03  d E =-.341675E-04  mag=     7.3416
 trial-energy change:   -0.000034  1 .order   -0.000034   -0.000041   -0.000027
 step:   0.0446(harm=  0.0446)  dis= 0.00045  next Energy=  -705.678939 (dE=-0.612E-04)
 bond charge predicted
       N       E                     dE             d eps       ncg     rms          rms(c)
DAV:   1    -0.705678945347E+03   -0.32746E-04   -0.22424E-03 13648   0.610E-02    0.154E-02
RMM:   2    -0.705678954800E+03   -0.94528E-05   -0.45577E-05  7112   0.123E-02    0.411E-02
RMM:   3    -0.705678949759E+03    0.50406E-05   -0.79245E-06  6805   0.631E-03    0.237E-02
RMM:   4    -0.705678948989E+03    0.77088E-06   -0.11529E-06  3391   0.307E-03    0.186E-02
RMM:   5    -0.705678945752E+03    0.32364E-05   -0.54060E-07  2481   0.289E-03    0.854E-03
RMM:   6    -0.705678943002E+03    0.27506E-05   -0.26468E-07  1647   0.285E-03    0.632E-03
RMM:   7    -0.705678940910E+03    0.20919E-05   -0.53628E-07  2006   0.293E-03    0.453E-03
RMM:   8    -0.705678939239E+03    0.16706E-05   -0.39131E-07  1612   0.281E-03
 121 F= -.70567894E+03 E0= -.70506449E+03  d E =-.610929E-04  mag=     7.3422
 curvature:  -0.10 expect dE=-0.887E-04 dE for cont linesearch -0.140E-05
 ZBRENT: extrapolating
 opt :   0.0533  next Energy=  -705.678941 (dE=-0.629E-04)
 bond charge predicted
       N       E                     dE             d eps       ncg     rms          rms(c)
DAV:   1    -0.705678940735E+03    0.17434E-06   -0.19848E-04 11696   0.184E-02    0.536E-03
RMM:   2    -0.705678943960E+03   -0.32252E-05   -0.72853E-06  6204   0.515E-03    0.225E-02
RMM:   3    -0.705678941003E+03    0.29576E-05   -0.96267E-07  3103   0.299E-03    0.934E-03
RMM:   4    -0.705678940786E+03    0.21657E-06   -0.26641E-08  1027   0.243E-03    0.346E-03
RMM:   5    -0.705678940466E+03    0.32059E-06   -0.12159E-09   809   0.241E-03    0.366E-03
RMM:   6    -0.705678940214E+03    0.25181E-06   -0.78609E-09   802   0.241E-03    0.333E-03
RMM:   7    -0.705678939868E+03    0.34569E-06   -0.17440E-09   775   0.240E-03    0.255E-03
RMM:   8    -0.705678939968E+03   -0.10023E-06   -0.57037E-10   734   0.240E-03
 122 F= -.70567894E+03 E0= -.70506449E+03  d E =-.618222E-04  mag=     7.3429
 curvature:  -0.14 expect dE=-0.114E-03 dE for cont linesearch -0.605E-08
 trial: gam= 0.04612 g(F)=  0.839E-03 g(S)=  0.000E+00 ort =-0.240E-04 (trialstep = 0.227E-01)
 search vector abs. value=  0.865E-03
 bond charge predicted
       N       E                     dE             d eps       ncg     rms          rms(c)
DAV:   1    -0.705678955628E+03   -0.15759E-04   -0.92635E-05  7872   0.156E-02    0.376E-03
RMM:   2    -0.705678957538E+03   -0.19109E-05   -0.54228E-06  6349   0.492E-03    0.121E-02
RMM:   3    -0.705678956747E+03    0.79137E-06   -0.13317E-08  1063   0.229E-03    0.545E-03
RMM:   4    -0.705678957184E+03   -0.43683E-06   -0.64274E-09   879   0.229E-03    0.660E-03
RMM:   5    -0.705678957465E+03   -0.28140E-06   -0.49492E-10   746   0.227E-03    0.455E-03
RMM:   6    -0.705678958018E+03   -0.55246E-06   -0.50283E-10   758   0.229E-03    0.272E-03
RMM:   7    -0.705678958950E+03   -0.93259E-06   -0.55171E-09   822   0.232E-03    0.174E-03
RMM:   8    -0.705678959676E+03   -0.72608E-06   -0.36659E-09   844   0.233E-03
 123 F= -.70567896E+03 E0= -.70506451E+03  d E =-.197080E-04  mag=     7.3434
 trial-energy change:   -0.000020  1 .order   -0.000015   -0.000019   -0.000012
 step:   0.0580(harm=  0.0580)  dis= 0.00010  next Energy=  -705.678964 (dE=-0.243E-04)
 reached required accuracy - stopping structural energy minimisation
 writing wavefunctions
