       N       E                     dE             d eps       ncg     rms          rms(c)
DAV:   1     0.731812070218E+04    0.73181E+04   -0.28274E+05 14608   0.124E+03
DAV:   2     0.605840087466E+03   -0.67123E+04   -0.60407E+04 15504   0.371E+02
DAV:   3    -0.708922542524E+03   -0.13148E+04   -0.12636E+04 18016   0.165E+02
DAV:   4    -0.781004597576E+03   -0.72082E+02   -0.70238E+02 19792   0.430E+01
DAV:   5    -0.782598052707E+03   -0.15935E+01   -0.15725E+01 18688   0.597E+00    0.177E+02
RMM:   6    -0.611902853962E+03    0.17070E+03   -0.57094E+02 14406   0.380E+01    0.125E+02
RMM:   7    -0.657193767689E+03   -0.45291E+02   -0.14366E+02 14441   0.243E+01    0.833E+01
RMM:   8    -0.653956814264E+03    0.32370E+01   -0.54888E+01 14499   0.124E+01    0.122E+02
RMM:   9    -0.583313465528E+03    0.70643E+02   -0.36225E+01 14433   0.119E+01    0.326E+01
RMM:  10    -0.606167574489E+03   -0.22854E+02   -0.20556E+01 14895   0.694E+00    0.507E+01
RMM:  11    -0.608829365578E+03   -0.26618E+01   -0.82889E+00 14664   0.469E+00    0.520E+01
RMM:  12    -0.584026124240E+03    0.24803E+02   -0.29783E+00 14502   0.313E+00    0.211E+01
RMM:  13    -0.593911347177E+03   -0.98852E+01   -0.26081E+00 14463   0.268E+00    0.169E+01
RMM:  14    -0.600367951844E+03   -0.64566E+01   -0.21476E+00 14461   0.262E+00    0.144E+01
RMM:  15    -0.612549223509E+03   -0.12181E+02   -0.44556E+00 15995   0.328E+00    0.124E+01
RMM:  16    -0.630588377514E+03   -0.18039E+02   -0.16422E+01 18873   0.505E+00    0.158E+01
RMM:  17    -0.628996748246E+03    0.15916E+01   -0.10339E+00 14548   0.162E+00    0.128E+01
RMM:  18    -0.631102294484E+03   -0.21055E+01   -0.49763E-01 14813   0.106E+00    0.114E+01
RMM:  19    -0.635748496513E+03   -0.46462E+01   -0.98159E-01 15781   0.145E+00    0.106E+01
RMM:  20    -0.637452527961E+03   -0.17040E+01   -0.39343E-01 14982   0.963E-01    0.944E+00
RMM:  21    -0.641543598193E+03   -0.40911E+01   -0.77809E-01 16450   0.124E+00    0.829E+00
RMM:  22    -0.645932050160E+03   -0.43885E+01   -0.12453E+00 17481   0.143E+00    0.796E+00
RMM:  23    -0.646645403606E+03   -0.71335E+00   -0.37962E-01 15621   0.874E-01    0.723E+00
RMM:  24    -0.648706551920E+03   -0.20611E+01   -0.32899E-01 15561   0.787E-01    0.569E+00
RMM:  25    -0.650383670000E+03   -0.16771E+01   -0.14399E-01 14819   0.583E-01    0.513E+00
RMM:  26    -0.651944223465E+03   -0.15606E+01   -0.20969E-01 15821   0.620E-01    0.454E+00
RMM:  27    -0.652801622923E+03   -0.85740E+00   -0.14347E-01 15517   0.509E-01    0.420E+00
RMM:  28    -0.653794977679E+03   -0.99335E+00   -0.21810E-01 16553   0.579E-01    0.382E+00
RMM:  29    -0.654682815916E+03   -0.88784E+00   -0.23520E-01 16970   0.572E-01    0.371E+00
RMM:  30    -0.655637271094E+03   -0.95446E+00   -0.33441E-01 17866   0.639E-01    0.390E+00
RMM:  31    -0.656042583688E+03   -0.40531E+00   -0.24421E-01 17081   0.512E-01    0.310E+00
RMM:  32    -0.656428169249E+03   -0.38559E+00   -0.94394E-02 16037   0.343E-01    0.252E+00
RMM:  33    -0.657027920279E+03   -0.59975E+00   -0.53883E-02 15624   0.264E-01    0.211E+00
RMM:  34    -0.657348665311E+03   -0.32075E+00   -0.30396E-02 15475   0.214E-01    0.184E+00
RMM:  35    -0.657536424491E+03   -0.18776E+00   -0.27961E-02 16119   0.225E-01    0.146E+00
RMM:  36    -0.657376208650E+03    0.16022E+00   -0.19446E-02 15361   0.201E-01    0.100E+00
RMM:  37    -0.657422573058E+03   -0.46364E-01   -0.38958E-03 14466   0.105E-01    0.801E-01
RMM:  38    -0.657480178686E+03   -0.57606E-01   -0.22137E-03 14304   0.733E-02    0.623E-01
RMM:  39    -0.657568290358E+03   -0.88112E-01   -0.28390E-03 15058   0.779E-02    0.405E-01
RMM:  40    -0.657688280528E+03   -0.11999E+00   -0.38988E-03 15734   0.760E-02    0.283E-01
RMM:  41    -0.657784603275E+03   -0.96323E-01   -0.18362E-03 13299   0.495E-02    0.253E-01
RMM:  42    -0.657860118498E+03   -0.75515E-01   -0.10227E-03 12200   0.371E-02    0.182E-01
RMM:  43    -0.657949449125E+03   -0.89331E-01   -0.10966E-03 11856   0.321E-02    0.142E-01
RMM:  44    -0.657997248515E+03   -0.47799E-01   -0.49631E-04 10913   0.246E-02    0.117E-01
RMM:  45    -0.658040597570E+03   -0.43349E-01   -0.50739E-04 10777   0.225E-02    0.104E-01
RMM:  46    -0.658060872377E+03   -0.20275E-01   -0.22621E-04  9698   0.178E-02    0.734E-02
RMM:  47    -0.658070848693E+03   -0.99763E-02   -0.17953E-04  9409   0.164E-02    0.545E-02
RMM:  48    -0.658073467189E+03   -0.26185E-02   -0.70412E-05  8872   0.123E-02    0.374E-02
RMM:  49    -0.658074675240E+03   -0.12081E-02   -0.33928E-05  8196   0.872E-03    0.279E-02
RMM:  50    -0.658075579322E+03   -0.90408E-03   -0.29796E-05  8269   0.746E-03    0.213E-02
RMM:  51    -0.658076057559E+03   -0.47824E-03   -0.11982E-05  7097   0.579E-03    0.171E-02
RMM:  52    -0.658076223001E+03   -0.16544E-03   -0.57795E-06  5331   0.405E-03    0.119E-02
RMM:  53    -0.658076395405E+03   -0.17240E-03   -0.40239E-06  4992   0.368E-03    0.110E-02
RMM:  54    -0.658076594043E+03   -0.19864E-03   -0.38397E-06  4928   0.358E-03    0.736E-03
RMM:  55    -0.658076809055E+03   -0.21501E-03   -0.34149E-06  4702   0.343E-03    0.600E-03
RMM:  56    -0.658076884610E+03   -0.75555E-04   -0.91671E-07  3317   0.301E-03
   1 F= -.65807688E+03 E0= -.65744849E+03  d E =-.658077E+03  mag=    -0.0004
       N       E                     dE             d eps       ncg     rms          rms(c)
DAV:   1    -0.605593729388E+03    0.52483E+02   -0.78231E+03 14400   0.153E+02    0.306E+01
RMM:   2    -0.637186778254E+03   -0.31593E+02   -0.33469E+02 14339   0.334E+01    0.462E+01
RMM:   3    -0.641635701855E+03   -0.44489E+01   -0.46627E+01 15646   0.133E+01    0.270E+01
RMM:   4    -0.640071613463E+03    0.15641E+01   -0.73209E+00 14495   0.575E+00    0.327E+01
RMM:   5    -0.640432479657E+03   -0.36087E+00   -0.48386E+00 14582   0.420E+00    0.236E+01
RMM:   6    -0.640522385299E+03   -0.89906E-01   -0.18057E+00 14733   0.241E+00    0.250E+01
RMM:   7    -0.641747916556E+03   -0.12255E+01   -0.95569E-01 14569   0.176E+00    0.267E+01
RMM:   8    -0.640618062802E+03    0.11299E+01   -0.45904E-01 14879   0.109E+00    0.221E+01
RMM:   9    -0.639837065337E+03    0.78100E+00   -0.22120E-01 14369   0.880E-01    0.171E+01
RMM:  10    -0.639724896965E+03    0.11217E+00   -0.80607E-02 14479   0.548E-01    0.158E+01
RMM:  11    -0.639586173802E+03    0.13872E+00   -0.19568E-01 15987   0.739E-01    0.134E+01
RMM:  12    -0.639523326148E+03    0.62848E-01   -0.63828E-02 14466   0.445E-01    0.123E+01
RMM:  13    -0.639512278464E+03    0.11048E-01   -0.22799E-02 15583   0.255E-01    0.115E+01
RMM:  14    -0.639510772382E+03    0.15061E-02   -0.62428E-03 16446   0.120E-01    0.112E+01
RMM:  15    -0.639507814580E+03    0.29578E-02   -0.19859E-03 14387   0.744E-02    0.979E+00
RMM:  16    -0.639498554773E+03    0.92598E-02   -0.24061E-03 14385   0.825E-02    0.881E+00
RMM:  17    -0.639480786447E+03    0.17768E-01   -0.98701E-03 19134   0.143E-01    0.716E+00
RMM:  18    -0.639462915691E+03    0.17871E-01   -0.12191E-02 19399   0.160E-01    0.546E+00
RMM:  19    -0.639456869716E+03    0.60460E-02   -0.24861E-03 15377   0.775E-02    0.455E+00
RMM:  20    -0.639450493637E+03    0.63761E-02   -0.50255E-03 15320   0.103E-01    0.350E+00
RMM:  21    -0.639444466387E+03    0.60272E-02   -0.81807E-03 18630   0.130E-01    0.213E+00
RMM:  22    -0.639441969199E+03    0.24972E-02   -0.37825E-03 17845   0.940E-02    0.116E+00
RMM:  23    -0.639441256691E+03    0.71251E-03   -0.11807E-03 14361   0.533E-02    0.718E-01
RMM:  24    -0.639441046712E+03    0.20998E-03   -0.69654E-04 13408   0.409E-02    0.484E-01
RMM:  25    -0.639440980174E+03    0.66538E-04   -0.22751E-04  9421   0.258E-02
   2 F= -.63944098E+03 E0= -.63886806E+03  d E =0.186359E+02  mag=    -0.0009
       N       E                     dE             d eps       ncg     rms          rms(c)
DAV:   1    -0.648363765886E+03   -0.89227E+01   -0.19626E+03 14336   0.764E+01    0.191E+01
RMM:   2    -0.653923689512E+03   -0.55599E+01   -0.58145E+01 14350   0.153E+01    0.233E+01
RMM:   3    -0.654815148198E+03   -0.89146E+00   -0.87173E+00 15134   0.587E+00    0.161E+01
RMM:   4    -0.655347688786E+03   -0.53254E+00   -0.18030E+00 14612   0.275E+00    0.207E+01
RMM:   5    -0.655329934217E+03    0.17755E-01   -0.75224E-01 14433   0.168E+00    0.184E+01
RMM:   6    -0.656366543621E+03   -0.10366E+01   -0.46561E-01 14427   0.122E+00    0.208E+01
RMM:   7    -0.654756927952E+03    0.16096E+01   -0.19728E-01 14358   0.853E-01    0.158E+01
RMM:   8    -0.654855963446E+03   -0.99035E-01   -0.17781E-01 14519   0.704E-01    0.146E+01
RMM:   9    -0.654739670516E+03    0.11629E+00   -0.57352E-02 14354   0.505E-01    0.130E+01
RMM:  10    -0.654717448191E+03    0.22222E-01   -0.19205E-02 15424   0.211E-01    0.121E+01
RMM:  11    -0.654678725079E+03    0.38723E-01   -0.25380E-02 14372   0.257E-01    0.106E+01
RMM:  12    -0.654649691066E+03    0.29034E-01   -0.16536E-02 14466   0.227E-01    0.961E+00
RMM:  13    -0.654630060710E+03    0.19630E-01   -0.12977E-02 14718   0.191E-01    0.854E+00
RMM:  14    -0.654626443442E+03    0.36173E-02   -0.47477E-03 16226   0.111E-01    0.811E+00
RMM:  15    -0.654625012756E+03    0.14307E-02   -0.14651E-03 14440   0.645E-02    0.756E+00
RMM:  16    -0.654616308644E+03    0.87041E-02   -0.20615E-03 14605   0.718E-02    0.673E+00
RMM:  17    -0.654603378884E+03    0.12930E-01   -0.67882E-03 18049   0.118E-01    0.527E+00
RMM:  18    -0.654592345280E+03    0.11034E-01   -0.65343E-03 18849   0.116E-01    0.400E+00
RMM:  19    -0.654588498904E+03    0.38464E-02   -0.14636E-03 14841   0.594E-02    0.349E+00
RMM:  20    -0.654584530658E+03    0.39682E-02   -0.27563E-03 15163   0.767E-02    0.269E+00
RMM:  21    -0.654581460007E+03    0.30707E-02   -0.28002E-03 15303   0.778E-02    0.185E+00
RMM:  22    -0.654579197817E+03    0.22622E-02   -0.36465E-03 17503   0.900E-02    0.913E-01
RMM:  23    -0.654578860274E+03    0.33754E-03   -0.57156E-04 13521   0.369E-02    0.627E-01
RMM:  24    -0.654578708521E+03    0.15175E-03   -0.27860E-04  9914   0.277E-02    0.458E-01
RMM:  25    -0.654578701163E+03    0.73575E-05   -0.73228E-05  8715   0.178E-02
   3 F= -.65457870E+03 E0= -.65402862E+03  d E =0.349818E+01  mag=    -0.0004
       N       E                     dE             d eps       ncg     rms          rms(c)
DAV:   1    -0.660513936443E+03   -0.59352E+01   -0.77932E+02 14336   0.481E+01    0.872E+00
RMM:   2    -0.662416053680E+03   -0.19021E+01   -0.19892E+01 14336   0.910E+00    0.982E+00
RMM:   3    -0.662689310028E+03   -0.27326E+00   -0.28605E+00 15067   0.342E+00    0.586E+00
RMM:   4    -0.662864002398E+03   -0.17469E+00   -0.55351E-01 14669   0.158E+00    0.784E+00
RMM:   5    -0.663649888024E+03   -0.78589E+00   -0.26249E-01 14623   0.964E-01    0.118E+01
RMM:   6    -0.662858916925E+03    0.79097E+00   -0.12239E-01 14492   0.640E-01    0.646E+00
RMM:   7    -0.662689629355E+03    0.16929E+00   -0.62026E-02 14387   0.469E-01    0.427E+00
RMM:   8    -0.662677763113E+03    0.11866E-01   -0.32521E-02 14406   0.346E-01    0.305E+00
RMM:   9    -0.662675523019E+03    0.22401E-02   -0.98418E-03 15028   0.189E-01    0.258E+00
RMM:  10    -0.662675107479E+03    0.41554E-03   -0.39539E-03 14986   0.106E-01    0.225E+00
RMM:  11    -0.662669875004E+03    0.52325E-02   -0.33823E-03 14406   0.993E-02    0.168E+00
RMM:  12    -0.662668330093E+03    0.15449E-02   -0.30485E-03 14651   0.920E-02    0.116E+00
RMM:  13    -0.662668026168E+03    0.30393E-03   -0.11996E-03 14568   0.628E-02    0.849E-01
RMM:  14    -0.662668215181E+03   -0.18901E-03   -0.37433E-04 11096   0.347E-02    0.857E-01
RMM:  15    -0.662668107906E+03    0.10727E-03   -0.29012E-04 10057   0.288E-02    0.790E-01
RMM:  16    -0.662667954324E+03    0.15358E-03   -0.11008E-04  8711   0.191E-02    0.548E-01
RMM:  17    -0.662667826008E+03    0.12832E-03   -0.14853E-04  8664   0.207E-02    0.361E-01
RMM:  18    -0.662667761336E+03    0.64672E-04   -0.12294E-04  8648   0.196E-02
   4 F= -.66266776E+03 E0= -.66208176E+03  d E =-.459088E+01  mag=    -0.0002
       N       E                     dE             d eps       ncg     rms          rms(c)
DAV:   1    -0.662308142827E+03    0.35968E+00   -0.26201E+01 14848   0.882E+00    0.164E+00
RMM:   2    -0.662367241918E+03   -0.59099E-01   -0.60311E-01 14336   0.160E+00    0.164E+00
RMM:   3    -0.662380739245E+03   -0.13497E-01   -0.84747E-02 14793   0.595E-01    0.144E+00
RMM:   4    -0.662485539931E+03   -0.10480E+00   -0.28926E-02 14612   0.329E-01    0.389E+00
RMM:   5    -0.662454103970E+03    0.31436E-01   -0.19620E-02 14476   0.244E-01    0.328E+00
RMM:   6    -0.662379942290E+03    0.74162E-01   -0.10502E-02 14430   0.205E-01    0.112E+00
RMM:   7    -0.662373826856E+03    0.61154E-02   -0.40715E-03 14402   0.129E-01    0.513E-01
RMM:   8    -0.662373650673E+03    0.17618E-03   -0.14695E-03 14319   0.637E-02    0.302E-01
RMM:   9    -0.662373646751E+03    0.39216E-05   -0.40781E-04 11479   0.373E-02
   5 F= -.66237365E+03 E0= -.66177688E+03  d E =-.429676E+01  mag=    -0.0002
       N       E                     dE             d eps       ncg     rms          rms(c)
DAV:   1    -0.662763799373E+03   -0.39015E+00   -0.98816E+00 14832   0.542E+00    0.807E-01
RMM:   2    -0.662787563028E+03   -0.23764E-01   -0.22395E-01 14336   0.973E-01    0.973E-01
RMM:   3    -0.662803632450E+03   -0.16069E-01   -0.32201E-02 14690   0.366E-01    0.155E+00
RMM:   4    -0.662797163819E+03    0.64686E-02   -0.82977E-03 14701   0.185E-01    0.126E+00
RMM:   5    -0.662791255358E+03    0.59085E-02   -0.33627E-03 14490   0.113E-01    0.793E-01
RMM:   6    -0.662789397209E+03    0.18581E-02   -0.22096E-03 14326   0.891E-02    0.584E-01
RMM:   7    -0.662787861570E+03    0.15356E-02   -0.14069E-03 14088   0.763E-02    0.300E-01
RMM:   8    -0.662787805899E+03    0.55671E-04   -0.56717E-04 13194   0.424E-02
   6 F= -.66278781E+03 E0= -.66219809E+03  d E =-.471092E+01  mag=    -0.0002
       N       E                     dE             d eps       ncg     rms          rms(c)
DAV:   1    -0.662790506067E+03   -0.26445E-02   -0.66384E-02 16336   0.447E-01    0.164E-01
RMM:   2    -0.662791666008E+03   -0.11599E-02   -0.19705E-03 14367   0.903E-02    0.407E-01
RMM:   3    -0.662791275526E+03    0.39048E-03   -0.39885E-04 11666   0.421E-02    0.311E-01
RMM:   4    -0.662790893458E+03    0.38207E-03   -0.16934E-04  8537   0.263E-02    0.228E-01
RMM:   5    -0.662790738021E+03    0.15544E-03   -0.89071E-05  8008   0.207E-02    0.106E-01
RMM:   6    -0.662790738213E+03   -0.19198E-06   -0.66971E-05  7925   0.169E-02    0.929E-02
RMM:   7    -0.662790739170E+03   -0.95620E-06   -0.49147E-05  7812   0.133E-02    0.753E-02
RMM:   8    -0.662790713490E+03    0.25679E-04   -0.15309E-05  6805   0.826E-03
   7 F= -.66279071E+03 E0= -.66220109E+03  d E =-.471383E+01  mag=    -0.0001
       N       E                     dE             d eps       ncg     rms          rms(c)
DAV:   1    -0.657475797216E+03    0.53149E+01   -0.68013E+02 14336   0.405E+01    0.702E+00
RMM:   2    -0.660302881138E+03   -0.28271E+01   -0.17447E+01 14396   0.741E+00    0.165E+01
RMM:   3    -0.659177330472E+03    0.11256E+01   -0.30537E+00 15090   0.324E+00    0.540E+00
RMM:   4    -0.659271504240E+03   -0.94174E-01   -0.72672E-01 15036   0.160E+00    0.728E+00
RMM:   5    -0.660114158456E+03   -0.84265E+00   -0.27041E-01 14635   0.926E-01    0.130E+01
RMM:   6    -0.659221121162E+03    0.89304E+00   -0.10881E-01 14419   0.611E-01    0.632E+00
RMM:   7    -0.659097565499E+03    0.12356E+00   -0.81421E-02 14577   0.522E-01    0.337E+00
RMM:   8    -0.659051697198E+03    0.45868E-01   -0.88134E-02 14867   0.402E-01    0.155E+00
RMM:   9    -0.659043991879E+03    0.77053E-02   -0.11353E-02 14372   0.225E-01    0.103E+00
RMM:  10    -0.659042955818E+03    0.10361E-02   -0.40352E-03 15068   0.968E-02    0.888E-01
RMM:  11    -0.659041304401E+03    0.16514E-02   -0.18177E-03 14335   0.704E-02    0.784E-01
RMM:  12    -0.659038229030E+03    0.30754E-02   -0.36785E-03 15628   0.868E-02    0.282E-01
RMM:  13    -0.659038162583E+03    0.66446E-04   -0.12926E-03 13794   0.538E-02    0.160E-01
RMM:  14    -0.659038216970E+03   -0.54387E-04   -0.30894E-04 10174   0.288E-02
   8 F= -.65903822E+03 E0= -.65848503E+03  d E =0.375250E+01  mag=    -0.0001
       N       E                     dE             d eps       ncg     rms          rms(c)
DAV:   1    -0.661093280111E+03   -0.20551E+01   -0.15317E+02 14400   0.192E+01    0.296E+00
RMM:   2    -0.661654805539E+03   -0.56153E+00   -0.31361E+00 14360   0.323E+00    0.746E+00
RMM:   3    -0.661408146463E+03    0.24666E+00   -0.52413E-01 15112   0.136E+00    0.276E+00
RMM:   4    -0.661503483968E+03   -0.95338E-01   -0.13406E-01 15261   0.656E-01    0.428E+00
RMM:   5    -0.661740389374E+03   -0.23691E+00   -0.57032E-02 14458   0.406E-01    0.680E+00
RMM:   6    -0.661409344700E+03    0.33104E+00   -0.27285E-02 14346   0.331E-01    0.224E+00
RMM:   7    -0.661412812364E+03   -0.34677E-02   -0.33887E-02 15171   0.286E-01    0.152E+00
RMM:   8    -0.661397130220E+03    0.15682E-01   -0.13838E-02 14521   0.186E-01    0.765E-01
RMM:   9    -0.661395475497E+03    0.16547E-02   -0.36550E-03 14433   0.112E-01    0.533E-01
RMM:  10    -0.661395634629E+03   -0.15913E-03   -0.11366E-03 13817   0.483E-02    0.481E-01
RMM:  11    -0.661395365014E+03    0.26961E-03   -0.20727E-04  9353   0.250E-02    0.427E-01
RMM:  12    -0.661394582802E+03    0.78221E-03   -0.77891E-04 13260   0.411E-02    0.234E-01
RMM:  13    -0.661394590761E+03   -0.79591E-05   -0.24207E-04  9397   0.271E-02
   9 F= -.66139459E+03 E0= -.66082555E+03  d E =0.139612E+01  mag=    -0.0001
       N       E                     dE             d eps       ncg     rms          rms(c)
DAV:   1    -0.662551436532E+03   -0.11569E+01   -0.86244E+01 14400   0.144E+01    0.211E+00
RMM:   2    -0.662838339670E+03   -0.28690E+00   -0.17149E+00 14356   0.241E+00    0.517E+00
RMM:   3    -0.662724989276E+03    0.11335E+00   -0.29629E-01 15300   0.100E+00    0.197E+00
RMM:   4    -0.662837347532E+03   -0.11236E+00   -0.71955E-02 15352   0.473E-01    0.417E+00
RMM:   5    -0.662796817420E+03    0.40530E-01   -0.25930E-02 14469   0.282E-01    0.350E+00
RMM:   6    -0.662724136081E+03    0.72681E-01   -0.12573E-02 14344   0.226E-01    0.158E+00
RMM:   7    -0.662724369321E+03   -0.23324E-03   -0.18193E-02 15293   0.208E-01    0.107E+00
RMM:   8    -0.662718237227E+03    0.61321E-02   -0.89091E-03 14626   0.142E-01    0.569E-01
RMM:   9    -0.662717061082E+03    0.11761E-02   -0.20675E-03 13729   0.879E-02    0.387E-01
RMM:  10    -0.662716931977E+03    0.12911E-03   -0.62403E-04 12137   0.372E-02    0.298E-01
RMM:  11    -0.662716823389E+03    0.10859E-03   -0.14019E-04  9001   0.218E-02    0.249E-01
RMM:  12    -0.662716585269E+03    0.23812E-03   -0.42212E-04 11827   0.304E-02    0.138E-01
RMM:  13    -0.662716648156E+03   -0.62887E-04   -0.13443E-04  8648   0.207E-02
  10 F= -.66271665E+03 E0= -.66213409E+03  d E =0.740653E-01  mag=    -0.0000
       N       E                     dE             d eps       ncg     rms          rms(c)
DAV:   1    -0.662909151008E+03   -0.19257E+00   -0.66160E+00 14784   0.398E+00    0.588E-01
RMM:   2    -0.662931024042E+03   -0.21873E-01   -0.13248E-01 14358   0.672E-01    0.146E+00
RMM:   3    -0.662924354566E+03    0.66695E-02   -0.23530E-02 15363   0.281E-01    0.768E-01
RMM:   4    -0.662933350249E+03   -0.89957E-02   -0.57686E-03 15494   0.129E-01    0.131E+00
RMM:   5    -0.662924611908E+03    0.87383E-02   -0.21327E-03 14251   0.861E-02    0.761E-01
RMM:   6    -0.662922447318E+03    0.21646E-02   -0.98855E-04 13368   0.645E-02    0.476E-01
RMM:   7    -0.662922397327E+03    0.49991E-04   -0.13812E-03 13985   0.591E-02    0.286E-01
RMM:   8    -0.662922029420E+03    0.36791E-03   -0.78475E-04 12827   0.406E-02    0.146E-01
RMM:   9    -0.662921995442E+03    0.33977E-04   -0.15476E-04  9123   0.247E-02
  11 F= -.66292200E+03 E0= -.66233567E+03  d E =-.131282E+00  mag=    -0.0000
       N       E                     dE             d eps       ncg     rms          rms(c)
DAV:   1    -0.662922637474E+03   -0.60805E-03   -0.32238E-02 15344   0.278E-01    0.102E-01
RMM:   2    -0.662923527553E+03   -0.89008E-03   -0.86923E-04 13592   0.536E-02    0.352E-01
RMM:   3    -0.662923196196E+03    0.33136E-03   -0.23454E-04  9525   0.330E-02    0.281E-01
RMM:   4    -0.662922661296E+03    0.53490E-03   -0.63177E-05  8010   0.173E-02    0.864E-02
RMM:   5    -0.662922654916E+03    0.63797E-05   -0.20665E-05  7937   0.993E-03    0.335E-02
RMM:   6    -0.662922666066E+03   -0.11150E-04   -0.11883E-05  7014   0.640E-03    0.288E-02
RMM:   7    -0.662922689183E+03   -0.23117E-04   -0.21079E-05  7817   0.743E-03    0.384E-02
RMM:   8    -0.662922687573E+03    0.16103E-05   -0.66237E-06  6781   0.612E-03
  12 F= -.66292269E+03 E0= -.66233654E+03  d E =-.131974E+00  mag=    -0.0000
       N       E                     dE             d eps       ncg     rms          rms(c)
DAV:   1    -0.660902664383E+03    0.20200E+01   -0.23299E+02 14336   0.219E+01    0.443E+00
RMM:   2    -0.662239607041E+03   -0.13369E+01   -0.50594E+00 14373   0.474E+00    0.133E+01
RMM:   3    -0.661378451734E+03    0.86116E+00   -0.12926E+00 15892   0.200E+00    0.440E+00
RMM:   4    -0.661399486473E+03   -0.21035E-01   -0.24798E-01 16455   0.834E-01    0.435E+00
RMM:   5    -0.661594446902E+03   -0.19496E+00   -0.86109E-02 14358   0.511E-01    0.690E+00
RMM:   6    -0.661617296269E+03   -0.22849E-01   -0.58271E-02 14430   0.391E-01    0.699E+00
RMM:   7    -0.661356334724E+03    0.26096E+00   -0.10109E-01 15974   0.495E-01    0.194E+00
RMM:   8    -0.661341454959E+03    0.14880E-01   -0.69158E-02 15272   0.353E-01    0.921E-01
RMM:   9    -0.661339188341E+03    0.22666E-02   -0.64355E-03 14824   0.152E-01    0.721E-01
RMM:  10    -0.661337595469E+03    0.15929E-02   -0.17956E-03 14287   0.692E-02    0.626E-01
RMM:  11    -0.661334619911E+03    0.29756E-02   -0.11526E-02 17603   0.141E-01    0.509E-01
RMM:  12    -0.661333517190E+03    0.11027E-02   -0.26167E-03 14992   0.776E-02    0.270E-01
RMM:  13    -0.661333186256E+03    0.33093E-03   -0.60975E-04 13052   0.455E-02    0.154E-01
RMM:  14    -0.661333128250E+03    0.58006E-04   -0.17196E-04  9116   0.218E-02
  13 F= -.66133313E+03 E0= -.66074135E+03  d E =0.158956E+01  mag=    -0.0000
       N       E                     dE             d eps       ncg     rms          rms(c)
DAV:   1    -0.662633405108E+03   -0.13002E+01   -0.10908E+02 14336   0.150E+01    0.385E+00
RMM:   2    -0.663125305286E+03   -0.49190E+00   -0.21294E+00 14364   0.291E+00    0.728E+00
RMM:   3    -0.662839000814E+03    0.28630E+00   -0.44435E-01 15142   0.125E+00    0.316E+00
RMM:   4    -0.662876714764E+03   -0.37714E-01   -0.11761E-01 14853   0.658E-01    0.331E+00
RMM:   5    -0.663012792767E+03   -0.13608E+00   -0.72234E-02 14407   0.508E-01    0.538E+00
RMM:   6    -0.662906113014E+03    0.10668E+00   -0.33979E-02 14408   0.312E-01    0.393E+00
RMM:   7    -0.662819040128E+03    0.87073E-01   -0.33524E-02 14912   0.313E-01    0.950E-01
RMM:   8    -0.662811755426E+03    0.72847E-02   -0.13947E-02 14599   0.189E-01    0.380E-01
RMM:   9    -0.662812037482E+03   -0.28206E-03   -0.26560E-03 14493   0.860E-02    0.376E-01
RMM:  10    -0.662811651779E+03    0.38570E-03   -0.64609E-04 12530   0.396E-02    0.273E-01
RMM:  11    -0.662811571215E+03    0.80564E-04   -0.64353E-04 12937   0.384E-02
  14 F= -.66281157E+03 E0= -.66222504E+03  d E =0.111116E+00  mag=    -0.0000
       N       E                     dE             d eps       ncg     rms          rms(c)
DAV:   1    -0.662975718960E+03   -0.16407E+00   -0.77244E+00 14720   0.399E+00    0.818E-01
RMM:   2    -0.663015317253E+03   -0.39598E-01   -0.15002E-01 14361   0.771E-01    0.214E+00
RMM:   3    -0.662988558091E+03    0.26759E-01   -0.30897E-02 15382   0.325E-01    0.766E-01
RMM:   4    -0.662996126143E+03   -0.75681E-02   -0.75078E-03 15641   0.155E-01    0.114E+00
RMM:   5    -0.662996993009E+03   -0.86687E-03   -0.26870E-03 14559   0.877E-02    0.120E+00
RMM:   6    -0.662989791970E+03    0.72010E-02   -0.31744E-03 14830   0.947E-02    0.728E-01
RMM:   7    -0.662988644265E+03    0.11477E-02   -0.29347E-03 15269   0.859E-02    0.358E-01
RMM:   8    -0.662988408366E+03    0.23590E-03   -0.12463E-03 13513   0.586E-02    0.324E-01
RMM:   9    -0.662987922963E+03    0.48540E-03   -0.54067E-04 11902   0.410E-02    0.143E-01
RMM:  10    -0.662987877595E+03    0.45368E-04   -0.10710E-04  8677   0.185E-02
  15 F= -.66298788E+03 E0= -.66240193E+03  d E =-.651900E-01  mag=    -0.0000
       N       E                     dE             d eps       ncg     rms          rms(c)
DAV:   1    -0.662721796857E+03    0.26613E+00   -0.92687E+01 14336   0.114E+01    0.283E+00
RMM:   2    -0.663332997899E+03   -0.61120E+00   -0.17604E+00 14340   0.274E+00    0.101E+01
RMM:   3    -0.662904996207E+03    0.42800E+00   -0.51265E-01 16404   0.111E+00    0.447E+00
RMM:   4    -0.662964557472E+03   -0.59561E-01   -0.75565E-02 16062   0.436E-01    0.551E+00
RMM:   5    -0.662962833791E+03    0.17237E-02   -0.45127E-02 14414   0.350E-01    0.499E+00
RMM:   6    -0.663287219577E+03   -0.32439E+00   -0.72491E-02 15837   0.361E-01    0.818E+00
RMM:   7    -0.662851732550E+03    0.43549E+00   -0.78365E-02 16683   0.420E-01    0.160E+00
RMM:   8    -0.662843111338E+03    0.86212E-02   -0.16064E-02 14461   0.220E-01    0.756E-01
RMM:   9    -0.662842630810E+03    0.48053E-03   -0.38291E-03 14512   0.120E-01    0.756E-01
RMM:  10    -0.662840064090E+03    0.25667E-02   -0.18522E-03 13554   0.705E-02    0.557E-01
RMM:  11    -0.662837949694E+03    0.21144E-02   -0.92074E-03 17510   0.121E-01    0.398E-01
RMM:  12    -0.662837059828E+03    0.88987E-03   -0.19646E-03 14634   0.646E-02    0.235E-01
RMM:  13    -0.662836896936E+03    0.16289E-03   -0.45248E-04 12028   0.378E-02    0.128E-01
RMM:  14    -0.662836885369E+03    0.11567E-04   -0.13241E-04  8898   0.200E-02
  16 F= -.66283689E+03 E0= -.66224704E+03  d E =0.150992E+00  mag=    -0.0000
       N       E                     dE             d eps       ncg     rms          rms(c)
DAV:   1    -0.663017940099E+03   -0.18104E+00   -0.37688E+01 14464   0.732E+00    0.297E+00
RMM:   2    -0.663225034064E+03   -0.20709E+00   -0.63131E-01 14336   0.152E+00    0.531E+00
RMM:   3    -0.663067288425E+03    0.15775E+00   -0.14117E-01 15032   0.671E-01    0.165E+00
RMM:   4    -0.663338017584E+03   -0.27073E+00   -0.65263E-02 14481   0.422E-01    0.617E+00
RMM:   5    -0.663163610791E+03    0.17441E+00   -0.36755E-02 14421   0.346E-01    0.392E+00
RMM:   6    -0.663070391443E+03    0.93219E-01   -0.28667E-02 14697   0.300E-01    0.141E+00
RMM:   7    -0.663059269984E+03    0.11121E-01   -0.96392E-03 14395   0.180E-01    0.473E-01
RMM:   8    -0.663058632378E+03    0.63761E-03   -0.39024E-03 14621   0.907E-02    0.347E-01
RMM:   9    -0.663058734803E+03   -0.10242E-03   -0.10690E-03 13414   0.565E-02    0.356E-01
RMM:  10    -0.663058230293E+03    0.50451E-03   -0.39247E-04 11185   0.347E-02    0.185E-01
RMM:  11    -0.663058155689E+03    0.74604E-04   -0.26179E-04 10324   0.277E-02
  17 F= -.66305816E+03 E0= -.66247195E+03  d E =-.702781E-01  mag=    -0.0000
       N       E                     dE             d eps       ncg     rms          rms(c)
DAV:   1    -0.662434461725E+03    0.62377E+00   -0.70886E+01 14464   0.116E+01    0.269E+00
RMM:   2    -0.662813648318E+03   -0.37919E+00   -0.14117E+00 14380   0.257E+00    0.790E+00
RMM:   3    -0.662608400714E+03    0.20525E+00   -0.40369E-01 16849   0.103E+00    0.403E+00
RMM:   4    -0.662771183388E+03   -0.16278E+00   -0.63289E-02 14658   0.444E-01    0.648E+00
RMM:   5    -0.662765738084E+03    0.54453E-02   -0.33223E-02 14416   0.316E-01    0.635E+00
RMM:   6    -0.662623091995E+03    0.14265E+00   -0.32711E-02 14684   0.311E-01    0.384E+00
RMM:   7    -0.662569826647E+03    0.53265E-01   -0.58870E-02 16585   0.373E-01    0.149E+00
RMM:   8    -0.662561049527E+03    0.87771E-02   -0.13504E-02 14558   0.180E-01    0.722E-01
RMM:   9    -0.662561192993E+03   -0.14347E-03   -0.25914E-03 15221   0.856E-02    0.702E-01
RMM:  10    -0.662560678889E+03    0.51410E-03   -0.48841E-04 12072   0.372E-02    0.691E-01
RMM:  11    -0.662557652045E+03    0.30268E-02   -0.91931E-03 19234   0.120E-01    0.452E-01
RMM:  12    -0.662556796951E+03    0.85509E-03   -0.92505E-04 14220   0.472E-02    0.269E-01
RMM:  13    -0.662556602116E+03    0.19484E-03   -0.25636E-04  9764   0.285E-02    0.166E-01
RMM:  14    -0.662556604140E+03   -0.20238E-05   -0.63860E-05  8690   0.172E-02
  18 F= -.66255660E+03 E0= -.66197700E+03  d E =0.501552E+00  mag=    -0.0000
       N       E                     dE             d eps       ncg     rms          rms(c)
DAV:   1    -0.663049105735E+03   -0.49250E+00   -0.43117E+01 14336   0.905E+00    0.266E+00
RMM:   2    -0.663275849755E+03   -0.22674E+00   -0.79733E-01 14370   0.183E+00    0.564E+00
RMM:   3    -0.663144200995E+03    0.13165E+00   -0.19280E-01 16308   0.758E-01    0.274E+00
RMM:   4    -0.663578665364E+03   -0.43446E+00   -0.75621E-02 14424   0.446E-01    0.794E+00
RMM:   5    -0.663231382048E+03    0.34728E+00   -0.49539E-02 14436   0.408E-01    0.429E+00
RMM:   6    -0.663126729432E+03    0.10465E+00   -0.31744E-02 14456   0.332E-01    0.143E+00
RMM:   7    -0.663117102987E+03    0.96264E-02   -0.13836E-02 14432   0.209E-01    0.523E-01
RMM:   8    -0.663117116744E+03   -0.13757E-04   -0.46558E-03 15039   0.104E-01    0.449E-01
RMM:   9    -0.663116403067E+03    0.71368E-03   -0.10524E-03 13096   0.611E-02    0.347E-01
RMM:  10    -0.663116033192E+03    0.36987E-03   -0.59245E-04 12280   0.406E-02    0.201E-01
RMM:  11    -0.663115904851E+03    0.12834E-03   -0.92695E-04 13386   0.413E-02    0.142E-01
RMM:  12    -0.663115867392E+03    0.37459E-04   -0.23879E-04  9632   0.271E-02
  19 F= -.66311587E+03 E0= -.66253145E+03  d E =-.577117E-01  mag=    -0.0000
       N       E                     dE             d eps       ncg     rms          rms(c)
DAV:   1    -0.663116405143E+03   -0.50029E-03   -0.63409E-02 14976   0.347E-01    0.116E-01
RMM:   2    -0.663118446717E+03   -0.20416E-02   -0.16499E-03 14368   0.783E-02    0.546E-01
RMM:   3    -0.663116966125E+03    0.14806E-02   -0.38568E-04 11332   0.401E-02    0.287E-01
RMM:   4    -0.663116485236E+03    0.48089E-03   -0.12417E-04  8538   0.223E-02    0.988E-02
RMM:   5    -0.663116552355E+03   -0.67119E-04   -0.60239E-05  8135   0.161E-02    0.120E-01
RMM:   6    -0.663116496537E+03    0.55818E-04   -0.26133E-05  7903   0.114E-02    0.627E-02
RMM:   7    -0.663116507581E+03   -0.11044E-04   -0.19050E-05  7606   0.816E-03    0.645E-02
RMM:   8    -0.663116501566E+03    0.60148E-05   -0.94234E-06  6995   0.668E-03
  20 F= -.66311650E+03 E0= -.66253231E+03  d E =-.583459E-01  mag=    -0.0000
       N       E                     dE             d eps       ncg     rms          rms(c)
DAV:   1    -0.663020912548E+03    0.95595E-01   -0.13392E+01 14496   0.481E+00    0.107E+00
RMM:   2    -0.663097910834E+03   -0.76998E-01   -0.26281E-01 14380   0.100E+00    0.320E+00
RMM:   3    -0.663045807013E+03    0.52104E-01   -0.72936E-02 16391   0.431E-01    0.107E+00
RMM:   4    -0.663083032904E+03   -0.37226E-01   -0.13034E-02 15070   0.187E-01    0.250E+00
RMM:   5    -0.663050605089E+03    0.32428E-01   -0.54246E-03 14396   0.132E-01    0.141E+00
RMM:   6    -0.663044472713E+03    0.61324E-02   -0.47340E-03 14529   0.117E-01    0.907E-01
RMM:   7    -0.663042068280E+03    0.24044E-02   -0.52033E-03 15453   0.115E-01    0.473E-01
RMM:   8    -0.663041246044E+03    0.82224E-03   -0.23780E-03 13958   0.689E-02    0.222E-01
RMM:   9    -0.663041080778E+03    0.16527E-03   -0.31144E-04 10724   0.331E-02    0.139E-01
RMM:  10    -0.663041016164E+03    0.64613E-04   -0.11758E-04  8746   0.194E-02
  21 F= -.66304102E+03 E0= -.66245796E+03  d E =0.754854E-01  mag=    -0.0000
       N       E                     dE             d eps       ncg     rms          rms(c)
DAV:   1    -0.663123432621E+03   -0.82352E-01   -0.70793E+00 14864   0.349E+00    0.852E-01
RMM:   2    -0.663169041315E+03   -0.45609E-01   -0.13331E-01 14374   0.696E-01    0.243E+00
RMM:   3    -0.663134351679E+03    0.34690E-01   -0.32050E-02 15709   0.306E-01    0.730E-01
RMM:   4    -0.663139100635E+03   -0.47490E-02   -0.77161E-03 15110   0.149E-01    0.106E+00
RMM:   5    -0.663158426557E+03   -0.19326E-01   -0.41942E-03 14453   0.104E-01    0.189E+00
RMM:   6    -0.663133695765E+03    0.24731E-01   -0.31281E-03 14482   0.993E-02    0.564E-01
RMM:   7    -0.663132865194E+03    0.83057E-03   -0.20229E-03 14024   0.758E-02    0.229E-01
RMM:   8    -0.663133070042E+03   -0.20485E-03   -0.75440E-04 12928   0.442E-02    0.285E-01
RMM:   9    -0.663132698806E+03    0.37124E-03   -0.27645E-04 10386   0.315E-02    0.124E-01
RMM:  10    -0.663132658647E+03    0.40159E-04   -0.71691E-05  8487   0.164E-02
  22 F= -.66313266E+03 E0= -.66254899E+03  d E =-.161571E-01  mag=    -0.0000
       N       E                     dE             d eps       ncg     rms          rms(c)
DAV:   1    -0.663103474673E+03    0.29224E-01   -0.83442E+00 14496   0.381E+00    0.953E-01
RMM:   2    -0.663156426549E+03   -0.52952E-01   -0.16534E-01 14336   0.857E-01    0.286E+00
RMM:   3    -0.663120489196E+03    0.35937E-01   -0.44594E-02 16316   0.354E-01    0.132E+00
RMM:   4    -0.663146866510E+03   -0.26377E-01   -0.88071E-03 15450   0.153E-01    0.229E+00
RMM:   5    -0.663127310563E+03    0.19556E-01   -0.38075E-03 14389   0.109E-01    0.163E+00
RMM:   6    -0.663119758278E+03    0.75523E-02   -0.84518E-03 16230   0.139E-01    0.101E+00
RMM:   7    -0.663115770213E+03    0.39881E-02   -0.52365E-03 15678   0.116E-01    0.410E-01
RMM:   8    -0.663114996027E+03    0.77419E-03   -0.14343E-03 13566   0.612E-02    0.194E-01
RMM:   9    -0.663115062897E+03   -0.66870E-04   -0.33084E-04 10785   0.338E-02
  23 F= -.66311506E+03 E0= -.66252892E+03  d E =0.175958E-01  mag=    -0.0000
       N       E                     dE             d eps       ncg     rms          rms(c)
DAV:   1    -0.663146348005E+03   -0.31352E-01   -0.28767E+00 14656   0.224E+00    0.651E-01
RMM:   2    -0.663171835276E+03   -0.25487E-01   -0.56159E-02 14336   0.490E-01    0.194E+00
RMM:   3    -0.663153272785E+03    0.18562E-01   -0.13082E-02 15314   0.210E-01    0.949E-01
RMM:   4    -0.663158747386E+03   -0.54746E-02   -0.42530E-03 16011   0.101E-01    0.123E+00
RMM:   5    -0.663152535744E+03    0.62116E-02   -0.20831E-03 14147   0.805E-02    0.856E-01
RMM:   6    -0.663150428459E+03    0.21073E-02   -0.36694E-03 15840   0.965E-02    0.527E-01
RMM:   7    -0.663149346243E+03    0.10822E-02   -0.16672E-03 14055   0.673E-02    0.227E-01
RMM:   8    -0.663149355855E+03   -0.96118E-05   -0.42497E-04 11849   0.372E-02
  24 F= -.66314936E+03 E0= -.66256478E+03  d E =-.166972E-01  mag=    -0.0000
       N       E                     dE             d eps       ncg     rms          rms(c)
DAV:   1    -0.663164815959E+03   -0.15470E-01   -0.34401E+00 14752   0.215E+00    0.744E-01
RMM:   2    -0.663189594674E+03   -0.24779E-01   -0.65984E-02 14336   0.522E-01    0.208E+00
RMM:   3    -0.663171935738E+03    0.17659E-01   -0.18500E-02 16260   0.217E-01    0.105E+00
RMM:   4    -0.663192894402E+03   -0.20959E-01   -0.42116E-03 14865   0.988E-02    0.198E+00
RMM:   5    -0.663176873882E+03    0.16021E-01   -0.28303E-03 14217   0.929E-02    0.137E+00
RMM:   6    -0.663171421816E+03    0.54521E-02   -0.56090E-03 16299   0.114E-01    0.794E-01
RMM:   7    -0.663168797226E+03    0.26246E-02   -0.30808E-03 15207   0.875E-02    0.341E-01
RMM:   8    -0.663168591260E+03    0.20597E-03   -0.58670E-04 12813   0.442E-02    0.288E-01
RMM:   9    -0.663168234500E+03    0.35676E-03   -0.30068E-04 10438   0.315E-02    0.159E-01
RMM:  10    -0.663168135516E+03    0.98984E-04   -0.12837E-04  8798   0.197E-02
  25 F= -.66316814E+03 E0= -.66258316E+03  d E =-.187797E-01  mag=    -0.0000
       N       E                     dE             d eps       ncg     rms          rms(c)
DAV:   1    -0.663168064215E+03    0.17029E-03   -0.95870E-03 14800   0.122E-01    0.754E-02
RMM:   2    -0.663168631355E+03   -0.56714E-03   -0.43277E-04 11568   0.343E-02    0.294E-01
RMM:   3    -0.663168037903E+03    0.59345E-03   -0.11532E-04  7880   0.252E-02    0.577E-02
RMM:   4    -0.663168125780E+03   -0.87877E-04   -0.32706E-05  7731   0.104E-02    0.111E-01
RMM:   5    -0.663168051622E+03    0.74158E-04   -0.12872E-05  6957   0.746E-03    0.472E-02
RMM:   6    -0.663168051422E+03    0.20050E-06   -0.91210E-06  6708   0.555E-03    0.260E-02
RMM:   7    -0.663168056023E+03   -0.46010E-05   -0.56721E-06  6266   0.492E-03    0.310E-02
RMM:   8    -0.663168053487E+03    0.25354E-05   -0.37580E-06  5437   0.425E-03
  26 F= -.66316805E+03 E0= -.66258321E+03  d E =-.186976E-01  mag=    -0.0000
       N       E                     dE             d eps       ncg     rms          rms(c)
DAV:   1    -0.663169967835E+03   -0.19118E-02   -0.33787E+00 14432   0.238E+00    0.701E-01
RMM:   2    -0.663186134655E+03   -0.16167E-01   -0.67071E-02 14385   0.542E-01    0.164E+00
RMM:   3    -0.663177075638E+03    0.90590E-02   -0.19999E-02 16891   0.221E-01    0.848E-01
RMM:   4    -0.663185052310E+03   -0.79767E-02   -0.30482E-03 14666   0.934E-02    0.136E+00
RMM:   5    -0.663194655795E+03   -0.96035E-02   -0.27078E-03 14239   0.827E-02    0.177E+00
RMM:   6    -0.663178114659E+03    0.16541E-01   -0.33034E-03 15298   0.952E-02    0.786E-01
RMM:   7    -0.663176028845E+03    0.20858E-02   -0.29915E-03 15523   0.871E-02    0.319E-01
RMM:   8    -0.663175542858E+03    0.48599E-03   -0.61129E-04 12309   0.392E-02    0.150E-01
RMM:   9    -0.663175551581E+03   -0.87234E-05   -0.10820E-04  8626   0.204E-02
  27 F= -.66317555E+03 E0= -.66259207E+03  d E =-.749809E-02  mag=    -0.0000
       N       E                     dE             d eps       ncg     rms          rms(c)
DAV:   1    -0.663181979192E+03   -0.64363E-02   -0.55769E-01 14848   0.968E-01    0.342E-01
RMM:   2    -0.663189193133E+03   -0.72139E-02   -0.11882E-02 14384   0.221E-01    0.110E+00
RMM:   3    -0.663182572568E+03    0.66206E-02   -0.23690E-03 14492   0.101E-01    0.373E-01
RMM:   4    -0.663183086268E+03   -0.51370E-03   -0.93246E-04 13340   0.477E-02    0.417E-01
RMM:   5    -0.663190537972E+03   -0.74517E-02   -0.87215E-04 13525   0.426E-02    0.107E+00
RMM:   6    -0.663182486922E+03    0.80510E-02   -0.78697E-04 13388   0.500E-02    0.263E-01
RMM:   7    -0.663182469617E+03    0.17305E-04   -0.33860E-04 10791   0.326E-02    0.170E-01
RMM:   8    -0.663182402918E+03    0.66699E-04   -0.10281E-04  8120   0.201E-02
  28 F= -.66318240E+03 E0= -.66259829E+03  d E =-.143494E-01  mag=    -0.0000
       N       E                     dE             d eps       ncg     rms          rms(c)
DAV:   1    -0.663185967498E+03   -0.34979E-02   -0.33885E-01 14848   0.819E-01    0.228E-01
RMM:   2    -0.663187529287E+03   -0.15618E-02   -0.68293E-03 14336   0.175E-01    0.522E-01
RMM:   3    -0.663186564382E+03    0.96491E-03   -0.17701E-03 15510   0.726E-02    0.302E-01
RMM:   4    -0.663186732922E+03   -0.16854E-03   -0.28098E-04  9726   0.277E-02    0.304E-01
RMM:   5    -0.663187977742E+03   -0.12448E-02   -0.18300E-04  9067   0.234E-02    0.502E-01
RMM:   6    -0.663186773231E+03    0.12045E-02   -0.36558E-04 10587   0.310E-02    0.287E-01
RMM:   7    -0.663186579887E+03    0.19334E-03   -0.34100E-04 10404   0.309E-02    0.128E-01
RMM:   8    -0.663186535680E+03    0.44207E-04   -0.74296E-05  8085   0.178E-02
  29 F= -.66318654E+03 E0= -.66260299E+03  d E =-.413276E-02  mag=    -0.0000
       N       E                     dE             d eps       ncg     rms          rms(c)
DAV:   1    -0.663186633475E+03   -0.53588E-04   -0.73680E-03 15040   0.123E-01    0.619E-02
RMM:   2    -0.663186864680E+03   -0.23120E-03   -0.24398E-04  9455   0.302E-02    0.184E-01
RMM:   3    -0.663186643099E+03    0.22158E-03   -0.68248E-05  7706   0.202E-02    0.849E-02
RMM:   4    -0.663186657278E+03   -0.14179E-04   -0.16664E-05  7654   0.762E-03    0.809E-02
RMM:   5    -0.663186629841E+03    0.27436E-04   -0.98722E-06  6806   0.648E-03    0.453E-02
RMM:   6    -0.663186622835E+03    0.70061E-05   -0.16087E-05  7514   0.671E-03    0.273E-02
RMM:   7    -0.663186631078E+03   -0.82430E-05   -0.83029E-06  6752   0.558E-03    0.378E-02
RMM:   8    -0.663186622095E+03    0.89839E-05   -0.22950E-06  5049   0.400E-03
  30 F= -.66318662E+03 E0= -.66260306E+03  d E =-.421918E-02  mag=    -0.0000
       N       E                     dE             d eps       ncg     rms          rms(c)
DAV:   1    -0.663191758258E+03   -0.51272E-02   -0.23228E-01 14688   0.575E-01    0.226E-01
RMM:   2    -0.663192627797E+03   -0.86954E-03   -0.41180E-03 14184   0.132E-01    0.452E-01
RMM:   3    -0.663192262491E+03    0.36531E-03   -0.13212E-03 13723   0.539E-02    0.320E-01
RMM:   4    -0.663195045995E+03   -0.27835E-02   -0.29777E-04 10427   0.277E-02    0.682E-01
RMM:   5    -0.663192189791E+03    0.28562E-02   -0.37424E-04 11006   0.340E-02    0.253E-01
RMM:   6    -0.663192336959E+03   -0.14717E-03   -0.37566E-04 10933   0.333E-02    0.200E-01
RMM:   7    -0.663192154485E+03    0.18247E-03   -0.12460E-04  8014   0.211E-02    0.106E-01
RMM:   8    -0.663192125054E+03    0.29431E-04   -0.39209E-05  7780   0.134E-02
  31 F= -.66319213E+03 E0= -.66260891E+03  d E =-.550296E-02  mag=    -0.0000
       N       E                     dE             d eps       ncg     rms          rms(c)
DAV:   1    -0.663193963635E+03   -0.18092E-02   -0.59384E-01 14640   0.926E-01    0.417E-01
RMM:   2    -0.663195823625E+03   -0.18600E-02   -0.99663E-03 14320   0.202E-01    0.677E-01
RMM:   3    -0.663195387137E+03    0.43649E-03   -0.35761E-03 16384   0.843E-02    0.527E-01
RMM:   4    -0.663204500165E+03   -0.91130E-02   -0.88731E-04 13297   0.430E-02    0.120E+00
RMM:   5    -0.663196512856E+03    0.79873E-02   -0.15426E-03 14878   0.623E-02    0.568E-01
RMM:   6    -0.663196512125E+03    0.73131E-06   -0.12308E-03 14427   0.597E-02    0.494E-01
RMM:   7    -0.663195171687E+03    0.13404E-02   -0.53155E-04 12204   0.402E-02    0.176E-01
RMM:   8    -0.663195119237E+03    0.52451E-04   -0.10136E-04  8246   0.210E-02
  32 F= -.66319512E+03 E0= -.66261264E+03  d E =-.849714E-02  mag=    -0.0000
       N       E                     dE             d eps       ncg     rms          rms(c)
DAV:   1    -0.663197479418E+03   -0.23077E-02   -0.86725E-02 15024   0.349E-01    0.214E-01
RMM:   2    -0.663197859758E+03   -0.38034E-03   -0.16897E-03 14014   0.795E-02    0.256E-01
RMM:   3    -0.663198456449E+03   -0.59669E-03   -0.74765E-04 12876   0.426E-02    0.359E-01
RMM:   4    -0.663200156054E+03   -0.16996E-02   -0.46116E-04 11841   0.335E-02    0.593E-01
RMM:   5    -0.663197698260E+03    0.24578E-02   -0.25072E-04  9729   0.320E-02    0.141E-01
RMM:   6    -0.663197674456E+03    0.23803E-04   -0.13190E-04  8270   0.238E-02    0.990E-02
RMM:   7    -0.663197665570E+03    0.88860E-05   -0.47461E-05  7740   0.149E-02    0.684E-02
RMM:   8    -0.663197641022E+03    0.24548E-04   -0.14637E-05  6801   0.835E-03
  33 F= -.66319764E+03 E0= -.66261565E+03  d E =-.252178E-02  mag=    -0.0000
       N       E                     dE             d eps       ncg     rms          rms(c)
DAV:   1    -0.663198537485E+03   -0.87192E-03   -0.27875E-01 14848   0.623E-01    0.333E-01
RMM:   2    -0.663199579941E+03   -0.10425E-02   -0.45104E-03 14218   0.138E-01    0.495E-01
RMM:   3    -0.663199035168E+03    0.54477E-03   -0.12623E-03 13680   0.580E-02    0.315E-01
RMM:   4    -0.663203492418E+03   -0.44573E-02   -0.97690E-04 13390   0.473E-02    0.789E-01
RMM:   5    -0.663202866013E+03    0.62641E-03   -0.88633E-04 13880   0.500E-02    0.741E-01
RMM:   6    -0.663199018038E+03    0.38480E-02   -0.42721E-04 11210   0.396E-02    0.200E-01
RMM:   7    -0.663198904176E+03    0.11386E-03   -0.97867E-05  8260   0.211E-02    0.836E-02
RMM:   8    -0.663198890112E+03    0.14064E-04   -0.26035E-05  7858   0.115E-02
  34 F= -.66319889E+03 E0= -.66261751E+03  d E =-.377088E-02  mag=    -0.0000
       N       E                     dE             d eps       ncg     rms          rms(c)
DAV:   1    -0.663199023770E+03   -0.11959E-03   -0.23483E-02 14864   0.182E-01    0.972E-02
RMM:   2    -0.663199304503E+03   -0.28073E-03   -0.48888E-04 11559   0.439E-02    0.221E-01
RMM:   3    -0.663199133242E+03    0.17126E-03   -0.10878E-04  8020   0.215E-02    0.153E-01
RMM:   4    -0.663199100259E+03    0.32983E-04   -0.37409E-05  7652   0.118E-02    0.131E-01
RMM:   5    -0.663199122906E+03   -0.22647E-04   -0.51485E-05  7712   0.134E-02    0.130E-01
RMM:   6    -0.663199036802E+03    0.86104E-04   -0.41008E-05  7686   0.132E-02    0.568E-02
RMM:   7    -0.663199043559E+03   -0.67578E-05   -0.13264E-05  6836   0.787E-03    0.410E-02
RMM:   8    -0.663199041509E+03    0.20502E-05   -0.31851E-06  5390   0.417E-03
  35 F= -.66319904E+03 E0= -.66261758E+03  d E =-.392227E-02  mag=    -0.0000
       N       E                     dE             d eps       ncg     rms          rms(c)
DAV:   1    -0.663200171663E+03   -0.11281E-02   -0.13371E-02 14992   0.171E-01    0.594E-02
RMM:   2    -0.663200294735E+03   -0.12307E-03   -0.26339E-04  9040   0.303E-02    0.131E-01
RMM:   3    -0.663200249493E+03    0.45241E-04   -0.56137E-05  7688   0.160E-02    0.106E-01
RMM:   4    -0.663200220693E+03    0.28800E-04   -0.25770E-05  7652   0.997E-03    0.745E-02
RMM:   5    -0.663200207340E+03    0.13353E-04   -0.14882E-05  7129   0.827E-03    0.434E-02
RMM:   6    -0.663200203991E+03    0.33490E-05   -0.10994E-05  6822   0.672E-03    0.349E-02
RMM:   7    -0.663200199090E+03    0.49003E-05   -0.33695E-06  5924   0.462E-03    0.204E-02
RMM:   8    -0.663200198161E+03    0.92973E-06   -0.15825E-07  2122   0.242E-03
  36 F= -.66320020E+03 E0= -.66261870E+03  d E =-.115665E-02  mag=    -0.0000
       N       E                     dE             d eps       ncg     rms          rms(c)
DAV:   1    -0.663200523796E+03   -0.32471E-03   -0.11841E-02 14992   0.161E-01    0.501E-02
RMM:   2    -0.663200559908E+03   -0.36112E-04   -0.23073E-04  8709   0.288E-02    0.794E-02
RMM:   3    -0.663200537855E+03    0.22053E-04   -0.38183E-05  7656   0.140E-02    0.457E-02
RMM:   4    -0.663200740813E+03   -0.20296E-03   -0.24227E-05  7498   0.788E-03    0.169E-01
RMM:   5    -0.663200544379E+03    0.19643E-03   -0.22204E-05  7432   0.949E-03    0.613E-02
RMM:   6    -0.663200546235E+03   -0.18554E-05   -0.11552E-05  6732   0.707E-03    0.321E-02
RMM:   7    -0.663200545529E+03    0.70544E-06   -0.29996E-06  5401   0.434E-03    0.188E-02
RMM:   8    -0.663200544856E+03    0.67322E-06   -0.55388E-08  1705   0.243E-03
  37 F= -.66320054E+03 E0= -.66261908E+03  d E =-.150335E-02  mag=    -0.0000
       N       E                     dE             d eps       ncg     rms          rms(c)
DAV:   1    -0.663200765655E+03   -0.22013E-03   -0.19245E-03 13984   0.587E-02    0.224E-02
RMM:   2    -0.663200778179E+03   -0.12524E-04   -0.37670E-05  7642   0.125E-02    0.423E-02
RMM:   3    -0.663200782110E+03   -0.39312E-05   -0.10159E-05  7594   0.718E-03    0.465E-02
RMM:   4    -0.663200776848E+03    0.52623E-05   -0.35216E-06  5594   0.413E-03    0.408E-02
RMM:   5    -0.663200769359E+03    0.74892E-05   -0.17072E-06  4481   0.362E-03    0.121E-02
RMM:   6    -0.663200771014E+03   -0.16552E-05   -0.40030E-07  2288   0.295E-03    0.153E-02
RMM:   7    -0.663200770419E+03    0.59513E-06   -0.51419E-08  1488   0.269E-03    0.112E-02
RMM:   8    -0.663200769931E+03    0.48803E-06   -0.26912E-08  1255   0.264E-03
  38 F= -.66320077E+03 E0= -.66261928E+03  d E =-.225075E-03  mag=    -0.0000
       N       E                     dE             d eps       ncg     rms          rms(c)
DAV:   1    -0.663201087748E+03   -0.31733E-03   -0.17301E-02 14912   0.176E-01    0.531E-02
RMM:   2    -0.663201158884E+03   -0.71135E-04   -0.34108E-04 10484   0.366E-02    0.982E-02
RMM:   3    -0.663201117271E+03    0.41612E-04   -0.68920E-05  7688   0.176E-02    0.558E-02
RMM:   4    -0.663201224773E+03   -0.10750E-03   -0.28731E-05  7680   0.107E-02    0.129E-01
RMM:   5    -0.663201121735E+03    0.10304E-03   -0.20110E-05  7504   0.882E-03    0.625E-02
RMM:   6    -0.663201115934E+03    0.58010E-05   -0.12862E-05  6992   0.752E-03    0.323E-02
RMM:   7    -0.663201113820E+03    0.21143E-05   -0.73032E-06  6835   0.572E-03    0.179E-02
RMM:   8    -0.663201113968E+03   -0.14828E-06   -0.65248E-07  2578   0.276E-03
  39 F= -.66320111E+03 E0= -.66261957E+03  d E =-.569112E-03  mag=    -0.0000
       N       E                     dE             d eps       ncg     rms          rms(c)
DAV:   1    -0.663201317676E+03   -0.20386E-03   -0.22075E-03 14048   0.582E-02    0.210E-02
RMM:   2    -0.663201420374E+03   -0.10270E-03   -0.50905E-05  7668   0.140E-02    0.120E-01
RMM:   3    -0.663201311334E+03    0.10904E-03   -0.14749E-05  7646   0.885E-03    0.297E-02
RMM:   4    -0.663201321441E+03   -0.10107E-04   -0.29918E-06  5627   0.415E-03    0.131E-02
RMM:   5    -0.663201325841E+03   -0.44000E-05   -0.86460E-07  3413   0.314E-03    0.312E-02
RMM:   6    -0.663201324191E+03    0.16500E-05   -0.19454E-07  2313   0.284E-03    0.256E-02
RMM:   7    -0.663201319744E+03    0.44472E-05   -0.18469E-06  4107   0.344E-03    0.111E-02
RMM:   8    -0.663201320865E+03   -0.11218E-05   -0.18107E-07  1568   0.276E-03
  40 F= -.66320132E+03 E0= -.66261977E+03  d E =-.206897E-03  mag=    -0.0000
       N       E                     dE             d eps       ncg     rms          rms(c)
DAV:   1    -0.663201703631E+03   -0.38389E-03   -0.19847E-02 14816   0.173E-01    0.559E-02
RMM:   2    -0.663201792637E+03   -0.89006E-04   -0.35283E-04 10790   0.376E-02    0.121E-01
RMM:   3    -0.663201743628E+03    0.49009E-04   -0.78223E-05  7706   0.176E-02    0.686E-02
RMM:   4    -0.663201805431E+03   -0.61804E-04   -0.27111E-05  7644   0.107E-02    0.110E-01
RMM:   5    -0.663201750078E+03    0.55354E-04   -0.28010E-05  7578   0.976E-03    0.832E-02
RMM:   6    -0.663201728438E+03    0.21640E-04   -0.15578E-05  7228   0.845E-03    0.367E-02
RMM:   7    -0.663201727806E+03    0.63219E-06   -0.85361E-06  6554   0.580E-03    0.287E-02
RMM:   8    -0.663201727341E+03    0.46495E-06   -0.16801E-06  3699   0.333E-03
  41 F= -.66320173E+03 E0= -.66262015E+03  d E =-.613373E-03  mag=    -0.0000
       N       E                     dE             d eps       ncg     rms          rms(c)
DAV:   1    -0.663201471617E+03    0.25619E-03   -0.79074E-02 14592   0.346E-01    0.116E-01
RMM:   2    -0.663201725340E+03   -0.25372E-03   -0.13752E-03 14176   0.747E-02    0.203E-01
RMM:   3    -0.663201614905E+03    0.11043E-03   -0.33481E-04 10533   0.315E-02    0.113E-01
RMM:   4    -0.663202333280E+03   -0.71837E-03   -0.12036E-04  8466   0.205E-02    0.329E-01
RMM:   5    -0.663201712443E+03    0.62084E-03   -0.12632E-04  8374   0.211E-02    0.191E-01
RMM:   6    -0.663201580371E+03    0.13207E-03   -0.69141E-05  7872   0.175E-02    0.728E-02
RMM:   7    -0.663201565987E+03    0.14384E-04   -0.42125E-05  7709   0.125E-02    0.369E-02
RMM:   8    -0.663201569613E+03   -0.36256E-05   -0.10230E-05  6864   0.665E-03
  42 F= -.66320157E+03 E0= -.66261991E+03  d E =-.455645E-03  mag=    -0.0000
       N       E                     dE             d eps       ncg     rms          rms(c)
DAV:   1    -0.663201769728E+03   -0.20374E-03   -0.32029E-02 14704   0.220E-01    0.692E-02
RMM:   2    -0.663201995523E+03   -0.22579E-03   -0.56448E-04 12726   0.481E-02    0.196E-01
RMM:   3    -0.663201816857E+03    0.17867E-03   -0.12452E-04  8070   0.214E-02    0.880E-02
RMM:   4    -0.663201979829E+03   -0.16297E-03   -0.43776E-05  7726   0.140E-02    0.172E-01
RMM:   5    -0.663201809834E+03    0.17000E-03   -0.40938E-05  7684   0.121E-02    0.866E-02
RMM:   6    -0.663201796552E+03    0.13281E-04   -0.30536E-05  7536   0.110E-02    0.401E-02
RMM:   7    -0.663201801994E+03   -0.54416E-05   -0.17938E-05  7174   0.834E-03    0.464E-02
RMM:   8    -0.663201796455E+03    0.55391E-05   -0.42790E-06  5467   0.437E-03
  43 F= -.66320180E+03 E0= -.66262025E+03  d E =-.682487E-03  mag=    -0.0000
       N       E                     dE             d eps       ncg     rms          rms(c)
DAV:   1    -0.663202020369E+03   -0.21838E-03   -0.88541E-03 14896   0.109E-01    0.364E-02
RMM:   2    -0.663202204046E+03   -0.18368E-03   -0.16041E-04  8248   0.247E-02    0.162E-01
RMM:   3    -0.663202041804E+03    0.16224E-03   -0.40991E-05  7686   0.143E-02    0.722E-02
RMM:   4    -0.663202026707E+03    0.15097E-04   -0.10234E-05  6726   0.700E-03    0.242E-02
RMM:   5    -0.663202034590E+03   -0.78824E-05   -0.72355E-06  6892   0.511E-03    0.378E-02
RMM:   6    -0.663202030223E+03    0.43666E-05   -0.72070E-06  6530   0.534E-03    0.303E-02
RMM:   7    -0.663202026347E+03    0.38763E-05   -0.62911E-06  6664   0.488E-03    0.173E-02
RMM:   8    -0.663202026896E+03   -0.54947E-06   -0.90089E-07  3032   0.309E-03
  44 F= -.66320203E+03 E0= -.66262045E+03  d E =-.230442E-03  mag=    -0.0000
       N       E                     dE             d eps       ncg     rms          rms(c)
DAV:   1    -0.663202068088E+03   -0.41741E-04   -0.79302E-02 14720   0.327E-01    0.100E-01
RMM:   2    -0.663202401101E+03   -0.33301E-03   -0.13565E-03 14008   0.725E-02    0.214E-01
RMM:   3    -0.663202160650E+03    0.24045E-03   -0.30836E-04 10212   0.305E-02    0.845E-02
RMM:   4    -0.663202807977E+03   -0.64733E-03   -0.11720E-04  8412   0.205E-02    0.307E-01
RMM:   5    -0.663202177626E+03    0.63035E-03   -0.79106E-05  8162   0.179E-02    0.119E-01
RMM:   6    -0.663202154266E+03    0.23361E-04   -0.53518E-05  7768   0.142E-02    0.501E-02
RMM:   7    -0.663202146899E+03    0.73673E-05   -0.33802E-05  7500   0.116E-02    0.279E-02
RMM:   8    -0.663202148198E+03   -0.12999E-05   -0.92783E-06  6660   0.593E-03
  45 F= -.66320215E+03 E0= -.66262065E+03  d E =-.351744E-03  mag=    -0.0000
       N       E                     dE             d eps       ncg     rms          rms(c)
DAV:   1    -0.663202209021E+03   -0.62122E-04   -0.11532E-02 14672   0.124E-01    0.382E-02
RMM:   2    -0.663202352420E+03   -0.14340E-03   -0.19016E-04  8724   0.276E-02    0.143E-01
RMM:   3    -0.663202215614E+03    0.13681E-03   -0.43069E-05  7690   0.142E-02    0.538E-02
RMM:   4    -0.663202217257E+03   -0.16428E-05   -0.12254E-05  6902   0.753E-03    0.297E-02
RMM:   5    -0.663202220336E+03   -0.30792E-05   -0.93737E-06  7183   0.590E-03    0.333E-02
RMM:   6    -0.663202219157E+03    0.11798E-05   -0.10554E-05  7037   0.579E-03    0.312E-02
RMM:   7    -0.663202215639E+03    0.35179E-05   -0.64790E-06  6456   0.522E-03    0.155E-02
RMM:   8    -0.663202215620E+03    0.18299E-07   -0.86044E-07  2778   0.294E-03
  46 F= -.66320222E+03 E0= -.66262070E+03  d E =-.419166E-03  mag=    -0.0000
       N       E                     dE             d eps       ncg     rms          rms(c)
DAV:   1    -0.663202424798E+03   -0.20916E-03   -0.12993E-02 14976   0.128E-01    0.307E-02
RMM:   2    -0.663202451725E+03   -0.26927E-04   -0.20029E-04  8754   0.267E-02    0.539E-02
RMM:   3    -0.663202436216E+03    0.15509E-04   -0.36895E-05  7491   0.127E-02    0.225E-02
RMM:   4    -0.663202445599E+03   -0.93830E-05   -0.11889E-05  7020   0.714E-03    0.418E-02
RMM:   5    -0.663202449674E+03   -0.40759E-05   -0.49485E-06  6132   0.459E-03    0.502E-02
RMM:   6    -0.663202433468E+03    0.16207E-04   -0.59854E-06  6432   0.455E-03    0.190E-02
RMM:   7    -0.663202435655E+03   -0.21871E-05   -0.42011E-06  5558   0.412E-03    0.102E-02
RMM:   8    -0.663202435483E+03    0.17140E-06   -0.73170E-07  2667   0.288E-03
  47 F= -.66320244E+03 E0= -.66262085E+03  d E =-.219863E-03  mag=    -0.0000
