 ----------------------------------------------------
    OOO  PPPP  EEEEE N   N M   M PPPP
   O   O P   P E     NN  N MM MM P   P
   O   O PPPP  EEEEE N N N M M M PPPP   -- VERSION
   O   O P     E     N  NN M   M P
    OOO  P     EEEEE N   N M   M P
 ----------------------------------------------------
 running   16 mpi-ranks, with    4 threads/rank
 distrk:  each k-point on   16 cores,    1 groups
 distr:  one band on    1 cores,   16 groups
 vasp.6.2.1 16May21 (build Jul 28 2021 23:24:15) complex                        
  
 POSCAR found type information on POSCAR H IrO 
 POSCAR found :  3 types and     112 ions
 scaLAPACK will be used
 -----------------------------------------------------------------------------
|                                                                             |
|           W    W    AA    RRRRR   N    N  II  N    N   GGGG   !!!           |
|           W    W   A  A   R    R  NN   N  II  NN   N  G    G  !!!           |
|           W    W  A    A  R    R  N N  N  II  N N  N  G       !!!           |
|           W WW W  AAAAAA  RRRRR   N  N N  II  N  N N  G  GGG   !            |
|           WW  WW  A    A  R   R   N   NN  II  N   NN  G    G                |
|           W    W  A    A  R    R  N    N  II  N    N   GGGG   !!!           |
|                                                                             |
|     The real-space projection scheme for the treatment of the non-local     |
|     pseudopotentials has been switched on but on file POTCAR I have not     |
|     found any entries, signalling me that you have never performed a        |
|     real-space optimization of all non-local projectors! BE WARNED that     |
|     a calculation using the real-space projection scheme together with      |
|     non-local projectors which were not real-space optimized (according     |
|     to the plane-wave cutoff used in this calculation) might give more      |
|     or less inaccurate results. I hope you know what you are doing.         |
|                                                                             |
 -----------------------------------------------------------------------------

 LDA part: xc-table for Pade appr. of Perdew
 POSCAR, INCAR and KPOINTS ok, starting setup
 FFT: planning ...
 WAVECAR not read
 WARNING: random wavefunctions but no delay for mixing, default for NELMDL
 entering main loop
       N       E                     dE             d eps       ncg     rms          rms(c)
DAV:   1     0.780836317246E+04    0.78084E+04   -0.31243E+05 13664   0.127E+03
DAV:   2     0.583049834213E+03   -0.72253E+04   -0.65350E+04 14528   0.374E+02
DAV:   3    -0.805155258735E+03   -0.13882E+04   -0.13329E+04 16688   0.165E+02
DAV:   4    -0.882013542430E+03   -0.76858E+02   -0.74990E+02 18448   0.434E+01
DAV:   5    -0.883759876324E+03   -0.17463E+01   -0.17240E+01 17376   0.609E+00    0.191E+02
RMM:   6    -0.747375308078E+03    0.13638E+03   -0.67102E+02 13487   0.408E+01    0.195E+02
RMM:   7    -0.107245846337E+04   -0.32508E+03   -0.22559E+02 14250   0.230E+01    0.352E+02
RMM:   8    -0.888462861276E+03    0.18400E+03   -0.54143E+01 16207   0.871E+00    0.281E+02
RMM:   9    -0.102964487294E+04   -0.14118E+03   -0.17789E+02 17171   0.181E+01    0.306E+02
RMM:  10    -0.767909222575E+03    0.26174E+03   -0.10827E+02 15793   0.146E+01    0.118E+02
RMM:  11    -0.647732815163E+03    0.12018E+03   -0.68482E+01 14377   0.140E+01    0.605E+01
RMM:  12    -0.667999519801E+03   -0.20267E+02   -0.25104E+01 13563   0.808E+00    0.703E+01
RMM:  13    -0.658197936098E+03    0.98016E+01   -0.18888E+01 13570   0.762E+00    0.278E+01
RMM:  14    -0.664138410569E+03   -0.59405E+01   -0.72667E+00 14453   0.382E+00    0.303E+01
RMM:  15    -0.670364986349E+03   -0.62266E+01   -0.36607E+00 13584   0.308E+00    0.215E+01
RMM:  16    -0.682952156124E+03   -0.12587E+02   -0.97712E+00 15429   0.418E+00    0.179E+01
RMM:  17    -0.699526713887E+03   -0.16575E+02   -0.92325E+00 15337   0.412E+00    0.159E+01
RMM:  18    -0.705554087941E+03   -0.60274E+01   -0.35744E+00 14041   0.277E+00    0.148E+01
RMM:  19    -0.708466681543E+03   -0.29126E+01   -0.22007E+00 14160   0.207E+00    0.103E+01
RMM:  20    -0.713825083182E+03   -0.53584E+01   -0.17823E+00 14471   0.185E+00    0.978E+00
RMM:  21    -0.716616126392E+03   -0.27910E+01   -0.78168E-01 13706   0.130E+00    0.919E+00
RMM:  22    -0.721687843504E+03   -0.50717E+01   -0.16473E+00 15289   0.158E+00    0.747E+00
RMM:  23    -0.725107261265E+03   -0.34194E+01   -0.11771E+00 15130   0.140E+00    0.668E+00
RMM:  24    -0.727968456137E+03   -0.28612E+01   -0.10792E+00 15206   0.128E+00    0.766E+00
RMM:  25    -0.728754094507E+03   -0.78564E+00   -0.39934E-01 14200   0.809E-01    0.695E+00
RMM:  26    -0.729686509411E+03   -0.93241E+00   -0.18181E-01 13851   0.554E-01    0.661E+00
RMM:  27    -0.730809240927E+03   -0.11227E+01   -0.18112E-01 14448   0.518E-01    0.611E+00
RMM:  28    -0.732247344104E+03   -0.14381E+01   -0.18995E-01 15048   0.528E-01    0.459E+00
RMM:  29    -0.732801561184E+03   -0.55422E+00   -0.61069E-02 13762   0.349E-01    0.388E+00
RMM:  30    -0.733370612330E+03   -0.56905E+00   -0.69013E-02 14471   0.326E-01    0.315E+00
RMM:  31    -0.733810168218E+03   -0.43956E+00   -0.39471E-02 14129   0.264E-01    0.239E+00
RMM:  32    -0.734209453111E+03   -0.39928E+00   -0.77304E-02 15811   0.325E-01    0.187E+00
RMM:  33    -0.734471372983E+03   -0.26192E+00   -0.62739E-02 15725   0.288E-01    0.158E+00
RMM:  34    -0.734475216390E+03   -0.38434E-02   -0.40636E-02 15227   0.233E-01    0.177E+00
RMM:  35    -0.734588065829E+03   -0.11285E+00   -0.10620E-02 13883   0.140E-01    0.179E+00
RMM:  36    -0.734722237117E+03   -0.13417E+00   -0.63365E-03 13923   0.111E-01    0.167E+00
RMM:  37    -0.734814072792E+03   -0.91836E-01   -0.65816E-03 14545   0.101E-01    0.167E+00
RMM:  38    -0.734843986874E+03   -0.29914E-01   -0.19827E-03 13396   0.617E-02    0.134E+00
RMM:  39    -0.734897295968E+03   -0.53309E-01   -0.12081E-03 12882   0.500E-02    0.109E+00
RMM:  40    -0.734976721869E+03   -0.79426E-01   -0.14817E-03 13830   0.527E-02    0.818E-01
RMM:  41    -0.735043362488E+03   -0.66641E-01   -0.14024E-03 13583   0.473E-02    0.587E-01
RMM:  42    -0.735102989419E+03   -0.59627E-01   -0.16488E-03 13943   0.486E-02    0.342E-01
RMM:  43    -0.735167206005E+03   -0.64217E-01   -0.26458E-03 15008   0.559E-02    0.209E-01
RMM:  44    -0.735197979724E+03   -0.30774E-01   -0.78061E-04 12652   0.339E-02    0.217E-01
RMM:  45    -0.735221846885E+03   -0.23867E-01   -0.52076E-04 11334   0.265E-02    0.219E-01
RMM:  46    -0.735242455333E+03   -0.20608E-01   -0.33239E-04  9988   0.214E-02    0.205E-01
RMM:  47    -0.735259930034E+03   -0.17475E-01   -0.22912E-04  9238   0.182E-02    0.179E-01
RMM:  48    -0.735272856045E+03   -0.12926E-01   -0.13712E-04  8517   0.142E-02    0.164E-01
RMM:  49    -0.735279432923E+03   -0.65769E-02   -0.73973E-05  7625   0.111E-02    0.151E-01
RMM:  50    -0.735284129928E+03   -0.46970E-02   -0.62598E-05  8076   0.998E-03    0.121E-01
RMM:  51    -0.735287870726E+03   -0.37408E-02   -0.12814E-04  8411   0.153E-02    0.478E-02
RMM:  52    -0.735289520278E+03   -0.16496E-02   -0.66674E-05  8142   0.113E-02    0.317E-02
RMM:  53    -0.735290010795E+03   -0.49052E-03   -0.37898E-05  7335   0.841E-03    0.213E-02
RMM:  54    -0.735290312954E+03   -0.30216E-03   -0.22175E-05  6689   0.679E-03    0.164E-02
RMM:  55    -0.735290498773E+03   -0.18582E-03   -0.11476E-05  5667   0.510E-03    0.132E-02
RMM:  56    -0.735291098294E+03   -0.59952E-03   -0.16804E-05  6152   0.486E-03    0.105E-02
RMM:  57    -0.735291349644E+03   -0.25135E-03   -0.80862E-06  5702   0.466E-03    0.893E-03
RMM:  58    -0.735291460165E+03   -0.11052E-03   -0.41572E-06  4444   0.358E-03    0.704E-03
RMM:  59    -0.735291672880E+03   -0.21271E-03   -0.40467E-06  4674   0.356E-03    0.846E-03
RMM:  60    -0.735291807135E+03   -0.13426E-03   -0.32478E-06  4760   0.351E-03    0.846E-03
RMM:  61    -0.735292046423E+03   -0.23929E-03   -0.43267E-06  5379   0.369E-03    0.641E-03
RMM:  62    -0.735292196746E+03   -0.15032E-03   -0.29814E-06  4866   0.353E-03    0.618E-03
RMM:  63    -0.735292343910E+03   -0.14716E-03   -0.27919E-06  4690   0.344E-03    0.678E-03
RMM:  64    -0.735292364654E+03   -0.20745E-04   -0.10986E-06  3559   0.307E-03
   1 F= -.73529236E+03 E0= -.73466212E+03  d E =-.735292E+03  mag=     0.0984
 curvature:   0.00 expect dE= 0.000E+00 dE for cont linesearch  0.000E+00
 trial: gam= 0.00000 g(F)=  0.188E+02 g(S)=  0.000E+00 ort = 0.000E+00 (trialstep = 0.100E+01)
 search vector abs. value=  0.188E+02
 bond charge predicted
       N       E                     dE             d eps       ncg     rms          rms(c)
DAV:   1    -0.699403763575E+03    0.35889E+02   -0.34534E+03 13520   0.893E+01    0.196E+01
RMM:   2    -0.740680494035E+03   -0.41277E+02   -0.14833E+02 13440   0.176E+01    0.744E+01
RMM:   3    -0.712393402474E+03    0.28287E+02   -0.25996E+01 13835   0.755E+00    0.212E+01
RMM:   4    -0.712227280101E+03    0.16612E+00   -0.48240E+00 13722   0.393E+00    0.240E+01
RMM:   5    -0.710129758429E+03    0.20975E+01   -0.18501E+00 13443   0.259E+00    0.175E+01
RMM:   6    -0.709146048187E+03    0.98371E+00   -0.10586E+00 13612   0.148E+00    0.111E+01
RMM:   7    -0.708564649460E+03    0.58140E+00   -0.87971E-01 13914   0.139E+00    0.529E+00
RMM:   8    -0.708533867637E+03    0.30782E-01   -0.52121E-01 13887   0.113E+00    0.369E+00
RMM:   9    -0.708448248206E+03    0.85619E-01   -0.15218E-01 13493   0.723E-01    0.251E+00
RMM:  10    -0.708435206652E+03    0.13042E-01   -0.58945E-02 14504   0.365E-01    0.142E+00
RMM:  11    -0.708430043321E+03    0.51633E-02   -0.27437E-02 13464   0.246E-01    0.128E+00
RMM:  12    -0.708427548235E+03    0.24951E-02   -0.81077E-03 13490   0.155E-01    0.996E-01
RMM:  13    -0.708422921986E+03    0.46262E-02   -0.56914E-03 13640   0.113E-01    0.402E-01
RMM:  14    -0.708423195207E+03   -0.27322E-03   -0.23013E-03 14346   0.615E-02    0.234E-01
RMM:  15    -0.708423673599E+03   -0.47839E-03   -0.46815E-04 10407   0.288E-02    0.197E-01
RMM:  16    -0.708424131388E+03   -0.45779E-03   -0.13676E-04  8338   0.197E-02    0.163E-01
RMM:  17    -0.708424915546E+03   -0.78416E-03   -0.29639E-04  9125   0.238E-02    0.110E-01
RMM:  18    -0.708425057927E+03   -0.14238E-03   -0.10779E-04  8288   0.163E-02    0.843E-02
RMM:  19    -0.708425022171E+03    0.35756E-04   -0.38484E-05  7679   0.109E-02
   2 F= -.70842502E+03 E0= -.70778448E+03  d E =0.268673E+02  mag=     0.0703
 trial-energy change:   26.867342  1 .order   48.820111  -18.782001  116.422222
 step:   0.1389(harm=  0.1389)  dis= 0.02521  next Energy=  -736.596923 (dE=-0.130E+01)
 bond charge predicted
       N       E                     dE             d eps       ncg     rms          rms(c)
DAV:   1    -0.737348946915E+03   -0.28924E+02   -0.26171E+03 13760   0.766E+01    0.364E+01
RMM:   2    -0.938773218585E+03   -0.20142E+03   -0.32086E+02 14188   0.199E+01    0.252E+02
RMM:   3    -0.828001750986E+03    0.11077E+03   -0.50983E+01 14777   0.101E+01    0.969E+01
RMM:   4    -0.772162932093E+03    0.55839E+02   -0.17413E+01 13497   0.586E+00    0.464E+01
RMM:   5    -0.756513452276E+03    0.15649E+02   -0.13868E+01 13877   0.579E+00    0.450E+01
RMM:   6    -0.744026430210E+03    0.12487E+02   -0.73807E+00 14207   0.391E+00    0.218E+01
RMM:   7    -0.739834397313E+03    0.41920E+01   -0.51593E+00 14272   0.267E+00    0.158E+01
RMM:   8    -0.739132771078E+03    0.70163E+00   -0.17904E+00 16355   0.171E+00    0.154E+01
RMM:   9    -0.737872765353E+03    0.12600E+01   -0.23814E+00 14868   0.157E+00    0.980E+00
RMM:  10    -0.737300985492E+03    0.57178E+00   -0.35732E-01 13660   0.961E-01    0.844E+00
RMM:  11    -0.737220939717E+03    0.80046E-01   -0.21247E-01 13607   0.788E-01    0.563E+00
RMM:  12    -0.737187100672E+03    0.33839E-01   -0.13367E-01 13737   0.560E-01    0.479E+00
RMM:  13    -0.737188964118E+03   -0.18634E-02   -0.33827E-02 13754   0.333E-01    0.558E+00
RMM:  14    -0.737172172043E+03    0.16792E-01   -0.17846E-02 15320   0.191E-01    0.431E+00
RMM:  15    -0.737168636111E+03    0.35359E-02   -0.45468E-03 13871   0.943E-02    0.430E+00
RMM:  16    -0.737167494568E+03    0.11415E-02   -0.27063E-03 13803   0.728E-02    0.400E+00
RMM:  17    -0.737166335563E+03    0.11590E-02   -0.13493E-03 13254   0.509E-02    0.379E+00
RMM:  18    -0.737164949757E+03    0.13858E-02   -0.49716E-04 11124   0.324E-02    0.361E+00
RMM:  19    -0.737164114087E+03    0.83567E-03   -0.20144E-04  8503   0.240E-02    0.343E+00
RMM:  20    -0.737163046896E+03    0.10672E-02   -0.15583E-04  8295   0.214E-02    0.325E+00
RMM:  21    -0.737162224190E+03    0.82271E-03   -0.12804E-04  8162   0.181E-02    0.309E+00
RMM:  22    -0.737161152458E+03    0.10717E-02   -0.24148E-04  8854   0.222E-02    0.282E+00
RMM:  23    -0.737160572498E+03    0.57996E-03   -0.16874E-04  8226   0.206E-02    0.258E+00
RMM:  24    -0.737160278262E+03    0.29424E-03   -0.12200E-04  8078   0.186E-02    0.241E+00
RMM:  25    -0.737159617810E+03    0.66045E-03   -0.51605E-04 11392   0.292E-02    0.196E+00
RMM:  26    -0.737159500666E+03    0.11714E-03   -0.15795E-04  8346   0.204E-02    0.175E+00
RMM:  27    -0.737159474532E+03    0.26134E-04   -0.14040E-04  8122   0.166E-02
   3 F= -.73715947E+03 E0= -.73653159E+03  d E =-.186711E+01  mag=     0.0239
 curvature:  -0.07 expect dE=-0.530E+00 dE for cont linesearch -0.343E+00
 ZBRENT: interpolating
 opt :   0.2047  next Energy=  -737.476203 (dE=-0.218E+01)
 bond charge predicted
       N       E                     dE             d eps       ncg     rms          rms(c)
DAV:   1    -0.737707526406E+03   -0.54803E+00   -0.15051E+01 13872   0.595E+00    0.204E+00
RMM:   2    -0.739040969735E+03   -0.13334E+01   -0.58014E-01 13442   0.121E+00    0.149E+01
RMM:   3    -0.737766887371E+03    0.12741E+01   -0.11769E-01 13440   0.700E-01    0.288E+00
RMM:   4    -0.737719052950E+03    0.47834E-01   -0.45912E-02 13473   0.374E-01    0.151E+00
RMM:   5    -0.737720294528E+03   -0.12416E-02   -0.17021E-02 13996   0.215E-01    0.155E+00
RMM:   6    -0.737724314704E+03   -0.40202E-02   -0.46204E-03 13379   0.122E-01    0.162E+00
RMM:   7    -0.737711335194E+03    0.12980E-01   -0.63006E-03 14054   0.112E-01    0.578E-01
RMM:   8    -0.737710154121E+03    0.11811E-02   -0.33445E-03 13384   0.942E-02    0.258E-01
RMM:   9    -0.737710239419E+03   -0.85298E-04   -0.11300E-03 13388   0.509E-02    0.171E-01
RMM:  10    -0.737710347939E+03   -0.10852E-03   -0.22791E-04  8986   0.218E-02    0.168E-01
RMM:  11    -0.737710674793E+03   -0.32685E-03   -0.22259E-04  8791   0.227E-02    0.206E-01
RMM:  12    -0.737710612135E+03    0.62658E-04   -0.12403E-04  8223   0.184E-02
   4 F= -.73771061E+03 E0= -.73708177E+03  d E =-.241825E+01  mag=     0.0181
 curvature:  -0.06 expect dE=-0.376E+00 dE for cont linesearch -0.207E+00
 ZBRENT: interpolating
 opt :   0.4646  next Energy=  -738.785324 (dE=-0.349E+01)
 bond charge predicted
       N       E                     dE             d eps       ncg     rms          rms(c)
DAV:   1    -0.737153084258E+03    0.55759E+00   -0.23830E+02 13552   0.238E+01    0.685E+00
RMM:   2    -0.753659051084E+03   -0.16506E+02   -0.78924E+00 13440   0.439E+00    0.524E+01
RMM:   3    -0.737976024428E+03    0.15683E+02   -0.14611E+00 13440   0.234E+00    0.997E+00
RMM:   4    -0.737484915252E+03    0.49111E+00   -0.61881E-01 13482   0.139E+00    0.775E+00
RMM:   5    -0.737396446628E+03    0.88469E-01   -0.15872E-01 14038   0.726E-01    0.646E+00
RMM:   6    -0.737350055529E+03    0.46391E-01   -0.50610E-02 15616   0.331E-01    0.550E+00
RMM:   7    -0.737232107853E+03    0.11795E+00   -0.10511E-01 15182   0.439E-01    0.277E+00
RMM:   8    -0.737196942994E+03    0.35165E-01   -0.45094E-02 13847   0.355E-01    0.111E+00
RMM:   9    -0.737198294482E+03   -0.13515E-02   -0.16354E-02 13725   0.216E-01    0.105E+00
RMM:  10    -0.737202086160E+03   -0.37917E-02   -0.40374E-03 13649   0.115E-01    0.123E+00
RMM:  11    -0.737198780310E+03    0.33058E-02   -0.26713E-03 13394   0.840E-02    0.103E+00
RMM:  12    -0.737194384962E+03    0.43953E-02   -0.15438E-03 12966   0.672E-02    0.578E-01
RMM:  13    -0.737192975554E+03    0.14094E-02   -0.11015E-03 12711   0.440E-02    0.341E-01
RMM:  14    -0.737192798685E+03    0.17687E-03   -0.33190E-04  9652   0.258E-02    0.268E-01
RMM:  15    -0.737192742742E+03    0.55944E-04   -0.86271E-05  8115   0.174E-02
   5 F= -.73719274E+03 E0= -.73656160E+03  d E =-.190038E+01  mag=     0.0138
 curvature:  -0.33 expect dE=-0.772E+01 dE for cont linesearch -0.294E+01
 ZBRENT: interpolating
 opt :   0.3026  next Energy=  -738.091557 (dE=-0.280E+01)
 bond charge predicted
       N       E                     dE             d eps       ncg     rms          rms(c)
DAV:   1    -0.738181405895E+03   -0.98861E+00   -0.93386E+01 13680   0.150E+01    0.577E+00
RMM:   2    -0.747282040132E+03   -0.91006E+01   -0.54935E+00 13462   0.344E+00    0.342E+01
RMM:   3    -0.739607921461E+03    0.76741E+01   -0.84496E-01 13455   0.192E+00    0.104E+01
RMM:   4    -0.738650876316E+03    0.95705E+00   -0.46122E-01 13462   0.108E+00    0.866E+00
RMM:   5    -0.738208923990E+03    0.44195E+00   -0.24712E-01 13813   0.758E-01    0.441E+00
RMM:   6    -0.738142071867E+03    0.66852E-01   -0.20266E-01 14750   0.551E-01    0.247E+00
RMM:   7    -0.738146200549E+03   -0.41287E-02   -0.42994E-02 14741   0.310E-01    0.223E+00
RMM:   8    -0.738154516663E+03   -0.83161E-02   -0.38440E-02 13860   0.264E-01    0.234E+00
RMM:   9    -0.738130698535E+03    0.23818E-01   -0.10010E-02 13493   0.162E-01    0.115E+00
RMM:  10    -0.738125632036E+03    0.50665E-02   -0.37729E-03 13393   0.109E-01    0.744E-01
RMM:  11    -0.738126175915E+03   -0.54388E-03   -0.17962E-03 13838   0.559E-02    0.748E-01
RMM:  12    -0.738125281695E+03    0.89422E-03   -0.58013E-04 11795   0.381E-02    0.467E-01
RMM:  13    -0.738124508994E+03    0.77270E-03   -0.32774E-04 10100   0.252E-02    0.315E-01
RMM:  14    -0.738124160689E+03    0.34831E-03   -0.28265E-04  9299   0.240E-02    0.179E-01
RMM:  15    -0.738124126212E+03    0.34477E-04   -0.13734E-04  8154   0.187E-02
   6 F= -.73812413E+03 E0= -.73749547E+03  d E =-.283176E+01  mag=     0.0131
 curvature:  -0.04 expect dE=-0.243E+00 dE for cont linesearch -0.286E-02
 trial: gam= 0.24004 g(F)=  0.562E+01 g(S)=  0.000E+00 ort = 0.112E+01 (trialstep = 0.861E+00)
 search vector abs. value=  0.724E+01
 bond charge predicted
       N       E                     dE             d eps       ncg     rms          rms(c)
DAV:   1    -0.735822876682E+03    0.23013E+01   -0.10979E+03 13456   0.511E+01    0.131E+01
RMM:   2    -0.740650382290E+03   -0.48275E+01   -0.36232E+01 13446   0.108E+01    0.200E+01
RMM:   3    -0.742247859514E+03   -0.15975E+01   -0.56263E+00 13624   0.461E+00    0.268E+01
RMM:   4    -0.738743206224E+03    0.35047E+01   -0.20596E+00 14876   0.238E+00    0.944E+00
RMM:   5    -0.738009278429E+03    0.73393E+00   -0.70331E-01 13517   0.138E+00    0.681E+00
RMM:   6    -0.738043555254E+03   -0.34277E-01   -0.42408E-01 14082   0.967E-01    0.674E+00
RMM:   7    -0.737884290911E+03    0.15926E+00   -0.21906E-01 13637   0.717E-01    0.432E+00
RMM:   8    -0.737840103629E+03    0.44187E-01   -0.13670E-01 13684   0.592E-01    0.317E+00
RMM:   9    -0.737780116631E+03    0.59987E-01   -0.60165E-02 14329   0.377E-01    0.112E+00
RMM:  10    -0.737775800550E+03    0.43161E-02   -0.22574E-02 15633   0.195E-01    0.703E-01
RMM:  11    -0.737775269260E+03    0.53129E-03   -0.36815E-03 13292   0.939E-02    0.698E-01
RMM:  12    -0.737773321475E+03    0.19478E-02   -0.48235E-03 13400   0.101E-01    0.470E-01
RMM:  13    -0.737772758387E+03    0.56309E-03   -0.33935E-03 13447   0.857E-02    0.216E-01
RMM:  14    -0.737772712120E+03    0.46266E-04   -0.70334E-04 12043   0.470E-02
   7 F= -.73777271E+03 E0= -.73714912E+03  d E =0.351414E+00  mag=     0.0103
 trial-energy change:    0.351414  1 .order   -0.446070   -5.070323    4.178183
 step:   0.3632(harm=  0.4718)  dis= 0.04014  next Energy=  -739.134104 (dE=-0.101E+01)
 bond charge predicted
       N       E                     dE             d eps       ncg     rms          rms(c)
DAV:   1    -0.738347285528E+03   -0.57453E+00   -0.36762E+02 13440   0.293E+01    0.659E+00
RMM:   2    -0.740393911552E+03   -0.20466E+01   -0.10699E+01 13526   0.557E+00    0.153E+01
RMM:   3    -0.740499219470E+03   -0.10531E+00   -0.16218E+00 13794   0.245E+00    0.159E+01
RMM:   4    -0.739384494466E+03    0.11147E+01   -0.57300E-01 13470   0.138E+00    0.961E+00
RMM:   5    -0.739006864647E+03    0.37763E+00   -0.27714E-01 13720   0.897E-01    0.574E+00
RMM:   6    -0.738881453682E+03    0.12541E+00   -0.22785E-01 14089   0.649E-01    0.311E+00
RMM:   7    -0.738846072384E+03    0.35381E-01   -0.56786E-02 13490   0.414E-01    0.245E+00
RMM:   8    -0.738866360720E+03   -0.20288E-01   -0.30842E-02 13513   0.289E-01    0.271E+00
RMM:   9    -0.738830177805E+03    0.36183E-01   -0.25028E-02 13919   0.239E-01    0.142E+00
RMM:  10    -0.738820636840E+03    0.95410E-02   -0.66533E-03 13744   0.138E-01    0.500E-01
RMM:  11    -0.738820158710E+03    0.47813E-03   -0.21609E-03 14017   0.692E-02    0.409E-01
RMM:  12    -0.738819716811E+03    0.44190E-03   -0.63418E-04 11960   0.399E-02    0.325E-01
RMM:  13    -0.738819535341E+03    0.18147E-03   -0.53547E-04 11234   0.335E-02    0.285E-01
RMM:  14    -0.738819329563E+03    0.20578E-03   -0.36946E-04 10000   0.280E-02    0.196E-01
RMM:  15    -0.738819174142E+03    0.15542E-03   -0.11574E-04  8041   0.192E-02    0.856E-02
RMM:  16    -0.738819164244E+03    0.98984E-05   -0.49488E-05  7852   0.126E-02
   8 F= -.73881916E+03 E0= -.73819371E+03  d E =-.695038E+00  mag=     0.0070
 curvature:  -0.27 expect dE=-0.234E+01 dE for cont linesearch -0.109E-01
 trial: gam= 1.61724 g(F)=  0.875E+01 g(S)=  0.000E+00 ort =-0.543E+00 (trialstep = 0.213E+00)
 search vector abs. value=  0.259E+02
 bond charge predicted
       N       E                     dE             d eps       ncg     rms          rms(c)
DAV:   1    -0.739081866359E+03   -0.26269E+00   -0.19940E+02 13472   0.215E+01    0.508E+00
RMM:   2    -0.740603490903E+03   -0.15216E+01   -0.49871E+00 13446   0.416E+00    0.132E+01
RMM:   3    -0.740506674359E+03    0.96817E-01   -0.10229E+00 13674   0.183E+00    0.127E+01
RMM:   4    -0.739484146478E+03    0.10225E+01   -0.31643E-01 13798   0.103E+00    0.329E+00
RMM:   5    -0.739434044127E+03    0.50102E-01   -0.12127E-01 14422   0.549E-01    0.197E+00
RMM:   6    -0.739423822749E+03    0.10221E-01   -0.45659E-02 13559   0.351E-01    0.161E+00
RMM:   7    -0.739417957813E+03    0.58649E-02   -0.28570E-02 13587   0.287E-01    0.138E+00
RMM:   8    -0.739415195169E+03    0.27626E-02   -0.20953E-02 13894   0.227E-01    0.865E-01
RMM:   9    -0.739411909778E+03    0.32854E-02   -0.77507E-03 14235   0.130E-01    0.427E-01
RMM:  10    -0.739410835372E+03    0.10744E-02   -0.19868E-03 14064   0.637E-02    0.190E-01
RMM:  11    -0.739410739591E+03    0.95781E-04   -0.49563E-04 11227   0.335E-02
   9 F= -.73941074E+03 E0= -.73878671E+03  d E =-.591575E+00  mag=     0.0054
 trial-energy change:   -0.591575  1 .order   -0.533296   -1.672477    0.605884
 step:   0.1619(harm=  0.1560)  dis= 0.03780  next Energy=  -739.482080 (dE=-0.663E+00)
 bond charge predicted
       N       E                     dE             d eps       ncg     rms          rms(c)
DAV:   1    -0.739507610073E+03   -0.96775E-01   -0.11260E+01 13664   0.507E+00    0.108E+00
RMM:   2    -0.739688807531E+03   -0.18120E+00   -0.25097E-01 13440   0.911E-01    0.510E+00
RMM:   3    -0.739541573925E+03    0.14723E+00   -0.50869E-02 13573   0.425E-01    0.172E+00
RMM:   4    -0.739526796790E+03    0.14777E-01   -0.18897E-02 13833   0.237E-01    0.787E-01
RMM:   5    -0.739524341278E+03    0.24555E-02   -0.51562E-03 13927   0.123E-01    0.467E-01
RMM:   6    -0.739524342186E+03   -0.90809E-06   -0.20437E-03 13067   0.776E-02    0.452E-01
RMM:   7    -0.739523627520E+03    0.71467E-03   -0.20338E-03 13346   0.693E-02    0.252E-01
RMM:   8    -0.739523527089E+03    0.10043E-03   -0.84866E-04 12540   0.501E-02    0.199E-01
RMM:   9    -0.739523295792E+03    0.23130E-03   -0.38417E-04 10322   0.322E-02    0.675E-02
RMM:  10    -0.739523312314E+03   -0.16522E-04   -0.81197E-05  7954   0.168E-02
  10 F= -.73952331E+03 E0= -.73889880E+03  d E =-.704148E+00  mag=     0.0043
 curvature:  -0.25 expect dE=-0.124E+01 dE for cont linesearch -0.247E-04
 trial: gam= 0.25662 g(F)=  0.487E+01 g(S)=  0.000E+00 ort =-0.502E-01 (trialstep = 0.202E+00)
 search vector abs. value=  0.655E+01
 bond charge predicted
       N       E                     dE             d eps       ncg     rms          rms(c)
DAV:   1    -0.739636081407E+03   -0.11279E+00   -0.40478E+01 13664   0.102E+01    0.192E+00
RMM:   2    -0.740328894485E+03   -0.69281E+00   -0.96613E-01 13440   0.182E+00    0.101E+01
RMM:   3    -0.739736151114E+03    0.59274E+00   -0.15562E-01 13535   0.800E-01    0.213E+00
RMM:   4    -0.739724593390E+03    0.11558E-01   -0.64209E-02 13788   0.447E-01    0.251E+00
RMM:   5    -0.739709706087E+03    0.14887E-01   -0.26239E-02 15110   0.257E-01    0.169E+00
RMM:   6    -0.739714086226E+03   -0.43801E-02   -0.82159E-03 13491   0.150E-01    0.173E+00
RMM:   7    -0.739701201793E+03    0.12884E-01   -0.76132E-03 13726   0.147E-01    0.933E-01
RMM:   8    -0.739699026549E+03    0.21752E-02   -0.57664E-03 13827   0.123E-01    0.511E-01
RMM:   9    -0.739698603127E+03    0.42342E-03   -0.14146E-03 13278   0.608E-02    0.454E-01
RMM:  10    -0.739698614403E+03   -0.11276E-04   -0.41411E-04 10609   0.331E-02
  11 F= -.73969861E+03 E0= -.73907551E+03  d E =-.175302E+00  mag=     0.0032
 trial-energy change:   -0.175302  1 .order   -0.530454   -0.983433   -0.077475
 step:   0.2197(harm=  0.2197)  dis= 0.02820  next Energy=  -740.057079 (dE=-0.534E+00)
 bond charge predicted
       N       E                     dE             d eps       ncg     rms          rms(c)
DAV:   1    -0.739707010878E+03   -0.84078E-02   -0.30085E-01 14272   0.886E-01    0.315E-01
RMM:   2    -0.739715991918E+03   -0.89810E-02   -0.89704E-03 13440   0.170E-01    0.114E+00
RMM:   3    -0.739712737321E+03    0.32546E-02   -0.23343E-03 13434   0.969E-02    0.928E-01
RMM:   4    -0.739708454134E+03    0.42832E-02   -0.64751E-04 12332   0.476E-02    0.426E-01
RMM:   5    -0.739707788523E+03    0.66561E-03   -0.27127E-04  9309   0.293E-02    0.301E-01
RMM:   6    -0.739707523740E+03    0.26478E-03   -0.14277E-04  8163   0.241E-02    0.153E-01
RMM:   7    -0.739707484098E+03    0.39642E-04   -0.80330E-05  8033   0.165E-02    0.112E-01
RMM:   8    -0.739707505902E+03   -0.21804E-04   -0.39137E-05  7633   0.117E-02
  12 F= -.73970751E+03 E0= -.73908372E+03  d E =-.184194E+00  mag=     0.0025
 curvature:  -0.15 expect dE=-0.469E+00 dE for cont linesearch -0.117E-01
 ZBRENT: increasing intervall
 opt :   0.2544  next Energy=  -739.743968 (dE=-0.221E+00)
 bond charge predicted
       N       E                     dE             d eps       ncg     rms          rms(c)
DAV:   1    -0.739738888252E+03   -0.31404E-01   -0.11827E+00 13952   0.175E+00    0.314E-01
RMM:   2    -0.739746381896E+03   -0.74936E-02   -0.26133E-02 13440   0.304E-01    0.993E-01
RMM:   3    -0.739741756955E+03    0.46249E-02   -0.43171E-03 13885   0.125E-01    0.378E-01
RMM:   4    -0.739742852046E+03   -0.10951E-02   -0.16341E-03 13383   0.726E-02    0.622E-01
RMM:   5    -0.739741638508E+03    0.12135E-02   -0.59983E-04 11885   0.437E-02    0.398E-01
RMM:   6    -0.739741409463E+03    0.22905E-03   -0.27383E-04  9290   0.285E-02    0.311E-01
RMM:   7    -0.739741001329E+03    0.40813E-03   -0.24101E-04  8987   0.276E-02    0.155E-01
RMM:   8    -0.739740933793E+03    0.67536E-04   -0.15330E-04  8296   0.222E-02
  13 F= -.73974093E+03 E0= -.73911681E+03  d E =-.217621E+00  mag=     0.0020
 curvature:  -0.46 expect dE=-0.155E+01 dE for cont linesearch -0.101E+00
 ZBRENT: increasing intervall
 opt :   0.3236  next Energy=  -739.856473 (dE=-0.333E+00)
 bond charge predicted
       N       E                     dE             d eps       ncg     rms          rms(c)
DAV:   1    -0.739773848903E+03   -0.32848E-01   -0.47285E+00 13728   0.350E+00    0.625E-01
RMM:   2    -0.739824149386E+03   -0.50300E-01   -0.10639E-01 13440   0.612E-01    0.271E+00
RMM:   3    -0.739784392578E+03    0.39757E-01   -0.16952E-02 13679   0.257E-01    0.665E-01
RMM:   4    -0.739787649567E+03   -0.32570E-02   -0.69838E-03 13823   0.146E-01    0.111E+00
RMM:   5    -0.739784258292E+03    0.33913E-02   -0.24569E-03 14024   0.861E-02    0.748E-01
RMM:   6    -0.739784012307E+03    0.24599E-03   -0.10650E-03 12779   0.546E-02    0.645E-01
RMM:   7    -0.739782382105E+03    0.16302E-02   -0.99340E-04 13044   0.515E-02    0.358E-01
RMM:   8    -0.739781972567E+03    0.40954E-03   -0.59978E-04 11992   0.411E-02    0.182E-01
RMM:   9    -0.739781989297E+03   -0.16730E-04   -0.13710E-04  8211   0.200E-02
  14 F= -.73978199E+03 E0= -.73915824E+03  d E =-.258677E+00  mag=     0.0015
 curvature:  -0.53 expect dE=-0.282E+01 dE for cont linesearch -0.517E-01
 trial: gam= 1.25758 g(F)=  0.530E+01 g(S)=  0.000E+00 ort =-0.798E+00 (trialstep = 0.109E+00)
 search vector abs. value=  0.137E+02
 bond charge predicted
       N       E                     dE             d eps       ncg     rms          rms(c)
DAV:   1    -0.739733925365E+03    0.48047E-01   -0.24662E+01 13440   0.814E+00    0.117E+00
RMM:   2    -0.739784206057E+03   -0.50281E-01   -0.47885E-01 13440   0.136E+00    0.226E+00
RMM:   3    -0.739785939604E+03   -0.17335E-02   -0.84298E-02 14560   0.538E-01    0.130E+00
RMM:   4    -0.739884091793E+03   -0.98152E-01   -0.22145E-02 13716   0.263E-01    0.424E+00
RMM:   5    -0.739790650024E+03    0.93442E-01   -0.70676E-03 13452   0.175E-01    0.149E+00
RMM:   6    -0.739786241212E+03    0.44088E-02   -0.52958E-03 13489   0.115E-01    0.124E+00
RMM:   7    -0.739784878078E+03    0.13631E-02   -0.37466E-03 13666   0.993E-02    0.868E-01
RMM:   8    -0.739784689024E+03    0.18905E-03   -0.20606E-03 13252   0.766E-02    0.789E-01
RMM:   9    -0.739784090012E+03    0.59901E-03   -0.63622E-04 11798   0.464E-02    0.581E-01
RMM:  10    -0.739784005639E+03    0.84373E-04   -0.19718E-04  8926   0.204E-02
  15 F= -.73978401E+03 E0= -.73916100E+03  d E =-.201634E-02  mag=     0.0010
 trial-energy change:   -0.002016  1 .order   -0.062483   -0.467338    0.342372
 step:   0.0506(harm=  0.0628)  dis= 0.00975  next Energy=  -739.884698 (dE=-0.103E+00)
 bond charge predicted
       N       E                     dE             d eps       ncg     rms          rms(c)
DAV:   1    -0.739899331477E+03   -0.11524E+00   -0.69975E+00 13568   0.434E+00    0.671E-01
RMM:   2    -0.739956381354E+03   -0.57050E-01   -0.13707E-01 13440   0.723E-01    0.297E+00
RMM:   3    -0.739915307630E+03    0.41074E-01   -0.23370E-02 13518   0.308E-01    0.828E-01
RMM:   4    -0.739916142258E+03   -0.83463E-03   -0.72591E-03 14252   0.158E-01    0.933E-01
RMM:   5    -0.739913792706E+03    0.23496E-02   -0.19363E-03 13545   0.843E-02    0.739E-01
RMM:   6    -0.739912866577E+03    0.92613E-03   -0.12722E-03 13118   0.599E-02    0.580E-01
RMM:   7    -0.739911953931E+03    0.91265E-03   -0.14271E-03 13516   0.605E-02    0.300E-01
RMM:   8    -0.739911637351E+03    0.31658E-03   -0.46113E-04 11566   0.400E-02    0.137E-01
RMM:   9    -0.739911630027E+03    0.73244E-05   -0.13776E-04  8294   0.202E-02
  16 F= -.73991163E+03 E0= -.73928753E+03  d E =-.129641E+00  mag=     0.0007
 curvature:  -0.09 expect dE=-0.571E+00 dE for cont linesearch -0.689E-04
 trial: gam= 0.50397 g(F)=  0.616E+01 g(S)=  0.000E+00 ort = 0.101E+00 (trialstep = 0.971E-01)
 search vector abs. value=  0.973E+01
 bond charge predicted
       N       E                     dE             d eps       ncg     rms          rms(c)
DAV:   1    -0.740002510845E+03   -0.90873E-01   -0.17872E+01 13472   0.694E+00    0.898E-01
RMM:   2    -0.740043444096E+03   -0.40933E-01   -0.36471E-01 13440   0.113E+00    0.163E+00
RMM:   3    -0.740046519160E+03   -0.30751E-02   -0.49701E-02 13748   0.454E-01    0.138E+00
RMM:   4    -0.740045351174E+03    0.11680E-02   -0.13688E-02 14679   0.210E-01    0.123E+00
RMM:   5    -0.740039173728E+03    0.61774E-02   -0.40781E-03 13476   0.119E-01    0.924E-01
RMM:   6    -0.740037278177E+03    0.18956E-02   -0.17083E-03 13165   0.770E-02    0.536E-01
RMM:   7    -0.740037403217E+03   -0.12504E-03   -0.27924E-03 14021   0.765E-02    0.471E-01
RMM:   8    -0.740036393977E+03    0.10092E-02   -0.13498E-03 12903   0.663E-02    0.213E-01
RMM:   9    -0.740036366204E+03    0.27772E-04   -0.41959E-04 10793   0.328E-02
  17 F= -.74003637E+03 E0= -.73941362E+03  d E =-.124736E+00  mag=     0.0005
 trial-energy change:   -0.124736  1 .order   -0.304558   -0.602968   -0.006147
 step:   0.0981(harm=  0.0981)  dis= 0.01212  next Energy=  -740.216219 (dE=-0.305E+00)
 bond charge predicted
       N       E                     dE             d eps       ncg     rms          rms(c)
DAV:   1    -0.740036386963E+03    0.70140E-05   -0.20646E-03 15008   0.793E-02    0.153E-01
RMM:   2    -0.740037121783E+03   -0.73482E-03   -0.50483E-04 11740   0.385E-02    0.330E-01
RMM:   3    -0.740037354338E+03   -0.23255E-03   -0.29951E-04  9564   0.352E-02    0.395E-01
RMM:   4    -0.740036428465E+03    0.92587E-03   -0.12289E-04  7313   0.201E-02    0.188E-01
RMM:   5    -0.740036378121E+03    0.50344E-04   -0.60422E-05  7255   0.147E-02    0.112E-01
RMM:   6    -0.740036312609E+03    0.65512E-04   -0.31724E-05  7202   0.116E-02    0.474E-02
RMM:   7    -0.740036308341E+03    0.42678E-05   -0.10602E-05  6372   0.615E-03    0.265E-02
RMM:   8    -0.740036309609E+03   -0.12683E-05   -0.36092E-06  5199   0.400E-03
  18 F= -.74003631E+03 E0= -.73941376E+03  d E =-.124680E+00  mag=     0.0004
 curvature:  -0.08 expect dE=-0.192E+00 dE for cont linesearch -0.434E-04
 trial: gam= 0.26179 g(F)=  0.250E+01 g(S)=  0.000E+00 ort = 0.741E-01 (trialstep = 0.973E-01)
 search vector abs. value=  0.320E+01
 bond charge predicted
       N       E                     dE             d eps       ncg     rms          rms(c)
DAV:   1    -0.740223473089E+03   -0.18716E+00   -0.58650E+00 13472   0.394E+00    0.627E-01
RMM:   2    -0.740253476257E+03   -0.30003E-01   -0.12584E-01 13440   0.685E-01    0.187E+00
RMM:   3    -0.740237999146E+03    0.15477E-01   -0.21227E-02 13960   0.283E-01    0.751E-01
RMM:   4    -0.740237804600E+03    0.19455E-03   -0.60956E-03 13942   0.146E-01    0.783E-01
RMM:   5    -0.740235951816E+03    0.18528E-02   -0.17815E-03 13657   0.802E-02    0.556E-01
RMM:   6    -0.740235764429E+03    0.18739E-03   -0.99968E-04 12720   0.551E-02    0.447E-01
RMM:   7    -0.740234852652E+03    0.91178E-03   -0.10872E-03 13179   0.543E-02    0.194E-01
RMM:   8    -0.740234720533E+03    0.13212E-03   -0.43695E-04 11184   0.392E-02    0.122E-01
RMM:   9    -0.740234663117E+03    0.57416E-04   -0.13278E-04  8200   0.211E-02
  19 F= -.74023466E+03 E0= -.73961270E+03  d E =-.198354E+00  mag=     0.0003
 trial-energy change:   -0.198354  1 .order   -0.185303   -0.245074   -0.125532
 step:   0.1485(harm=  0.1996)  dis= 0.01177  next Energy=  -740.269526 (dE=-0.233E+00)
 bond charge predicted
       N       E                     dE             d eps       ncg     rms          rms(c)
DAV:   1    -0.740274389954E+03   -0.39669E-01   -0.16207E+00 13744   0.207E+00    0.336E-01
RMM:   2    -0.740279832762E+03   -0.54428E-02   -0.35050E-02 13440   0.362E-01    0.714E-01
RMM:   3    -0.740279172393E+03    0.66037E-03   -0.60682E-03 14214   0.149E-01    0.502E-01
RMM:   4    -0.740278978100E+03    0.19429E-03   -0.16322E-03 13664   0.763E-02    0.508E-01
RMM:   5    -0.740278144935E+03    0.83317E-03   -0.54294E-04 12226   0.447E-02    0.335E-01
RMM:   6    -0.740277992199E+03    0.15274E-03   -0.29599E-04  9770   0.310E-02    0.248E-01
RMM:   7    -0.740277708027E+03    0.28417E-03   -0.27002E-04  9485   0.304E-02    0.107E-01
RMM:   8    -0.740277687703E+03    0.20324E-04   -0.13682E-04  8166   0.229E-02
  20 F= -.74027769E+03 E0= -.73965630E+03  d E =-.241378E+00  mag=     0.0002
 curvature:  -0.10 expect dE=-0.117E+00 dE for cont linesearch -0.459E-02
 ZBRENT: extrapolating
 opt :   0.1709  next Energy=  -740.282083 (dE=-0.246E+00)
 bond charge predicted
       N       E                     dE             d eps       ncg     rms          rms(c)
DAV:   1    -0.740281689788E+03   -0.39818E-02   -0.30947E-01 14048   0.905E-01    0.158E-01
RMM:   2    -0.740283058976E+03   -0.13692E-02   -0.67956E-03 13440   0.159E-01    0.382E-01
RMM:   3    -0.740282545387E+03    0.51359E-03   -0.11787E-03 13762   0.659E-02    0.200E-01
RMM:   4    -0.740282519449E+03    0.25938E-04   -0.35071E-04  9957   0.345E-02    0.199E-01
RMM:   5    -0.740282393742E+03    0.12571E-03   -0.10836E-04  8020   0.225E-02    0.137E-01
RMM:   6    -0.740282367525E+03    0.26216E-04   -0.59652E-05  7856   0.147E-02    0.917E-02
RMM:   7    -0.740282332406E+03    0.35120E-04   -0.48520E-05  7780   0.126E-02    0.322E-02
RMM:   8    -0.740282334070E+03   -0.16640E-05   -0.15250E-05  7147   0.838E-03
  21 F= -.74028233E+03 E0= -.73966100E+03  d E =-.246024E+00  mag=     0.0002
 curvature:  -0.09 expect dE=-0.134E+00 dE for cont linesearch -0.484E-04
 trial: gam= 0.60567 g(F)=  0.147E+01 g(S)=  0.000E+00 ort = 0.412E-01 (trialstep = 0.112E+00)
 search vector abs. value=  0.270E+01
 bond charge predicted
       N       E                     dE             d eps       ncg     rms          rms(c)
DAV:   1    -0.740409783864E+03   -0.12745E+00   -0.53647E+00 13440   0.372E+00    0.548E-01
RMM:   2    -0.740427868440E+03   -0.18085E-01   -0.11237E-01 13440   0.646E-01    0.119E+00
RMM:   3    -0.740428039235E+03   -0.17080E-03   -0.19397E-02 14025   0.265E-01    0.117E+00
RMM:   4    -0.740421226316E+03    0.68129E-02   -0.51659E-03 14482   0.130E-01    0.377E-01
RMM:   5    -0.740421297165E+03   -0.70849E-04   -0.14768E-03 13261   0.722E-02    0.423E-01
RMM:   6    -0.740420632965E+03    0.66420E-03   -0.90373E-04 12692   0.548E-02    0.290E-01
RMM:   7    -0.740420632501E+03    0.46401E-06   -0.95746E-04 13032   0.487E-02    0.221E-01
RMM:   8    -0.740420347875E+03    0.28463E-03   -0.47525E-04 11288   0.350E-02    0.108E-01
RMM:   9    -0.740420325509E+03    0.22367E-04   -0.12280E-04  8062   0.197E-02
  22 F= -.74042033E+03 E0= -.73980032E+03  d E =-.137991E+00  mag=     0.0001
 trial-energy change:   -0.137991  1 .order   -0.136472   -0.167781   -0.105163
 step:   0.2536(harm=  0.3002)  dis= 0.01715  next Energy=  -740.489806 (dE=-0.207E+00)
 bond charge predicted
       N       E                     dE             d eps       ncg     rms          rms(c)
DAV:   1    -0.740475756450E+03   -0.55409E-01   -0.85511E+00 13440   0.470E+00    0.702E-01
RMM:   2    -0.740505732306E+03   -0.29976E-01   -0.18129E-01 13440   0.820E-01    0.154E+00
RMM:   3    -0.740504252041E+03    0.14803E-02   -0.31418E-02 14100   0.336E-01    0.140E+00
RMM:   4    -0.740494957195E+03    0.92948E-02   -0.82014E-03 14219   0.166E-01    0.568E-01
RMM:   5    -0.740494282466E+03    0.67473E-03   -0.24543E-03 13440   0.942E-02    0.498E-01
RMM:   6    -0.740493545473E+03    0.73699E-03   -0.14516E-03 12906   0.694E-02    0.371E-01
RMM:   7    -0.740493432298E+03    0.11318E-03   -0.14592E-03 13211   0.608E-02    0.276E-01
RMM:   8    -0.740492999517E+03    0.43278E-03   -0.74130E-04 12429   0.438E-02    0.131E-01
RMM:   9    -0.740492964264E+03    0.35254E-04   -0.20776E-04  8604   0.233E-02
  23 F= -.74049296E+03 E0= -.73987461E+03  d E =-.210630E+00  mag=     0.0001
 curvature:  -0.25 expect dE=-0.132E+01 dE for cont linesearch -0.469E-03
 trial: gam= 3.13500 g(F)=  0.519E+01 g(S)=  0.000E+00 ort =-0.706E-01 (trialstep = 0.121E-01)
 search vector abs. value=  0.313E+02
 bond charge predicted
       N       E                     dE             d eps       ncg     rms          rms(c)
DAV:   1    -0.740544488826E+03   -0.51489E-01   -0.65806E-01 14016   0.129E+00    0.217E-01
RMM:   2    -0.740546283667E+03   -0.17948E-02   -0.14508E-02 13440   0.228E-01    0.338E-01
RMM:   3    -0.740546888696E+03   -0.60503E-03   -0.24647E-03 13976   0.940E-02    0.427E-01
RMM:   4    -0.740546079724E+03    0.80897E-03   -0.66831E-04 12539   0.462E-02    0.204E-01
RMM:   5    -0.740546006648E+03    0.73076E-04   -0.23446E-04  8662   0.289E-02    0.175E-01
RMM:   6    -0.740545893328E+03    0.11332E-03   -0.12382E-04  8018   0.230E-02    0.106E-01
RMM:   7    -0.740545891676E+03    0.16528E-05   -0.85730E-05  7961   0.170E-02    0.724E-02
RMM:   8    -0.740545875074E+03    0.16602E-04   -0.55929E-05  7719   0.135E-02
  24 F= -.74054588E+03 E0= -.73992784E+03  d E =-.529108E-01  mag=     0.0001
 trial-energy change:   -0.052911  1 .order   -0.052268   -0.060227   -0.044309
 step:   0.0325(harm=  0.0458)  dis= 0.00723  next Energy=  -740.586319 (dE=-0.934E-01)
 bond charge predicted
       N       E                     dE             d eps       ncg     rms          rms(c)
DAV:   1    -0.740579667829E+03   -0.33776E-01   -0.18691E+00 13472   0.217E+00    0.355E-01
RMM:   2    -0.740585504739E+03   -0.58369E-02   -0.40271E-02 13440   0.378E-01    0.679E-01
RMM:   3    -0.740586233205E+03   -0.72847E-03   -0.66915E-03 13862   0.156E-01    0.712E-01
RMM:   4    -0.740583912389E+03    0.23208E-02   -0.18871E-03 14243   0.775E-02    0.331E-01
RMM:   5    -0.740583565366E+03    0.34702E-03   -0.62935E-04 12452   0.462E-02    0.256E-01
RMM:   6    -0.740583352253E+03    0.21311E-03   -0.31097E-04  9950   0.323E-02    0.171E-01
RMM:   7    -0.740583345612E+03    0.66412E-05   -0.28145E-04  9267   0.295E-02    0.126E-01
RMM:   8    -0.740583268971E+03    0.76641E-04   -0.17440E-04  8420   0.220E-02
  25 F= -.74058327E+03 E0= -.73996571E+03  d E =-.903047E-01  mag=     0.0001
 curvature:  -0.12 expect dE=-0.672E+00 dE for cont linesearch -0.527E-03
 trial: gam= 0.28037 g(F)=  0.552E+01 g(S)=  0.000E+00 ort =-0.368E+00 (trialstep = 0.162E-01)
 search vector abs. value=  0.777E+01
 bond charge predicted
       N       E                     dE             d eps       ncg     rms          rms(c)
DAV:   1    -0.740656707831E+03   -0.73362E-01   -0.37583E-01 13792   0.993E-01    0.136E-01
RMM:   2    -0.740657600029E+03   -0.89220E-03   -0.74925E-03 13440   0.165E-01    0.266E-01
RMM:   3    -0.740657580824E+03    0.19204E-04   -0.11695E-03 13558   0.649E-02    0.169E-01
RMM:   4    -0.740657726798E+03   -0.14597E-03   -0.27562E-04  8707   0.307E-02    0.221E-01
RMM:   5    -0.740657538352E+03    0.18845E-03   -0.11605E-04  7932   0.232E-02    0.157E-01
RMM:   6    -0.740657504258E+03    0.34094E-04   -0.62494E-05  7784   0.153E-02    0.990E-02
RMM:   7    -0.740657499395E+03    0.48629E-05   -0.60240E-05  7738   0.136E-02    0.620E-02
RMM:   8    -0.740657489486E+03    0.99088E-05   -0.39321E-05  7382   0.117E-02
  26 F= -.74065749E+03 E0= -.74004007E+03  d E =-.742205E-01  mag=     0.0000
 trial-energy change:   -0.074221  1 .order   -0.073303   -0.087752   -0.058854
 step:   0.0388(harm=  0.0492)  dis= 0.00680  next Energy=  -740.701131 (dE=-0.118E+00)
 bond charge predicted
       N       E                     dE             d eps       ncg     rms          rms(c)
DAV:   1    -0.740706243852E+03   -0.48744E-01   -0.73567E-01 13600   0.139E+00    0.192E-01
RMM:   2    -0.740707923719E+03   -0.16799E-02   -0.15009E-02 13440   0.231E-01    0.348E-01
RMM:   3    -0.740707953982E+03   -0.30263E-04   -0.22803E-03 14034   0.909E-02    0.217E-01
RMM:   4    -0.740708524315E+03   -0.57033E-03   -0.54973E-04 11870   0.426E-02    0.356E-01
RMM:   5    -0.740707915721E+03    0.60859E-03   -0.22036E-04  8613   0.284E-02    0.216E-01
RMM:   6    -0.740707829626E+03    0.86095E-04   -0.13100E-04  7972   0.232E-02    0.140E-01
RMM:   7    -0.740707804919E+03    0.24707E-04   -0.10744E-04  7896   0.178E-02    0.795E-02
RMM:   8    -0.740707788213E+03    0.16707E-04   -0.75472E-05  7723   0.157E-02
  27 F= -.74070779E+03 E0= -.74009027E+03  d E =-.124519E+00  mag=     0.0000
 curvature:  -0.03 expect dE=-0.868E-01 dE for cont linesearch -0.309E-02
 ZBRENT: extrapolating
 opt :   0.0459  next Energy=  -740.710880 (dE=-0.128E+00)
 bond charge predicted
       N       E                     dE             d eps       ncg     rms          rms(c)
DAV:   1    -0.740711137959E+03   -0.33330E-02   -0.72478E-02 14240   0.437E-01    0.763E-02
RMM:   2    -0.740711358935E+03   -0.22098E-03   -0.15435E-03 13292   0.741E-02    0.132E-01
RMM:   3    -0.740711396524E+03   -0.37589E-04   -0.26128E-04  8578   0.304E-02    0.135E-01
RMM:   4    -0.740711306934E+03    0.89590E-04   -0.66374E-05  7642   0.184E-02    0.504E-02
RMM:   5    -0.740711322278E+03   -0.15343E-04   -0.24813E-05  7392   0.883E-03    0.575E-02
RMM:   6    -0.740711313199E+03    0.90786E-05   -0.13710E-05  6741   0.748E-03    0.377E-02
RMM:   7    -0.740711311488E+03    0.17115E-05   -0.94479E-06  6432   0.577E-03    0.213E-02
RMM:   8    -0.740711311931E+03   -0.44280E-06   -0.28342E-06  5062   0.402E-03
  28 F= -.74071131E+03 E0= -.74009374E+03  d E =-.128043E+00  mag=     0.0000
 curvature:  -0.03 expect dE=-0.102E+00 dE for cont linesearch -0.979E-04
 trial: gam= 0.46253 g(F)=  0.322E+01 g(S)=  0.000E+00 ort = 0.155E+00 (trialstep = 0.221E-01)
 search vector abs. value=  0.502E+01
 bond charge predicted
       N       E                     dE             d eps       ncg     rms          rms(c)
DAV:   1    -0.740772178203E+03   -0.60867E-01   -0.48268E-01 13760   0.115E+00    0.198E-01
RMM:   2    -0.740776171523E+03   -0.39933E-02   -0.11816E-02 13440   0.205E-01    0.699E-01
RMM:   3    -0.740773647111E+03    0.25244E-02   -0.17010E-03 13478   0.832E-02    0.337E-01
RMM:   4    -0.740773178734E+03    0.46838E-03   -0.51522E-04 11740   0.439E-02    0.175E-01
RMM:   5    -0.740773143411E+03    0.35323E-04   -0.19774E-04  8397   0.253E-02    0.152E-01
RMM:   6    -0.740773119340E+03    0.24070E-04   -0.98527E-05  7846   0.203E-02    0.118E-01
RMM:   7    -0.740773090324E+03    0.29017E-04   -0.11875E-04  7846   0.176E-02    0.834E-02
RMM:   8    -0.740773058632E+03    0.31691E-04   -0.52123E-05  7695   0.157E-02
  29 F= -.74077306E+03 E0= -.74015545E+03  d E =-.617467E-01  mag=     0.0000
 trial-energy change:   -0.061747  1 .order   -0.061617   -0.072848   -0.050385
 step:   0.0718(harm=  0.0718)  dis= 0.00669  next Energy=  -740.829434 (dE=-0.118E+00)
 bond charge predicted
       N       E                     dE             d eps       ncg     rms          rms(c)
DAV:   1    -0.740822755054E+03   -0.49665E-01   -0.24233E+00 13440   0.257E+00    0.448E-01
RMM:   2    -0.740845853642E+03   -0.23099E-01   -0.59183E-02 13440   0.459E-01    0.170E+00
RMM:   3    -0.740830130307E+03    0.15723E-01   -0.85587E-03 13513   0.187E-01    0.733E-01
RMM:   4    -0.740827717381E+03    0.24129E-02   -0.26522E-03 13673   0.989E-02    0.366E-01
RMM:   5    -0.740827646177E+03    0.71204E-04   -0.98836E-04 13114   0.541E-02    0.333E-01
RMM:   6    -0.740827558408E+03    0.87769E-04   -0.44461E-04 11379   0.380E-02    0.267E-01
RMM:   7    -0.740827364937E+03    0.19347E-03   -0.59888E-04 11907   0.379E-02    0.174E-01
RMM:   8    -0.740827189630E+03    0.17531E-03   -0.20522E-04  8504   0.277E-02    0.793E-02
RMM:   9    -0.740827176908E+03    0.12722E-04   -0.59570E-05  7968   0.154E-02
  30 F= -.74082718E+03 E0= -.74020933E+03  d E =-.115865E+00  mag=     0.0000
 curvature:  -0.05 expect dE=-0.555E-01 dE for cont linesearch -0.314E-05
 trial: gam= 0.42614 g(F)=  0.101E+01 g(S)=  0.000E+00 ort =-0.170E-01 (trialstep = 0.321E-01)
 search vector abs. value=  0.191E+01
 bond charge predicted
       N       E                     dE             d eps       ncg     rms          rms(c)
DAV:   1    -0.740852842181E+03   -0.25653E-01   -0.32619E-01 14048   0.931E-01    0.127E-01
RMM:   2    -0.740853634404E+03   -0.79222E-03   -0.65931E-03 13440   0.160E-01    0.244E-01
RMM:   3    -0.740853611320E+03    0.23084E-04   -0.11449E-03 13666   0.629E-02    0.158E-01
RMM:   4    -0.740853709408E+03   -0.98088E-04   -0.25258E-04  8620   0.296E-02    0.189E-01
RMM:   5    -0.740853637239E+03    0.72169E-04   -0.10228E-04  7918   0.220E-02    0.156E-01
RMM:   6    -0.740853586277E+03    0.50962E-04   -0.64418E-05  7820   0.155E-02    0.109E-01
RMM:   7    -0.740853577626E+03    0.86506E-05   -0.65154E-05  7776   0.144E-02    0.538E-02
RMM:   8    -0.740853573380E+03    0.42465E-05   -0.27999E-05  7462   0.107E-02
  31 F= -.74085357E+03 E0= -.74023562E+03  d E =-.263965E-01  mag=     0.0000
 trial-energy change:   -0.026396  1 .order   -0.026484   -0.032210   -0.020757
 step:   0.0902(harm=  0.0902)  dis= 0.00497  next Energy=  -740.872469 (dE=-0.453E-01)
 bond charge predicted
       N       E                     dE             d eps       ncg     rms          rms(c)
DAV:   1    -0.740867661608E+03   -0.14084E-01   -0.10705E+00 13728   0.169E+00    0.233E-01
RMM:   2    -0.740870101769E+03   -0.24402E-02   -0.21519E-02 13440   0.288E-01    0.419E-01
RMM:   3    -0.740870131379E+03   -0.29610E-04   -0.37236E-03 14415   0.113E-01    0.270E-01
RMM:   4    -0.740870810897E+03   -0.67952E-03   -0.85974E-04 13416   0.526E-02    0.402E-01
RMM:   5    -0.740870209125E+03    0.60177E-03   -0.30567E-04  9954   0.323E-02    0.276E-01
RMM:   6    -0.740870039947E+03    0.16918E-03   -0.21607E-04  8621   0.295E-02    0.198E-01
RMM:   7    -0.740869973811E+03    0.66136E-04   -0.20372E-04  8540   0.246E-02    0.962E-02
RMM:   8    -0.740869949220E+03    0.24591E-04   -0.81799E-05  7904   0.180E-02
  32 F= -.74086995E+03 E0= -.74025172E+03  d E =-.427723E-01  mag=     0.0000
 curvature:  -0.09 expect dE=-0.118E+00 dE for cont linesearch -0.195E-03
 trial: gam= 1.44439 g(F)=  0.137E+01 g(S)=  0.000E+00 ort =-0.659E-01 (trialstep = 0.162E-01)
 search vector abs. value=  0.517E+01
 bond charge predicted
       N       E                     dE             d eps       ncg     rms          rms(c)
DAV:   1    -0.740888019933E+03   -0.18046E-01   -0.19051E-01 13920   0.714E-01    0.120E-01
RMM:   2    -0.740888718809E+03   -0.69888E-03   -0.39435E-03 13440   0.125E-01    0.268E-01
RMM:   3    -0.740888537257E+03    0.18155E-03   -0.75438E-04 13199   0.507E-02    0.153E-01
RMM:   4    -0.740888494126E+03    0.43131E-04   -0.15209E-04  8068   0.243E-02    0.109E-01
RMM:   5    -0.740888510203E+03   -0.16077E-04   -0.73447E-05  7842   0.190E-02    0.115E-01
RMM:   6    -0.740888510285E+03   -0.82488E-07   -0.53170E-05  7766   0.134E-02    0.934E-02
RMM:   7    -0.740888492545E+03    0.17741E-04   -0.38067E-05  7668   0.124E-02    0.567E-02
RMM:   8    -0.740888479048E+03    0.13497E-04   -0.13285E-05  6872   0.747E-03
  33 F= -.74088848E+03 E0= -.74027016E+03  d E =-.185298E-01  mag=     0.0000
 ZBRENT: can't locate minimum, use default step
 trial-energy change:   -0.018530  1 .order   -0.018335   -0.020648   -0.016022
 step:   0.0646(harm=  0.0721)  dis= 0.00618  next Energy=  -740.916023 (dE=-0.461E-01)
 bond charge predicted
       N       E                     dE             d eps       ncg     rms          rms(c)
DAV:   1    -0.740901686315E+03   -0.13194E-01   -0.17186E+00 13472   0.214E+00    0.284E-01
RMM:   2    -0.740905420763E+03   -0.37344E-02   -0.34595E-02 13440   0.371E-01    0.499E-01
RMM:   3    -0.740905774558E+03   -0.35380E-03   -0.65356E-03 14827   0.147E-01    0.343E-01
RMM:   4    -0.740906670259E+03   -0.89570E-03   -0.12974E-03 14330   0.635E-02    0.487E-01
RMM:   5    -0.740905613417E+03    0.10568E-02   -0.43982E-04 11958   0.404E-02    0.296E-01
RMM:   6    -0.740905530582E+03    0.82835E-04   -0.35091E-04 10583   0.343E-02    0.209E-01
RMM:   7    -0.740905514680E+03    0.15902E-04   -0.33211E-04 10288   0.308E-02    0.129E-01
RMM:   8    -0.740905477836E+03    0.36844E-04   -0.11725E-04  7986   0.207E-02
  34 F= -.74090548E+03 E0= -.74028704E+03  d E =-.355286E-01  mag=     0.0000
 curvature:  -0.14 expect dE=-0.173E+00 dE for cont linesearch -0.288E-02
 ZBRENT: interpolating
 opt :   0.0527  next Energy=  -740.907394 (dE=-0.374E-01)
 bond charge predicted
       N       E                     dE             d eps       ncg     rms          rms(c)
DAV:   1    -0.740907283902E+03   -0.17692E-02   -0.10383E-01 14112   0.526E-01    0.998E-02
RMM:   2    -0.740907590980E+03   -0.30708E-03   -0.20825E-03 13440   0.919E-02    0.196E-01
RMM:   3    -0.740907665036E+03   -0.74056E-04   -0.36951E-04 10560   0.401E-02    0.194E-01
RMM:   4    -0.740907423731E+03    0.24130E-03   -0.10252E-04  7408   0.207E-02    0.638E-02
RMM:   5    -0.740907435987E+03   -0.12255E-04   -0.34518E-05  7224   0.119E-02    0.585E-02
RMM:   6    -0.740907430363E+03    0.56237E-05   -0.31276E-05  7164   0.935E-03    0.560E-02
RMM:   7    -0.740907453159E+03   -0.22796E-04   -0.23951E-05  7064   0.949E-03    0.738E-02
RMM:   8    -0.740907429100E+03    0.24058E-04   -0.10995E-05  6444   0.669E-03
  35 F= -.74090743E+03 E0= -.74028894E+03  d E =-.374799E-01  mag=     0.0000
 curvature:  -0.10 expect dE=-0.942E-01 dE for cont linesearch -0.262E-10
 trial: gam= 0.24923 g(F)=  0.989E+00 g(S)=  0.000E+00 ort = 0.377E-04 (trialstep = 0.235E-01)
 search vector abs. value=  0.131E+01
 bond charge predicted
       N       E                     dE             d eps       ncg     rms          rms(c)
DAV:   1    -0.740927228478E+03   -0.19775E-01   -0.12846E-01 13952   0.566E-01    0.951E-02
RMM:   2    -0.740928161692E+03   -0.93321E-03   -0.29458E-03 13440   0.101E-01    0.368E-01
RMM:   3    -0.740927510139E+03    0.65155E-03   -0.44966E-04 10832   0.408E-02    0.116E-01
RMM:   4    -0.740927559783E+03   -0.49644E-04   -0.11884E-04  7864   0.219E-02    0.142E-01
RMM:   5    -0.740927553925E+03    0.58579E-05   -0.52832E-05  7578   0.150E-02    0.134E-01
RMM:   6    -0.740927537794E+03    0.16131E-04   -0.33988E-05  7424   0.108E-02    0.997E-02
RMM:   7    -0.740927502574E+03    0.35220E-04   -0.33050E-05  7324   0.106E-02    0.437E-02
RMM:   8    -0.740927500295E+03    0.22786E-05   -0.19238E-05  6646   0.812E-03
  36 F= -.74092750E+03 E0= -.74030913E+03  d E =-.200712E-01  mag=     0.0000
 trial-energy change:   -0.020071  1 .order   -0.020138   -0.023204   -0.017072
 step:   0.0888(harm=  0.0888)  dis= 0.00357  next Energy=  -740.951334 (dE=-0.439E-01)
 bond charge predicted
       N       E                     dE             d eps       ncg     rms          rms(c)
DAV:   1    -0.740948822994E+03   -0.21320E-01   -0.99478E-01 13728   0.158E+00    0.263E-01
RMM:   2    -0.740955769930E+03   -0.69469E-02   -0.22733E-02 13440   0.283E-01    0.998E-01
RMM:   3    -0.740951178055E+03    0.45919E-02   -0.35504E-03 13954   0.113E-01    0.326E-01
RMM:   4    -0.740951644521E+03   -0.46647E-03   -0.98815E-04 13466   0.549E-02    0.399E-01
RMM:   5    -0.740951300031E+03    0.34449E-03   -0.38471E-04 10965   0.352E-02    0.349E-01
RMM:   6    -0.740951165436E+03    0.13459E-03   -0.22814E-04  8815   0.289E-02    0.259E-01
RMM:   7    -0.740951035944E+03    0.12949E-03   -0.25656E-04  9012   0.276E-02    0.155E-01
RMM:   8    -0.740950922239E+03    0.11371E-03   -0.14856E-04  8164   0.215E-02    0.719E-02
RMM:   9    -0.740950921135E+03    0.11037E-05   -0.35011E-05  7602   0.127E-02
  37 F= -.74095092E+03 E0= -.74033279E+03  d E =-.434920E-01  mag=     0.0000
 curvature:  -0.06 expect dE=-0.581E-01 dE for cont linesearch -0.647E-05
 trial: gam= 0.98104 g(F)=  0.987E+00 g(S)=  0.000E+00 ort = 0.120E-01 (trialstep = 0.211E-01)
 search vector abs. value=  0.227E+01
 bond charge predicted
       N       E                     dE             d eps       ncg     rms          rms(c)
DAV:   1    -0.740967382299E+03   -0.16460E-01   -0.16045E-01 13952   0.644E-01    0.117E-01
RMM:   2    -0.740967874971E+03   -0.49267E-03   -0.38925E-03 13440   0.116E-01    0.209E-01
RMM:   3    -0.740967863930E+03    0.11041E-04   -0.57919E-04 12302   0.459E-02    0.158E-01
RMM:   4    -0.740968041674E+03   -0.17774E-03   -0.17917E-04  8160   0.248E-02    0.246E-01
RMM:   5    -0.740967808208E+03    0.23347E-03   -0.77521E-05  7790   0.190E-02    0.149E-01
RMM:   6    -0.740967760661E+03    0.47547E-04   -0.30241E-05  7596   0.109E-02    0.951E-02
RMM:   7    -0.740967732371E+03    0.28290E-04   -0.30061E-05  7446   0.971E-03    0.556E-02
RMM:   8    -0.740967727255E+03    0.51168E-05   -0.21380E-05  6858   0.870E-03
  38 F= -.74096773E+03 E0= -.74034954E+03  d E =-.168061E-01  mag=     0.0000
 trial-energy change:   -0.016806  1 .order   -0.016756   -0.021045   -0.012468
 step:   0.0517(harm=  0.0517)  dis= 0.00367  next Energy=  -740.976739 (dE=-0.258E-01)
 bond charge predicted
       N       E                     dE             d eps       ncg     rms          rms(c)
DAV:   1    -0.740975780930E+03   -0.80486E-02   -0.33865E-01 13952   0.936E-01    0.167E-01
RMM:   2    -0.740978771515E+03   -0.29906E-02   -0.84047E-03 13440   0.170E-01    0.654E-01
RMM:   3    -0.740976656243E+03    0.21153E-02   -0.12265E-03 13422   0.698E-02    0.216E-01
RMM:   4    -0.740976698855E+03   -0.42613E-04   -0.38486E-04 10282   0.361E-02    0.226E-01
RMM:   5    -0.740976538914E+03    0.15994E-03   -0.16031E-04  8100   0.250E-02    0.177E-01
RMM:   6    -0.740976512288E+03    0.26626E-04   -0.66605E-05  7790   0.165E-02    0.131E-01
RMM:   7    -0.740976484358E+03    0.27930E-04   -0.72698E-05  7760   0.147E-02    0.947E-02
RMM:   8    -0.740976452818E+03    0.31540E-04   -0.51544E-05  7494   0.134E-02
  39 F= -.74097645E+03 E0= -.74035844E+03  d E =-.255317E-01  mag=     0.0000
 curvature:  -0.06 expect dE=-0.428E-01 dE for cont linesearch -0.372E-04
 trial: gam= 0.78703 g(F)=  0.728E+00 g(S)=  0.000E+00 ort =-0.379E-01 (trialstep = 0.272E-01)
 search vector abs. value=  0.208E+01
 bond charge predicted
       N       E                     dE             d eps       ncg     rms          rms(c)
DAV:   1    -0.740992733898E+03   -0.16250E-01   -0.17438E-01 14016   0.681E-01    0.105E-01
RMM:   2    -0.740993102755E+03   -0.36886E-03   -0.36273E-03 13440   0.119E-01    0.153E-01
RMM:   3    -0.740993138130E+03   -0.35375E-04   -0.64090E-04 12850   0.479E-02    0.104E-01
RMM:   4    -0.740993360569E+03   -0.22244E-03   -0.16023E-04  8014   0.234E-02    0.214E-01
RMM:   5    -0.740993169652E+03    0.19092E-03   -0.74061E-05  7804   0.185E-02    0.131E-01
RMM:   6    -0.740993110871E+03    0.58781E-04   -0.37184E-05  7624   0.116E-02    0.604E-02
RMM:   7    -0.740993112359E+03   -0.14880E-05   -0.30837E-05  7478   0.102E-02    0.487E-02
RMM:   8    -0.740993111340E+03    0.10197E-05   -0.16352E-05  6842   0.815E-03
  40 F= -.74099311E+03 E0= -.74037531E+03  d E =-.166585E-01  mag=     0.0000
 trial-energy change:   -0.016659  1 .order   -0.016460   -0.018991   -0.013928
 step:   0.1020(harm=  0.1020)  dis= 0.00628  next Energy=  -741.012070 (dE=-0.356E-01)
 bond charge predicted
       N       E                     dE             d eps       ncg     rms          rms(c)
DAV:   1    -0.741005836334E+03   -0.12724E-01   -0.13211E+00 13440   0.187E+00    0.296E-01
RMM:   2    -0.741009159931E+03   -0.33236E-02   -0.27177E-02 13440   0.325E-01    0.489E-01
RMM:   3    -0.741009889005E+03   -0.72907E-03   -0.51071E-03 14698   0.131E-01    0.508E-01
RMM:   4    -0.741008834796E+03    0.10542E-02   -0.10511E-03 13724   0.605E-02    0.253E-01
RMM:   5    -0.741009055927E+03   -0.22113E-03   -0.47024E-04 12030   0.398E-02    0.324E-01
RMM:   6    -0.741008692038E+03    0.36389E-03   -0.27999E-04  9530   0.319E-02    0.172E-01
RMM:   7    -0.741008640549E+03    0.51489E-04   -0.24116E-04  9286   0.292E-02    0.116E-01
RMM:   8    -0.741008593404E+03    0.47145E-04   -0.11530E-04  8008   0.209E-02
  41 F= -.74100859E+03 E0= -.74039114E+03  d E =-.321406E-01  mag=     0.0000
 curvature:  -0.15 expect dE=-0.118E+00 dE for cont linesearch -0.402E-03
 trial: gam= 0.69627 g(F)=  0.778E+00 g(S)=  0.000E+00 ort =-0.742E-01 (trialstep = 0.421E-01)
 search vector abs. value=  0.168E+01
 bond charge predicted
       N       E                     dE             d eps       ncg     rms          rms(c)
DAV:   1    -0.741027055977E+03   -0.18415E-01   -0.36672E-01 13856   0.978E-01    0.186E-01
RMM:   2    -0.741028372722E+03   -0.13167E-02   -0.78979E-03 13440   0.166E-01    0.387E-01
RMM:   3    -0.741028459772E+03   -0.87050E-04   -0.12923E-03 13506   0.710E-02    0.388E-01
RMM:   4    -0.741027681769E+03    0.77800E-03   -0.37240E-04  9671   0.333E-02    0.129E-01
RMM:   5    -0.741027970017E+03   -0.28825E-03   -0.14562E-04  8114   0.243E-02    0.258E-01
RMM:   6    -0.741027784380E+03    0.18564E-03   -0.10855E-04  7848   0.181E-02    0.154E-01
RMM:   7    -0.741027707086E+03    0.77293E-04   -0.84461E-05  7682   0.168E-02    0.101E-01
RMM:   8    -0.741027665153E+03    0.41933E-04   -0.57687E-05  7492   0.145E-02
  42 F= -.74102767E+03 E0= -.74041061E+03  d E =-.190717E-01  mag=     0.0000
 trial-energy change:   -0.019072  1 .order   -0.019188   -0.030627   -0.007749
 step:   0.0564(harm=  0.0564)  dis= 0.00247  next Energy=  -741.029094 (dE=-0.205E-01)
 bond charge predicted
       N       E                     dE             d eps       ncg     rms          rms(c)
DAV:   1    -0.741028887568E+03   -0.11805E-02   -0.41844E-02 14144   0.331E-01    0.678E-02
RMM:   2    -0.741029080204E+03   -0.19264E-03   -0.95647E-04 12768   0.571E-02    0.176E-01
RMM:   3    -0.741029028878E+03    0.51325E-04   -0.15906E-04  7789   0.250E-02    0.109E-01
RMM:   4    -0.741029015546E+03    0.13332E-04   -0.53106E-05  7496   0.158E-02    0.117E-01
RMM:   5    -0.741028975322E+03    0.40224E-04   -0.20922E-05  7158   0.871E-03    0.672E-02
RMM:   6    -0.741028958577E+03    0.16745E-04   -0.10648E-05  6506   0.602E-03    0.372E-02
RMM:   7    -0.741028960423E+03   -0.18463E-05   -0.57207E-06  6180   0.493E-03    0.205E-02
RMM:   8    -0.741028963465E+03   -0.30424E-05   -0.25082E-06  4667   0.362E-03
  43 F= -.74102896E+03 E0= -.74041189E+03  d E =-.203701E-01  mag=     0.0000
 curvature:  -0.07 expect dE=-0.246E-01 dE for cont linesearch -0.162E-06
 trial: gam= 0.38340 g(F)=  0.377E+00 g(S)=  0.000E+00 ort =-0.204E-02 (trialstep = 0.450E-01)
 search vector abs. value=  0.623E+00
 bond charge predicted
       N       E                     dE             d eps       ncg     rms          rms(c)
DAV:   1    -0.741038475714E+03   -0.95153E-02   -0.19508E-01 13808   0.710E-01    0.109E-01
RMM:   2    -0.741039361799E+03   -0.88609E-03   -0.41969E-03 13440   0.125E-01    0.296E-01
RMM:   3    -0.741039025044E+03    0.33676E-03   -0.71650E-04 12938   0.506E-02    0.175E-01
RMM:   4    -0.741038893733E+03    0.13131E-03   -0.17732E-04  8140   0.251E-02    0.886E-02
RMM:   5    -0.741038881466E+03    0.12267E-04   -0.68447E-05  7688   0.185E-02    0.735E-02
RMM:   6    -0.741038882636E+03   -0.11705E-05   -0.37977E-05  7468   0.112E-02    0.574E-02
RMM:   7    -0.741038882505E+03    0.13164E-06   -0.29054E-05  7264   0.102E-02    0.488E-02
RMM:   8    -0.741038874197E+03    0.83077E-05   -0.15894E-05  6678   0.797E-03
  44 F= -.74103887E+03 E0= -.74042195E+03  d E =-.991073E-02  mag=     0.0000
 trial-energy change:   -0.009911  1 .order   -0.010111   -0.016930   -0.003292
 step:   0.0559(harm=  0.0559)  dis= 0.00187  next Energy=  -741.039472 (dE=-0.105E-01)
 bond charge predicted
       N       E                     dE             d eps       ncg     rms          rms(c)
DAV:   1    -0.741039270158E+03   -0.38765E-03   -0.11306E-02 14176   0.171E-01    0.285E-02
RMM:   2    -0.741039320908E+03   -0.50750E-04   -0.26227E-04  8266   0.306E-02    0.717E-02
RMM:   3    -0.741039306411E+03    0.14497E-04   -0.40531E-05  7274   0.146E-02    0.525E-02
RMM:   4    -0.741039295005E+03    0.11406E-04   -0.10768E-05  7058   0.669E-03    0.260E-02
RMM:   5    -0.741039294363E+03    0.64164E-06   -0.42905E-06  6008   0.450E-03    0.176E-02
RMM:   6    -0.741039295943E+03   -0.15792E-05   -0.75537E-07  2780   0.292E-03    0.115E-02
RMM:   7    -0.741039297095E+03   -0.11519E-05   -0.11917E-06  3366   0.313E-03    0.148E-02
RMM:   8    -0.741039296971E+03    0.12323E-06   -0.50741E-07  2732   0.300E-03
  45 F= -.74103930E+03 E0= -.74042242E+03  d E =-.103335E-01  mag=     0.0000
 curvature:  -0.05 expect dE=-0.135E-01 dE for cont linesearch -0.361E-05
 trial: gam= 0.81466 g(F)=  0.292E+00 g(S)=  0.000E+00 ort = 0.697E-02 (trialstep = 0.410E-01)
 search vector abs. value=  0.717E+00
 bond charge predicted
       N       E                     dE             d eps       ncg     rms          rms(c)
DAV:   1    -0.741048584891E+03   -0.92878E-02   -0.17133E-01 13600   0.670E-01    0.997E-02
RMM:   2    -0.741049087472E+03   -0.50258E-03   -0.37222E-03 13440   0.124E-01    0.214E-01
RMM:   3    -0.741049029478E+03    0.57995E-04   -0.71258E-04 13012   0.488E-02    0.116E-01
RMM:   4    -0.741049128922E+03   -0.99444E-04   -0.15929E-04  8012   0.241E-02    0.172E-01
RMM:   5    -0.741048990920E+03    0.13800E-03   -0.70308E-05  7758   0.193E-02    0.108E-01
RMM:   6    -0.741048960946E+03    0.29974E-04   -0.40294E-05  7567   0.114E-02    0.552E-02
RMM:   7    -0.741048963238E+03   -0.22918E-05   -0.29074E-05  7322   0.973E-03    0.488E-02
RMM:   8    -0.741048955645E+03    0.75928E-05   -0.16446E-05  6700   0.819E-03
  46 F= -.74104896E+03 E0= -.74043219E+03  d E =-.965867E-02  mag=     0.0000
 trial-energy change:   -0.009659  1 .order   -0.009735   -0.012210   -0.007260
 step:   0.1011(harm=  0.1011)  dis= 0.00274  next Energy=  -741.054356 (dE=-0.151E-01)
 bond charge predicted
       N       E                     dE             d eps       ncg     rms          rms(c)
DAV:   1    -0.741052985335E+03   -0.40221E-02   -0.36823E-01 13440   0.982E-01    0.148E-01
RMM:   2    -0.741054283951E+03   -0.12986E-02   -0.80531E-03 13440   0.182E-01    0.367E-01
RMM:   3    -0.741053929725E+03    0.35423E-03   -0.15791E-03 14222   0.721E-02    0.162E-01
RMM:   4    -0.741054144790E+03   -0.21507E-03   -0.35286E-04 10086   0.344E-02    0.248E-01
RMM:   5    -0.741053882877E+03    0.26191E-03   -0.14061E-04  8032   0.252E-02    0.159E-01
RMM:   6    -0.741053807475E+03    0.75402E-04   -0.83655E-05  7896   0.174E-02    0.811E-02
RMM:   7    -0.741053808688E+03   -0.12137E-05   -0.59394E-05  7778   0.136E-02    0.680E-02
RMM:   8    -0.741053794245E+03    0.14443E-04   -0.32780E-05  7400   0.116E-02
  47 F= -.74105379E+03 E0= -.74043725E+03  d E =-.144973E-01  mag=     0.0000
 curvature:  -0.12 expect dE=-0.392E-01 dE for cont linesearch -0.641E-04
 trial: gam= 1.22446 g(F)=  0.322E+00 g(S)=  0.000E+00 ort =-0.194E-01 (trialstep = 0.281E-01)
 search vector abs. value=  0.135E+01
 bond charge predicted
       N       E                     dE             d eps       ncg     rms          rms(c)
DAV:   1    -0.741061134092E+03   -0.73254E-02   -0.98548E-02 13984   0.485E-01    0.849E-02
RMM:   2    -0.741061854761E+03   -0.72067E-03   -0.21003E-03 13440   0.923E-02    0.331E-01
RMM:   3    -0.741061363262E+03    0.49150E-03   -0.44029E-04 11172   0.380E-02    0.122E-01
RMM:   4    -0.741061550821E+03   -0.18756E-03   -0.97178E-05  7924   0.204E-02    0.198E-01
RMM:   5    -0.741061403375E+03    0.14745E-03   -0.50283E-05  7680   0.151E-02    0.132E-01
RMM:   6    -0.741061357447E+03    0.45928E-04   -0.31633E-05  7482   0.106E-02    0.732E-02
RMM:   7    -0.741061343974E+03    0.13473E-04   -0.22574E-05  7124   0.871E-03    0.417E-02
RMM:   8    -0.741061346531E+03   -0.25571E-05   -0.84087E-06  6558   0.614E-03
  48 F= -.74106135E+03 E0= -.74044499E+03  d E =-.755229E-02  mag=     0.0000
 ZBRENT: can't locate minimum, use default step
 trial-energy change:   -0.007552  1 .order   -0.007506   -0.008401   -0.006610
 step:   0.1126(harm=  0.1320)  dis= 0.00528  next Energy=  -741.073496 (dE=-0.197E-01)
 bond charge predicted
       N       E                     dE             d eps       ncg     rms          rms(c)
DAV:   1    -0.741066736807E+03   -0.53928E-02   -0.89038E-01 13632   0.146E+00    0.250E-01
RMM:   2    -0.741071767822E+03   -0.50310E-02   -0.18711E-02 13440   0.276E-01    0.868E-01
RMM:   3    -0.741068906066E+03    0.28618E-02   -0.40534E-03 15068   0.113E-01    0.355E-01
RMM:   4    -0.741070653180E+03   -0.17471E-02   -0.82855E-04 13220   0.522E-02    0.624E-01
RMM:   5    -0.741069092600E+03    0.15606E-02   -0.41375E-04 11631   0.391E-02    0.385E-01
RMM:   6    -0.741068679987E+03    0.41261E-03   -0.31977E-04  9930   0.313E-02    0.231E-01
RMM:   7    -0.741068526124E+03    0.15386E-03   -0.22330E-04  8846   0.259E-02    0.125E-01
RMM:   8    -0.741068543894E+03   -0.17770E-04   -0.79433E-05  7934   0.177E-02
  49 F= -.74106854E+03 E0= -.74045276E+03  d E =-.147496E-01  mag=    -0.0000
 curvature:  -0.29 expect dE=-0.213E+00 dE for cont linesearch -0.840E-03
 trial: gam= 1.86131 g(F)=  0.738E+00 g(S)=  0.000E+00 ort =-0.627E-01 (trialstep = 0.117E-01)
 search vector abs. value=  0.518E+01
 bond charge predicted
       N       E                     dE             d eps       ncg     rms          rms(c)
DAV:   1    -0.741075044044E+03   -0.65179E-02   -0.53682E-02 14112   0.344E-01    0.108E-01
RMM:   2    -0.741076021403E+03   -0.97736E-03   -0.12411E-03 13402   0.678E-02    0.353E-01
RMM:   3    -0.741075506215E+03    0.51519E-03   -0.32271E-04  9930   0.345E-02    0.265E-01
RMM:   4    -0.741075268534E+03    0.23768E-03   -0.89237E-05  7800   0.199E-02    0.146E-01
RMM:   5    -0.741075174809E+03    0.93724E-04   -0.39728E-05  7606   0.122E-02    0.104E-01
RMM:   6    -0.741075179356E+03   -0.45468E-05   -0.17477E-05  7236   0.871E-03    0.810E-02
RMM:   7    -0.741075162887E+03    0.16469E-04   -0.14244E-05  6788   0.692E-03    0.540E-02
RMM:   8    -0.741075163356E+03   -0.46922E-06   -0.62555E-06  6456   0.535E-03
  50 F= -.74107516E+03 E0= -.74045938E+03  d E =-.661946E-02  mag=    -0.0000
 ZBRENT: can't locate minimum, use default step
 trial-energy change:   -0.006619  1 .order   -0.006659   -0.007293   -0.006025
 step:   0.0469(harm=  0.0675)  dis= 0.00450  next Energy=  -741.089510 (dE=-0.210E-01)
 bond charge predicted
       N       E                     dE             d eps       ncg     rms          rms(c)
DAV:   1    -0.741086265104E+03   -0.11102E-01   -0.48540E-01 13664   0.103E+00    0.214E-01
RMM:   2    -0.741089502877E+03   -0.32378E-02   -0.10045E-02 13440   0.197E-01    0.746E-01
RMM:   3    -0.741087412486E+03    0.20904E-02   -0.22579E-03 14980   0.837E-02    0.321E-01
RMM:   4    -0.741088688625E+03   -0.12761E-02   -0.51422E-04 12226   0.391E-02    0.551E-01
RMM:   5    -0.741087444724E+03    0.12439E-02   -0.37594E-04 10516   0.347E-02    0.321E-01
RMM:   6    -0.741087257693E+03    0.18703E-03   -0.25601E-04  8952   0.292E-02    0.221E-01
RMM:   7    -0.741087093035E+03    0.16466E-03   -0.15709E-04  8258   0.228E-02    0.114E-01
RMM:   8    -0.741087090165E+03    0.28701E-05   -0.60967E-05  7732   0.152E-02
  51 F= -.74108709E+03 E0= -.74047169E+03  d E =-.185463E-01  mag=    -0.0000
 curvature:  -0.24 expect dE=-0.124E+00 dE for cont linesearch -0.811E-03
 ZBRENT: extrapolating
 opt :   0.0590  next Energy=  -741.087887 (dE=-0.193E-01)
 bond charge predicted
       N       E                     dE             d eps       ncg     rms          rms(c)
DAV:   1    -0.741087787784E+03   -0.69475E-03   -0.57457E-02 14048   0.356E-01    0.984E-02
RMM:   2    -0.741088199027E+03   -0.41124E-03   -0.12662E-03 13376   0.685E-02    0.211E-01
RMM:   3    -0.741088254657E+03   -0.55630E-04   -0.30745E-04  9386   0.321E-02    0.255E-01
RMM:   4    -0.741087978546E+03    0.27611E-03   -0.76873E-05  7762   0.199E-02    0.120E-01
RMM:   5    -0.741087960765E+03    0.17781E-04   -0.41843E-05  7552   0.119E-02    0.126E-01
RMM:   6    -0.741087922276E+03    0.38489E-04   -0.22373E-05  7234   0.998E-03    0.624E-02
RMM:   7    -0.741087919119E+03    0.31575E-05   -0.16230E-05  6920   0.711E-03    0.449E-02
RMM:   8    -0.741087918991E+03    0.12759E-06   -0.77887E-06  6552   0.611E-03
  52 F= -.74108792E+03 E0= -.74047259E+03  d E =-.193751E-01  mag=    -0.0000
 curvature:  -0.24 expect dE=-0.149E+00 dE for cont linesearch -0.523E-05
 trial: gam= 0.54945 g(F)=  0.623E+00 g(S)=  0.000E+00 ort = 0.107E-01 (trialstep = 0.212E-01)
 search vector abs. value=  0.220E+01
 bond charge predicted
       N       E                     dE             d eps       ncg     rms          rms(c)
DAV:   1    -0.741100316582E+03   -0.12397E-01   -0.73086E-02 14048   0.411E-01    0.838E-02
RMM:   2    -0.741100581484E+03   -0.26490E-03   -0.14089E-03 13424   0.763E-02    0.198E-01
RMM:   3    -0.741100509258E+03    0.72227E-04   -0.29989E-04  9198   0.327E-02    0.120E-01
RMM:   4    -0.741100463934E+03    0.45323E-04   -0.77336E-05  7714   0.194E-02    0.722E-02
RMM:   5    -0.741100477430E+03   -0.13496E-04   -0.37388E-05  7452   0.109E-02    0.794E-02
RMM:   6    -0.741100478597E+03   -0.11670E-05   -0.23560E-05  7356   0.950E-03    0.640E-02
RMM:   7    -0.741100466357E+03    0.12241E-04   -0.16570E-05  6824   0.775E-03    0.352E-02
RMM:   8    -0.741100463700E+03    0.26568E-05   -0.63911E-06  6312   0.523E-03
  53 F= -.74110046E+03 E0= -.74048524E+03  d E =-.125447E-01  mag=    -0.0000
 ZBRENT: can't locate minimum, use default step
 trial-energy change:   -0.012545  1 .order   -0.012513   -0.013326   -0.011700
 step:   0.0848(harm=  0.1738)  dis= 0.00522  next Energy=  -741.142541 (dE=-0.546E-01)
 bond charge predicted
       N       E                     dE             d eps       ncg     rms          rms(c)
DAV:   1    -0.741128116827E+03   -0.27650E-01   -0.65750E-01 13440   0.123E+00    0.245E-01
RMM:   2    -0.741131080914E+03   -0.29641E-02   -0.12879E-02 13440   0.230E-01    0.691E-01
RMM:   3    -0.741129794714E+03    0.12862E-02   -0.27408E-03 14420   0.974E-02    0.333E-01
RMM:   4    -0.741130078336E+03   -0.28362E-03   -0.88396E-04 12964   0.466E-02    0.376E-01
RMM:   5    -0.741129493219E+03    0.58512E-03   -0.31649E-04  9612   0.313E-02    0.223E-01
RMM:   6    -0.741129499992E+03   -0.67734E-05   -0.21490E-04  8548   0.279E-02    0.184E-01
RMM:   7    -0.741129401719E+03    0.98274E-04   -0.14350E-04  8134   0.223E-02    0.986E-02
RMM:   8    -0.741129375241E+03    0.26477E-04   -0.59381E-05  7802   0.152E-02
  54 F= -.74112938E+03 E0= -.74051462E+03  d E =-.414563E-01  mag=    -0.0000
 curvature:  -0.20 expect dE=-0.130E+00 dE for cont linesearch -0.106E-01
 ZBRENT: increasing intervall
 opt :   0.2120  next Energy=  -741.145827 (dE=-0.579E-01)
 bond charge predicted
       N       E                     dE             d eps       ncg     rms          rms(c)
DAV:   1    -0.741137734562E+03   -0.83328E-02   -0.26265E+00 13440   0.246E+00    0.477E-01
RMM:   2    -0.741149967005E+03   -0.12232E-01   -0.51114E-02 13440   0.457E-01    0.141E+00
RMM:   3    -0.741144755470E+03    0.52115E-02   -0.10957E-02 14496   0.193E-01    0.673E-01
RMM:   4    -0.741144916681E+03   -0.16121E-03   -0.34663E-03 15664   0.919E-02    0.665E-01
RMM:   5    -0.741143330112E+03    0.15866E-02   -0.11726E-03 13166   0.579E-02    0.447E-01
RMM:   6    -0.741143351748E+03   -0.21636E-04   -0.78335E-04 12656   0.504E-02    0.373E-01
RMM:   7    -0.741142906505E+03    0.44524E-03   -0.59374E-04 12304   0.407E-02    0.188E-01
RMM:   8    -0.741142806234E+03    0.10027E-03   -0.25449E-04  9210   0.273E-02    0.124E-01
RMM:   9    -0.741142772446E+03    0.33787E-04   -0.83074E-05  7952   0.198E-02
  55 F= -.74114277E+03 E0= -.74052898E+03  d E =-.548535E-01  mag=    -0.0000
 curvature:  -0.31 expect dE=-0.669E+00 dE for cont linesearch -0.260E-03
 trial: gam= 3.70334 g(F)=  0.215E+01 g(S)=  0.000E+00 ort =-0.428E-01 (trialstep = 0.408E-02)
 search vector abs. value=  0.320E+02
 bond charge predicted
       N       E                     dE             d eps       ncg     rms          rms(c)
DAV:   1    -0.741150586241E+03   -0.77800E-02   -0.30168E-02 14176   0.266E-01    0.879E-02
RMM:   2    -0.741151039470E+03   -0.45323E-03   -0.66508E-04 13052   0.518E-02    0.250E-01
RMM:   3    -0.741150832949E+03    0.20652E-03   -0.19829E-04  8156   0.258E-02    0.181E-01
RMM:   4    -0.741150699211E+03    0.13374E-03   -0.83804E-05  7738   0.195E-02    0.986E-02
RMM:   5    -0.741150668311E+03    0.30900E-04   -0.23101E-05  7479   0.103E-02    0.381E-02
RMM:   6    -0.741150675790E+03   -0.74783E-05   -0.11504E-05  6899   0.647E-03    0.392E-02
RMM:   7    -0.741150674016E+03    0.17741E-05   -0.73328E-06  6723   0.571E-03    0.211E-02
RMM:   8    -0.741150674950E+03   -0.93490E-06   -0.16456E-06  4154   0.333E-03
  56 F= -.74115067E+03 E0= -.74053695E+03  d E =-.790250E-02  mag=     0.0000
 ZBRENT: can't locate minimum, use default step
 trial-energy change:   -0.007903  1 .order   -0.007868   -0.008108   -0.007628
 step:   0.0163(harm=  0.0689)  dis= 0.00389  next Energy=  -741.211266 (dE=-0.685E-01)
 bond charge predicted
       N       E                     dE             d eps       ncg     rms          rms(c)
DAV:   1    -0.741170284864E+03   -0.19611E-01   -0.27271E-01 13824   0.797E-01    0.152E-01
RMM:   2    -0.741171078951E+03   -0.79409E-03   -0.50946E-03 13440   0.146E-01    0.326E-01
RMM:   3    -0.741170935476E+03    0.14348E-03   -0.10501E-03 13446   0.614E-02    0.166E-01
RMM:   4    -0.741171160387E+03   -0.22491E-03   -0.35203E-04  9580   0.306E-02    0.230E-01
RMM:   5    -0.741170854225E+03    0.30616E-03   -0.12052E-04  7922   0.232E-02    0.112E-01
RMM:   6    -0.741170867940E+03   -0.13716E-04   -0.86246E-05  7790   0.163E-02    0.724E-02
RMM:   7    -0.741170861335E+03    0.66057E-05   -0.43536E-05  7578   0.133E-02    0.578E-02
RMM:   8    -0.741170854376E+03    0.69584E-05   -0.16105E-05  7042   0.807E-03
  57 F= -.74117085E+03 E0= -.74055746E+03  d E =-.280819E-01  mag=     0.0000
 curvature:  -0.19 expect dE=-0.366E+00 dE for cont linesearch -0.128E-01
 ZBRENT: increasing intervall
 opt :   0.0408  next Energy=  -741.196918 (dE=-0.541E-01)
 bond charge predicted
       N       E                     dE             d eps       ncg     rms          rms(c)
DAV:   1    -0.741199980639E+03   -0.29119E-01   -0.10903E+00 13440   0.160E+00    0.299E-01
RMM:   2    -0.741202737369E+03   -0.27567E-02   -0.20315E-02 13440   0.291E-01    0.576E-01
RMM:   3    -0.741202181602E+03    0.55577E-03   -0.43256E-03 14508   0.122E-01    0.179E-01
RMM:   4    -0.741202456630E+03   -0.27503E-03   -0.11375E-03 13791   0.578E-02    0.251E-01
RMM:   5    -0.741203404260E+03   -0.94763E-03   -0.40078E-04 11512   0.349E-02    0.432E-01
RMM:   6    -0.741202416585E+03    0.98767E-03   -0.23875E-04  8838   0.271E-02    0.179E-01
RMM:   7    -0.741202337390E+03    0.79195E-04   -0.14084E-04  8096   0.232E-02    0.110E-01
RMM:   8    -0.741202295325E+03    0.42064E-04   -0.55230E-05  7882   0.152E-02
  58 F= -.74120230E+03 E0= -.74058948E+03  d E =-.595229E-01  mag=     0.0000
 curvature:  -0.39 expect dE=-0.735E+00 dE for cont linesearch -0.582E-02
 ZBRENT: increasing intervall
 opt :   0.0898  next Energy=  -741.198356 (dE=-0.556E-01)
 bond charge predicted
       N       E                     dE             d eps       ncg     rms          rms(c)
DAV:   1    -0.741193431247E+03    0.89061E-02   -0.43729E+00 13440   0.320E+00    0.607E-01
RMM:   2    -0.741205840174E+03   -0.12409E-01   -0.81712E-02 13440   0.584E-01    0.126E+00
RMM:   3    -0.741204779355E+03    0.10608E-02   -0.17663E-02 14560   0.244E-01    0.694E-01
RMM:   4    -0.741208056986E+03   -0.32776E-02   -0.56695E-03 15598   0.117E-01    0.981E-01
RMM:   5    -0.741203126315E+03    0.49307E-02   -0.16629E-03 13292   0.734E-02    0.453E-01
RMM:   6    -0.741202983253E+03    0.14306E-03   -0.14954E-03 13216   0.636E-02    0.264E-01
[...]
DAV:   1    -0.742082434292E+03   -0.72325E-04   -0.13037E-03 13152   0.543E-02    0.938E-03
RMM:   2    -0.742082439102E+03   -0.48094E-05   -0.28455E-05  7078   0.105E-02    0.282E-02
RMM:   3    -0.742082436608E+03    0.24936E-05   -0.46718E-06  6798   0.525E-03    0.114E-02
RMM:   4    -0.742082437540E+03   -0.93174E-06   -0.11387E-07  1814   0.243E-03    0.155E-02
RMM:   5    -0.742082436510E+03    0.10298E-05   -0.40861E-08  1504   0.244E-03    0.872E-03
RMM:   6    -0.742082436584E+03   -0.73378E-07   -0.14643E-08  1150   0.246E-03    0.495E-03
RMM:   7    -0.742082436704E+03   -0.12059E-06   -0.30279E-08  1048   0.253E-03    0.563E-03
RMM:   8    -0.742082436664E+03    0.39960E-07   -0.14382E-07  1104   0.263E-03
 165 F= -.74208244E+03 E0= -.74147301E+03  d E =-.746717E-04  mag=    -0.0000
 trial-energy change:   -0.000075  1 .order   -0.000072   -0.000085   -0.000058
 step:   0.0750(harm=  0.0750)  dis= 0.00060  next Energy=  -742.082495 (dE=-0.133E-03)
 bond charge predicted
       N       E                     dE             d eps       ncg     rms          rms(c)
DAV:   1    -0.742082477526E+03   -0.40822E-04   -0.58022E-03 13792   0.114E-01    0.199E-02
RMM:   2    -0.742082491906E+03   -0.14380E-04   -0.12089E-04  7192   0.221E-02    0.435E-02
RMM:   3    -0.742082488560E+03    0.33463E-05   -0.19693E-05  7064   0.106E-02    0.195E-02
RMM:   4    -0.742082489062E+03   -0.50193E-06   -0.63639E-06  6562   0.494E-03    0.237E-02
RMM:   5    -0.742082491879E+03   -0.28175E-05   -0.17738E-06  4582   0.357E-03    0.270E-02
RMM:   6    -0.742082488865E+03    0.30142E-05   -0.10437E-07  1816   0.259E-03    0.159E-02
RMM:   7    -0.742082488816E+03    0.49164E-07   -0.15022E-07  1807   0.260E-03    0.109E-02
RMM:   8    -0.742082488997E+03   -0.18127E-06   -0.26159E-07  1798   0.263E-03
 166 F= -.74208249E+03 E0= -.74147309E+03  d E =-.127005E-03  mag=    -0.0000
 curvature:  -0.12 expect dE=-0.367E-03 dE for cont linesearch -0.161E-05
 trial: gam= 0.68036 g(F)=  0.296E-02 g(S)=  0.000E+00 ort =-0.391E-03 (trialstep = 0.343E-01)
 search vector abs. value=  0.786E-02
 bond charge predicted
       N       E                     dE             d eps       ncg     rms          rms(c)
DAV:   1    -0.742082563068E+03   -0.74252E-04   -0.17475E-03 13120   0.608E-02    0.138E-02
RMM:   2    -0.742082574170E+03   -0.11102E-04   -0.37794E-05  7194   0.124E-02    0.426E-02
RMM:   3    -0.742082566100E+03    0.80704E-05   -0.69858E-06  7058   0.629E-03    0.167E-02
RMM:   4    -0.742082567006E+03   -0.90584E-06   -0.65691E-07  2664   0.288E-03    0.158E-02
RMM:   5    -0.742082566910E+03    0.95766E-07   -0.24631E-07  2166   0.283E-03    0.135E-02
RMM:   6    -0.742082566714E+03    0.19560E-06   -0.79212E-08  1680   0.277E-03    0.102E-02
RMM:   7    -0.742082566514E+03    0.20052E-06   -0.96628E-08  1318   0.278E-03    0.488E-03
RMM:   8    -0.742082566542E+03   -0.28682E-07   -0.88297E-08  1082   0.276E-03
 167 F= -.74208257E+03 E0= -.74147317E+03  d E =-.775454E-04  mag=    -0.0000
 trial-energy change:   -0.000078  1 .order   -0.000076   -0.000092   -0.000060
 step:   0.0996(harm=  0.0996)  dis= 0.00067  next Energy=  -742.082623 (dE=-0.134E-03)
 bond charge predicted
       N       E                     dE             d eps       ncg     rms          rms(c)
DAV:   1    -0.742082625303E+03   -0.58789E-04   -0.63304E-03 13856   0.116E-01    0.210E-02
RMM:   2    -0.742082643781E+03   -0.18478E-04   -0.12932E-04  7220   0.228E-02    0.568E-02
RMM:   3    -0.742082638757E+03    0.50237E-05   -0.21523E-05  7074   0.109E-02    0.319E-02
RMM:   4    -0.742082647213E+03   -0.84564E-05   -0.74653E-06  6728   0.517E-03    0.461E-02
RMM:   5    -0.742082636654E+03    0.10560E-04   -0.28017E-06  5510   0.395E-03    0.225E-02
RMM:   6    -0.742082637111E+03   -0.45753E-06   -0.35384E-07  2278   0.265E-03    0.188E-02
RMM:   7    -0.742082637040E+03    0.70679E-07   -0.13699E-07  1856   0.266E-03    0.161E-02
RMM:   8    -0.742082636795E+03    0.24538E-06   -0.10111E-06  2482   0.304E-03
 168 F= -.74208264E+03 E0= -.74147326E+03  d E =-.147798E-03  mag=     0.0000
 curvature:  -0.15 expect dE=-0.286E-03 dE for cont linesearch -0.174E-05
 trial: gam= 0.33327 g(F)=  0.197E-02 g(S)=  0.000E+00 ort = 0.307E-03 (trialstep = 0.473E-01)
 search vector abs. value=  0.304E-02
 bond charge predicted
       N       E                     dE             d eps       ncg     rms          rms(c)
DAV:   1    -0.742082709273E+03   -0.72233E-04   -0.12551E-03 13216   0.533E-02    0.141E-02
RMM:   2    -0.742082717343E+03   -0.80698E-05   -0.29028E-05  7150   0.106E-02    0.324E-02
RMM:   3    -0.742082712371E+03    0.49722E-05   -0.50481E-06  6862   0.524E-03    0.193E-02
RMM:   4    -0.742082711632E+03    0.73816E-06   -0.26451E-07  2092   0.263E-03    0.855E-03
RMM:   5    -0.742082712489E+03   -0.85653E-06   -0.25738E-07  2075   0.272E-03    0.127E-02
RMM:   6    -0.742082711875E+03    0.61363E-06   -0.50543E-09  1388   0.253E-03    0.497E-03
RMM:   7    -0.742082711958E+03   -0.82618E-07   -0.20346E-12  1014   0.256E-03    0.442E-03
RMM:   8    -0.742082711871E+03    0.86475E-07   -0.59708E-10   872   0.258E-03
 169 F= -.74208271E+03 E0= -.74147334E+03  d E =-.750764E-04  mag=     0.0000
 trial-energy change:   -0.000075  1 .order   -0.000073   -0.000098   -0.000049
 step:   0.0946(harm=  0.0946)  dis= 0.00043  next Energy=  -742.082735 (dE=-0.979E-04)
 bond charge predicted
       N       E                     dE             d eps       ncg     rms          rms(c)
DAV:   1    -0.742082731656E+03   -0.19698E-04   -0.12433E-03 13248   0.530E-02    0.956E-03
RMM:   2    -0.742082734865E+03   -0.32089E-05   -0.29345E-05  7090   0.110E-02    0.207E-02
RMM:   3    -0.742082734050E+03    0.81505E-06   -0.46373E-06  6760   0.513E-03    0.104E-02
RMM:   4    -0.742082734749E+03   -0.69916E-06   -0.10106E-07  1680   0.253E-03    0.139E-02
RMM:   5    -0.742082734753E+03   -0.38272E-08   -0.89537E-09  1492   0.247E-03    0.138E-02
RMM:   6    -0.742082733917E+03    0.83593E-06   -0.10666E-08  1170   0.246E-03    0.596E-03
RMM:   7    -0.742082734115E+03   -0.19791E-06   -0.10018E-08  1048   0.253E-03    0.429E-03
RMM:   8    -0.742082734173E+03   -0.57807E-07   -0.42697E-08   876   0.261E-03
 170 F= -.74208273E+03 E0= -.74147336E+03  d E =-.973776E-04  mag=     0.0000
 curvature:  -0.07 expect dE=-0.215E-03 dE for cont linesearch -0.188E-06
 trial: gam= 1.68413 g(F)=  0.309E-02 g(S)=  0.000E+00 ort =-0.906E-04 (trialstep = 0.151E-01)
 search vector abs. value=  0.114E-01
 bond charge predicted
       N       E                     dE             d eps       ncg     rms          rms(c)
DAV:   1    -0.742082772048E+03   -0.37934E-04   -0.47023E-04 13056   0.318E-02    0.714E-03
RMM:   2    -0.742082773290E+03   -0.12414E-05   -0.11408E-05  6972   0.697E-03    0.125E-02
RMM:   3    -0.742082772920E+03    0.36935E-06   -0.97275E-07  3357   0.324E-03    0.752E-03
RMM:   4    -0.742082775489E+03   -0.25691E-05   -0.43415E-08  1399   0.259E-03    0.199E-02
RMM:   5    -0.742082772560E+03    0.29295E-05   -0.40839E-16  1180   0.254E-03    0.804E-03
RMM:   6    -0.742082772969E+03   -0.40951E-06   -0.32724E-08  1066   0.254E-03    0.360E-03
RMM:   7    -0.742082773073E+03   -0.10347E-06   -0.12704E-08   834   0.252E-03    0.247E-03
RMM:   8    -0.742082773085E+03   -0.12304E-07   -0.45237E-09   754   0.252E-03
 171 F= -.74208277E+03 E0= -.74147340E+03  d E =-.389127E-04  mag=     0.0000
 trial-energy change:   -0.000039  1 .order   -0.000038   -0.000045   -0.000031
 step:   0.0497(harm=  0.0497)  dis= 0.00044  next Energy=  -742.082807 (dE=-0.731E-04)
 bond charge predicted
       N       E                     dE             d eps       ncg     rms          rms(c)
DAV:   1    -0.742082801497E+03   -0.28424E-04   -0.24094E-03 13440   0.724E-02    0.132E-02
RMM:   2    -0.742082807429E+03   -0.59323E-05   -0.52025E-05  7084   0.138E-02    0.302E-02
RMM:   3    -0.742082806205E+03    0.12236E-05   -0.79267E-06  6930   0.664E-03    0.169E-02
RMM:   4    -0.742082806339E+03   -0.13370E-06   -0.13968E-06  3330   0.310E-03    0.169E-02
RMM:   5    -0.742082806699E+03   -0.35988E-06   -0.11583E-07  1898   0.271E-03    0.179E-02
RMM:   6    -0.742082805751E+03    0.94818E-06   -0.10356E-07  1512   0.273E-03    0.113E-02
RMM:   7    -0.742082805976E+03   -0.22575E-06   -0.20338E-07  1558   0.281E-03    0.978E-03
RMM:   8    -0.742082805850E+03    0.12645E-06   -0.44560E-07  1682   0.292E-03
 172 F= -.74208281E+03 E0= -.74147343E+03  d E =-.716774E-04  mag=     0.0000
 curvature:  -0.10 expect dE=-0.190E-03 dE for cont linesearch -0.420E-06
 trial: gam= 0.47111 g(F)=  0.197E-02 g(S)=  0.000E+00 ort =-0.223E-03 (trialstep = 0.220E-01)
 search vector abs. value=  0.430E-02
 bond charge predicted
       N       E                     dE             d eps       ncg     rms          rms(c)
DAV:   1    -0.742082843340E+03   -0.37363E-04   -0.37963E-04 12960   0.289E-02    0.880E-03
RMM:   2    -0.742082849230E+03   -0.58907E-05   -0.95298E-06  7044   0.593E-03    0.300E-02
RMM:   3    -0.742082843362E+03    0.58688E-05   -0.83834E-07  3292   0.325E-03    0.982E-03
RMM:   4    -0.742082843993E+03   -0.63110E-06   -0.12807E-07  1378   0.269E-03    0.711E-03
RMM:   5    -0.742082844038E+03   -0.44965E-07   -0.19415E-08  1040   0.254E-03    0.503E-03
RMM:   6    -0.742082844295E+03   -0.25690E-06   -0.11924E-07  1274   0.259E-03    0.668E-03
RMM:   7    -0.742082843955E+03    0.33943E-06   -0.92733E-10   873   0.244E-03    0.321E-03
RMM:   8    -0.742082844008E+03   -0.53253E-07    0.00000E+00   752   0.243E-03
 173 F= -.74208284E+03 E0= -.74147346E+03  d E =-.381584E-04  mag=     0.0000
 ZBRENT: can't locate minimum, use default step
 trial-energy change:   -0.000038  1 .order   -0.000037   -0.000041   -0.000033
 step:   0.0882(harm=  0.1181)  dis= 0.00043  next Energy=  -742.082916 (dE=-0.110E-03)
 bond charge predicted
       N       E                     dE             d eps       ncg     rms          rms(c)
DAV:   1    -0.742082901786E+03   -0.57831E-04   -0.33351E-03 13504   0.859E-02    0.148E-02
RMM:   2    -0.742082914886E+03   -0.13100E-04   -0.71023E-05  7170   0.163E-02    0.467E-02
RMM:   3    -0.742082907381E+03    0.75050E-05   -0.11318E-05  7038   0.797E-03    0.174E-02
RMM:   4    -0.742082911301E+03   -0.39201E-05   -0.22954E-06  4334   0.353E-03    0.317E-02
RMM:   5    -0.742082907619E+03    0.36817E-05   -0.81285E-07  3035   0.315E-03    0.183E-02
RMM:   6    -0.742082907267E+03    0.35199E-06   -0.39901E-07  2131   0.293E-03    0.104E-02
RMM:   7    -0.742082907585E+03   -0.31746E-06   -0.62345E-07  2306   0.290E-03    0.797E-03
RMM:   8    -0.742082907693E+03   -0.10831E-06   -0.40811E-07  1587   0.278E-03
 174 F= -.74208291E+03 E0= -.74147351E+03  d E =-.101843E-03  mag=    -0.0000
 curvature:  -0.12 expect dE=-0.160E-03 dE for cont linesearch -0.454E-05
 ZBRENT: extrapolating
 opt :   0.1117  next Energy=  -742.082912 (dE=-0.107E-03)
 bond charge predicted
       N       E                     dE             d eps       ncg     rms          rms(c)
DAV:   1    -0.742082912794E+03   -0.52091E-05   -0.42441E-04 13088   0.307E-02    0.789E-03
RMM:   2    -0.742082916595E+03   -0.38006E-05   -0.10457E-05  7074   0.631E-03    0.213E-02
RMM:   3    -0.742082914396E+03    0.21984E-05   -0.11738E-06  3804   0.336E-03    0.169E-02
RMM:   4    -0.742082913684E+03    0.71263E-06   -0.46334E-08  1362   0.252E-03    0.105E-02
RMM:   5    -0.742082914285E+03   -0.60138E-06   -0.20228E-09  1016   0.247E-03    0.129E-02
RMM:   6    -0.742082913850E+03    0.43531E-06   -0.27812E-08  1020   0.250E-03    0.920E-03
RMM:   7    -0.742082913639E+03    0.21044E-06   -0.20307E-09   896   0.246E-03    0.501E-03
RMM:   8    -0.742082913671E+03   -0.32116E-07    0.00000E+00   774   0.244E-03
 175 F= -.74208291E+03 E0= -.74147352E+03  d E =-.107821E-03  mag=    -0.0000
 curvature:  -0.13 expect dE=-0.224E-03 dE for cont linesearch -0.393E-09
 trial: gam= 0.70266 g(F)=  0.176E-02 g(S)=  0.000E+00 ort = 0.364E-05 (trialstep = 0.400E-01)
 search vector abs. value=  0.389E-02
 bond charge predicted
       N       E                     dE             d eps       ncg     rms          rms(c)
DAV:   1    -0.742082954110E+03   -0.40471E-04   -0.10572E-03 13216   0.486E-02    0.838E-03
RMM:   2    -0.742082956423E+03   -0.23130E-05   -0.22254E-05  7058   0.897E-03    0.158E-02
RMM:   3    -0.742082955969E+03    0.45399E-06   -0.32305E-06  5916   0.446E-03    0.108E-02
RMM:   4    -0.742082956005E+03   -0.35354E-07   -0.68633E-08  1500   0.229E-03    0.102E-02
RMM:   5    -0.742082955669E+03    0.33521E-06   -0.34170E-08  1238   0.229E-03    0.729E-03
RMM:   6    -0.742082955788E+03   -0.11891E-06   -0.27968E-08  1048   0.228E-03    0.471E-03
RMM:   7    -0.742082955709E+03    0.79111E-07   -0.51788E-08   980   0.237E-03    0.290E-03
RMM:   8    -0.742082955765E+03   -0.55719E-07   -0.46342E-08   901   0.240E-03
 176 F= -.74208296E+03 E0= -.74147357E+03  d E =-.420936E-04  mag=    -0.0000
 trial-energy change:   -0.000042  1 .order   -0.000041   -0.000071   -0.000012
 step:   0.0480(harm=  0.0480)  dis= 0.00022  next Energy=  -742.082956 (dE=-0.424E-04)
 bond charge predicted
       N       E                     dE             d eps       ncg     rms          rms(c)
DAV:   1    -0.742082956773E+03   -0.10640E-05   -0.41754E-05  7712   0.100E-02    0.426E-03
RMM:   2    -0.742082957774E+03   -0.10009E-05   -0.24781E-06  4775   0.368E-03    0.118E-02
RMM:   3    -0.742082957406E+03    0.36843E-06   -0.69719E-08  1468   0.258E-03    0.995E-03
RMM:   4    -0.742082956763E+03    0.64292E-06   -0.25298E-09   876   0.248E-03    0.250E-03
RMM:   5    -0.742082956978E+03   -0.21515E-06    0.00000E+00   768   0.245E-03    0.301E-03
RMM:   6    -0.742082956956E+03    0.22294E-07    0.00000E+00   692   0.245E-03    0.196E-03
RMM:   7    -0.742082956977E+03   -0.21202E-07   -0.99128E-10   672   0.249E-03    0.135E-03
RMM:   8    -0.742082956991E+03   -0.13788E-07    0.00000E+00   674   0.249E-03
 177 F= -.74208296E+03 E0= -.74147357E+03  d E =-.433194E-04  mag=    -0.0000
 curvature:  -0.05 expect dE=-0.830E-04 dE for cont linesearch -0.650E-07
 trial: gam= 0.93398 g(F)=  0.157E-02 g(S)=  0.000E+00 ort =-0.691E-04 (trialstep = 0.335E-01)
 search vector abs. value=  0.483E-02
 bond charge predicted
       N       E                     dE             d eps       ncg     rms          rms(c)
DAV:   1    -0.742083000325E+03   -0.43348E-04   -0.79332E-04 12992   0.417E-02    0.780E-03
RMM:   2    -0.742083002450E+03   -0.21255E-05   -0.17511E-05  7066   0.838E-03    0.172E-02
RMM:   3    -0.742083001590E+03    0.85995E-06   -0.25651E-06  5528   0.411E-03    0.997E-03
RMM:   4    -0.742083001824E+03   -0.23377E-06   -0.12755E-08  1273   0.226E-03    0.936E-03
RMM:   5    -0.742083001782E+03    0.41960E-07   -0.41546E-08  1184   0.237E-03    0.989E-03
RMM:   6    -0.742083001567E+03    0.21476E-06   -0.78516E-08  1256   0.234E-03    0.586E-03
RMM:   7    -0.742083001538E+03    0.29046E-07   -0.50477E-08  1015   0.237E-03    0.395E-03
RMM:   8    -0.742083001517E+03    0.21661E-07   -0.37862E-08   834   0.240E-03
 178 F= -.74208300E+03 E0= -.74147361E+03  d E =-.445260E-04  mag=    -0.0000
 trial-energy change:   -0.000045  1 .order   -0.000043   -0.000050   -0.000035
 step:   0.1128(harm=  0.1128)  dis= 0.00062  next Energy=  -742.083042 (dE=-0.847E-04)
 bond charge predicted
       N       E                     dE             d eps       ncg     rms          rms(c)
DAV:   1    -0.742083030505E+03   -0.28967E-04   -0.43476E-03 13696   0.975E-02    0.187E-02
RMM:   2    -0.742083042819E+03   -0.12314E-04   -0.93232E-05  7142   0.190E-02    0.393E-02
RMM:   3    -0.742083039415E+03    0.34049E-05   -0.15667E-05  7082   0.940E-03    0.235E-02
RMM:   4    -0.742083041517E+03   -0.21027E-05   -0.43176E-06  5916   0.425E-03    0.296E-02
RMM:   5    -0.742083038349E+03    0.31684E-05   -0.15670E-06  4046   0.340E-03    0.198E-02
RMM:   6    -0.742083037890E+03    0.45940E-06   -0.55342E-07  2551   0.294E-03    0.861E-03
RMM:   7    -0.742083038305E+03   -0.41544E-06   -0.70705E-07  2572   0.294E-03    0.872E-03
RMM:   8    -0.742083037950E+03    0.35523E-06   -0.24269E-07  1644   0.273E-03
 179 F= -.74208304E+03 E0= -.74147364E+03  d E =-.809590E-04  mag=    -0.0000
 curvature:  -0.18 expect dE=-0.264E-03 dE for cont linesearch -0.571E-06
 trial: gam= 0.95374 g(F)=  0.146E-02 g(S)=  0.000E+00 ort =-0.123E-03 (trialstep = 0.424E-01)
 search vector abs. value=  0.562E-02
 bond charge predicted
       N       E                     dE             d eps       ncg     rms          rms(c)
DAV:   1    -0.742083077895E+03   -0.39590E-04   -0.13513E-03 13600   0.536E-02    0.110E-02
RMM:   2    -0.742083082275E+03   -0.43798E-05   -0.29284E-05  7140   0.104E-02    0.271E-02
RMM:   3    -0.742083080141E+03    0.21337E-05   -0.49126E-06  6723   0.532E-03    0.118E-02
RMM:   4    -0.742083082606E+03   -0.24648E-05   -0.16961E-07  1855   0.249E-03    0.219E-02
RMM:   5    -0.742083079737E+03    0.28692E-05   -0.12107E-07  1748   0.253E-03    0.895E-03
RMM:   6    -0.742083080137E+03   -0.40028E-06   -0.21509E-08  1130   0.242E-03    0.552E-03
RMM:   7    -0.742083080164E+03   -0.26572E-07   -0.47410E-09  1026   0.245E-03    0.344E-03
RMM:   8    -0.742083080215E+03   -0.51485E-07   -0.14167E-08   870   0.251E-03
 180 F= -.74208308E+03 E0= -.74147368E+03  d E =-.422657E-04  mag=    -0.0000
 trial-energy change:   -0.000042  1 .order   -0.000041   -0.000057   -0.000025
 step:   0.0752(harm=  0.0752)  dis= 0.00056  next Energy=  -742.083088 (dE=-0.505E-04)
 bond charge predicted
       N       E                     dE             d eps       ncg     rms          rms(c)
DAV:   1    -0.742083089338E+03   -0.91745E-05   -0.81009E-04 13408   0.414E-02    0.851E-03
RMM:   2    -0.742083091423E+03   -0.20843E-05   -0.18810E-05  7060   0.861E-03    0.169E-02
RMM:   3    -0.742083090466E+03    0.95627E-06   -0.28518E-06  5750   0.423E-03    0.680E-03
RMM:   4    -0.742083091707E+03   -0.12404E-05   -0.28439E-08  1464   0.239E-03    0.142E-02
RMM:   5    -0.742083091131E+03    0.57620E-06   -0.12571E-08  1247   0.238E-03    0.121E-02
RMM:   6    -0.742083090594E+03    0.53695E-06   -0.23855E-08  1172   0.228E-03    0.414E-03
RMM:   7    -0.742083090797E+03   -0.20355E-06   -0.18483E-08   956   0.228E-03    0.232E-03
RMM:   8    -0.742083090796E+03    0.14697E-08   -0.59236E-09   792   0.232E-03
 181 F= -.74208309E+03 E0= -.74147369E+03  d E =-.528461E-04  mag=    -0.0000
 curvature:  -0.16 expect dE=-0.181E-03 dE for cont linesearch -0.174E-09
 trial: gam= 0.56569 g(F)=  0.115E-02 g(S)=  0.000E+00 ort = 0.249E-05 (trialstep = 0.490E-01)
 search vector abs. value=  0.295E-02
 bond charge predicted
       N       E                     dE             d eps       ncg     rms          rms(c)
DAV:   1    -0.742083122297E+03   -0.31500E-04   -0.95085E-04 13376   0.470E-02    0.805E-03
RMM:   2    -0.742083124632E+03   -0.23347E-05   -0.20871E-05  7080   0.907E-03    0.208E-02
RMM:   3    -0.742083123848E+03    0.78401E-06   -0.31105E-06  6076   0.434E-03    0.112E-02
RMM:   4    -0.742083126724E+03   -0.28755E-05   -0.64104E-08  1493   0.230E-03    0.220E-02
RMM:   5    -0.742083123318E+03    0.34059E-05   -0.20377E-08  1397   0.226E-03    0.867E-03
RMM:   6    -0.742083123991E+03   -0.67354E-06   -0.64707E-09  1032   0.221E-03    0.652E-03
RMM:   7    -0.742083124057E+03   -0.65396E-07   -0.13753E-08   872   0.228E-03    0.603E-03
RMM:   8    -0.742083124015E+03    0.42055E-07   -0.22233E-08   873   0.233E-03
 182 F= -.74208312E+03 E0= -.74147373E+03  d E =-.332188E-04  mag=    -0.0000
 trial-energy change:   -0.000033  1 .order   -0.000033   -0.000056   -0.000009
 step:   0.0586(harm=  0.0586)  dis= 0.00037  next Energy=  -742.083124 (dE=-0.337E-04)
 reached required accuracy - stopping structural energy minimisation
 writing wavefunctions
