       N       E                     dE             d eps       ncg     rms          rms(c)
DAV:   1     0.901836598974E+04    0.90184E+04   -0.34265E+05 24880   0.112E+03
DAV:   2     0.777852656579E+03   -0.82405E+04   -0.74250E+04 31136   0.304E+02
DAV:   3    -0.911288135007E+03   -0.16891E+04   -0.16668E+04 29568   0.149E+02
DAV:   4    -0.995944691775E+03   -0.84657E+02   -0.84077E+02 33408   0.410E+01
DAV:   5    -0.999306822753E+03   -0.33621E+01   -0.33529E+01 39952   0.648E+00    0.176E+02
RMM:   6    -0.944148622427E+03    0.55158E+02   -0.27755E+03 27031   0.917E+01    0.354E+02
RMM:   7    -0.730810152404E+03    0.21334E+03   -0.33188E+02 24334   0.305E+01    0.211E+02
RMM:   8    -0.907362746762E+03   -0.17655E+03   -0.31112E+02 24394   0.278E+01    0.215E+02
RMM:   9    -0.661449623461E+03    0.24591E+03   -0.16167E+02 24326   0.205E+01    0.145E+02
RMM:  10    -0.556698529880E+03    0.10475E+03   -0.78558E+01 24358   0.151E+01    0.836E+01
RMM:  11    -0.533206029885E+03    0.23492E+02   -0.28771E+01 24382   0.826E+00    0.799E+01
RMM:  12    -0.529847896769E+03    0.33581E+01   -0.15431E+01 24594   0.639E+00    0.749E+01
RMM:  13    -0.522804933621E+03    0.70430E+01   -0.16240E+01 24538   0.646E+00    0.637E+01
RMM:  14    -0.515623170387E+03    0.71818E+01   -0.13123E+01 24769   0.595E+00    0.529E+01
RMM:  15    -0.499997097543E+03    0.15626E+02   -0.96226E+00 24360   0.491E+00    0.450E+01
RMM:  16    -0.490696334114E+03    0.93008E+01   -0.44844E+00 24559   0.338E+00    0.389E+01
RMM:  17    -0.482240593453E+03    0.84557E+01   -0.27115E+00 25053   0.248E+00    0.363E+01
RMM:  18    -0.472548160942E+03    0.96924E+01   -0.26437E+00 25166   0.247E+00    0.347E+01
RMM:  19    -0.464989892202E+03    0.75583E+01   -0.20445E+00 25071   0.228E+00    0.323E+01
RMM:  20    -0.458940836726E+03    0.60491E+01   -0.17745E+00 25483   0.200E+00    0.308E+01
RMM:  21    -0.456147899002E+03    0.27929E+01   -0.10609E+00 25183   0.168E+00    0.295E+01
RMM:  22    -0.453559736619E+03    0.25882E+01   -0.12502E+00 26075   0.165E+00    0.283E+01
RMM:  23    -0.456921306597E+03   -0.33616E+01   -0.12123E+00 26557   0.168E+00    0.280E+01
RMM:  24    -0.464332664554E+03   -0.74114E+01   -0.16044E+00 27717   0.188E+00    0.269E+01
RMM:  25    -0.472910848504E+03   -0.85782E+01   -0.17219E+00 27780   0.194E+00    0.262E+01
RMM:  26    -0.485378987486E+03   -0.12468E+02   -0.19964E+00 27993   0.208E+00    0.258E+01
RMM:  27    -0.501792578767E+03   -0.16414E+02   -0.34178E+00 29598   0.254E+00    0.255E+01
RMM:  28    -0.518130907632E+03   -0.16338E+02   -0.39528E+00 31183   0.265E+00    0.245E+01
RMM:  29    -0.539691799424E+03   -0.21561E+02   -0.70519E+00 33002   0.331E+00    0.235E+01
RMM:  30    -0.558937458775E+03   -0.19246E+02   -0.71331E+00 33046   0.325E+00    0.228E+01
RMM:  31    -0.580020488723E+03   -0.21083E+02   -0.83061E+00 33567   0.344E+00    0.227E+01
RMM:  32    -0.595418271830E+03   -0.15398E+02   -0.62717E+00 33638   0.320E+00    0.221E+01
RMM:  33    -0.609442150265E+03   -0.14024E+02   -0.72393E+00 34111   0.328E+00    0.211E+01
RMM:  34    -0.619742997801E+03   -0.10301E+02   -0.73896E+00 34668   0.322E+00    0.191E+01
RMM:  35    -0.623612140672E+03   -0.38691E+01   -0.17189E+00 30850   0.171E+00    0.176E+01
RMM:  36    -0.626643265668E+03   -0.30311E+01   -0.89716E-01 29186   0.137E+00    0.167E+01
RMM:  37    -0.629002086161E+03   -0.23588E+01   -0.60978E-01 27827   0.114E+00    0.150E+01
RMM:  38    -0.631985680218E+03   -0.29836E+01   -0.51444E-01 28335   0.100E+00    0.146E+01
RMM:  39    -0.635371540812E+03   -0.33859E+01   -0.65224E-01 29730   0.110E+00    0.139E+01
RMM:  40    -0.641253406386E+03   -0.58819E+01   -0.12415E+00 32051   0.141E+00    0.139E+01
RMM:  41    -0.645106018902E+03   -0.38526E+01   -0.16155E+00 32997   0.154E+00    0.143E+01
RMM:  42    -0.646868776650E+03   -0.17628E+01   -0.87731E-01 30754   0.110E+00    0.140E+01
RMM:  43    -0.648773399381E+03   -0.19046E+01   -0.61192E-01 29807   0.878E-01    0.144E+01
RMM:  44    -0.650430733583E+03   -0.16573E+01   -0.77353E-01 30792   0.101E+00    0.149E+01
RMM:  45    -0.652244922028E+03   -0.18142E+01   -0.74399E-01 31196   0.102E+00    0.153E+01
RMM:  46    -0.655376163812E+03   -0.31312E+01   -0.75236E-01 31202   0.106E+00    0.149E+01
RMM:  47    -0.658103607491E+03   -0.27274E+01   -0.67815E-01 31302   0.977E-01    0.139E+01
RMM:  48    -0.659948441829E+03   -0.18448E+01   -0.56709E-01 30178   0.872E-01    0.125E+01
RMM:  49    -0.661984326349E+03   -0.20359E+01   -0.38715E-01 29328   0.689E-01    0.114E+01
RMM:  50    -0.663590023473E+03   -0.16057E+01   -0.31231E-01 29724   0.681E-01    0.969E+00
RMM:  51    -0.663714288142E+03   -0.12426E+00   -0.69865E-01 34613   0.116E+00    0.625E+00
RMM:  52    -0.665310248964E+03   -0.15960E+01   -0.38981E-01 31104   0.763E-01    0.549E+00
RMM:  53    -0.666931469394E+03   -0.16212E+01   -0.31647E-01 29666   0.640E-01    0.519E+00
RMM:  54    -0.669088123301E+03   -0.21567E+01   -0.25444E-01 29217   0.527E-01    0.414E+00
RMM:  55    -0.669687483635E+03   -0.59936E+00   -0.76081E-02 26480   0.376E-01    0.355E+00
RMM:  56    -0.670036654839E+03   -0.34917E+00   -0.16918E-01 29059   0.423E-01    0.335E+00
RMM:  57    -0.669863424137E+03    0.17323E+00   -0.37441E-02 25527   0.272E-01    0.287E+00
RMM:  58    -0.669649078663E+03    0.21435E+00   -0.39006E-02 26698   0.275E-01    0.269E+00
RMM:  59    -0.669610255955E+03    0.38823E-01   -0.36439E-02 27257   0.265E-01    0.246E+00
RMM:  60    -0.669756200855E+03   -0.14594E+00   -0.40579E-02 27600   0.264E-01    0.226E+00
RMM:  61    -0.669827699802E+03   -0.71499E-01   -0.34892E-02 27550   0.277E-01    0.195E+00
RMM:  62    -0.669842503484E+03   -0.14804E-01   -0.19407E-02 26295   0.202E-01    0.156E+00
RMM:  63    -0.669997078496E+03   -0.15458E+00   -0.80781E-03 24652   0.122E-01    0.138E+00
RMM:  64    -0.670092623457E+03   -0.95545E-01   -0.77843E-03 25251   0.123E-01    0.129E+00
RMM:  65    -0.670177342391E+03   -0.84719E-01   -0.64882E-03 25226   0.109E-01    0.120E+00
RMM:  66    -0.670248594312E+03   -0.71252E-01   -0.34975E-03 24025   0.861E-02    0.116E+00
RMM:  67    -0.670309638758E+03   -0.61044E-01   -0.35488E-03 24733   0.741E-02    0.109E+00
RMM:  68    -0.670417480354E+03   -0.10784E+00   -0.38738E-03 26063   0.679E-02    0.107E+00
RMM:  69    -0.670472946980E+03   -0.55467E-01   -0.37230E-03 26116   0.663E-02    0.103E+00
RMM:  70    -0.670411015534E+03    0.61931E-01   -0.35454E-03 25840   0.638E-02    0.997E-01
RMM:  71    -0.670260672979E+03    0.15034E+00   -0.39825E-03 26482   0.635E-02    0.973E-01
RMM:  72    -0.670186884379E+03    0.73789E-01   -0.38600E-03 27357   0.689E-02    0.952E-01
RMM:  73    -0.670482959150E+03   -0.29607E+00   -0.28940E-03 26325   0.673E-02    0.903E-01
RMM:  74    -0.670444420435E+03    0.38539E-01   -0.35778E-03 28382   0.754E-02    0.839E-01
RMM:  75    -0.670430796889E+03    0.13624E-01   -0.26064E-03 26943   0.707E-02    0.761E-01
RMM:  76    -0.670426259373E+03    0.45375E-02   -0.20977E-03 26036   0.657E-02    0.687E-01
RMM:  77    -0.670401322987E+03    0.24936E-01   -0.45773E-03 29391   0.854E-02    0.630E-01
RMM:  78    -0.670383651878E+03    0.17671E-01   -0.31612E-03 27737   0.661E-02    0.457E-01
RMM:  79    -0.670475922119E+03   -0.92270E-01   -0.40561E-03 27919   0.682E-02    0.394E-01
RMM:  80    -0.670533488890E+03   -0.57567E-01   -0.27544E-03 25152   0.565E-02
   1 F= -.67053349E+03 E0= -.67012149E+03  d E =-.670533E+03  mag=    80.1867
       N       E                     dE             d eps       ncg     rms          rms(c)
DAV:   1    -0.668401825949E+03    0.20741E+01   -0.34251E+02 27520   0.162E+01    0.726E+00
RMM:   2    -0.669528560177E+03   -0.11267E+01   -0.14662E+01 24322   0.291E+00    0.450E+00
RMM:   3    -0.669781677851E+03   -0.25312E+00   -0.19706E+00 24560   0.137E+00    0.448E+00
RMM:   4    -0.669754743290E+03    0.26935E-01   -0.25660E-01 24706   0.772E-01    0.288E+00
RMM:   5    -0.669793611760E+03   -0.38868E-01   -0.99941E-02 24225   0.346E-01    0.207E+00
RMM:   6    -0.669843602689E+03   -0.49991E-01   -0.50862E-02 24176   0.321E-01    0.213E+00
RMM:   7    -0.669875840702E+03   -0.32238E-01   -0.24705E-02 23987   0.212E-01    0.950E-01
RMM:   8    -0.669896740865E+03   -0.20900E-01   -0.10469E-02 23531   0.139E-01    0.661E-01
RMM:   9    -0.669912346073E+03   -0.15605E-01   -0.44556E-03 22763   0.985E-02    0.380E-01
RMM:  10    -0.669925961968E+03   -0.13616E-01   -0.18760E-03 24438   0.556E-02    0.200E-01
RMM:  11    -0.669939893327E+03   -0.13931E-01   -0.77792E-04 23785   0.305E-02    0.158E-01
RMM:  12    -0.669951695096E+03   -0.11802E-01   -0.34654E-04 20090   0.215E-02    0.138E-01
RMM:  13    -0.669966454500E+03   -0.14759E-01   -0.21674E-04 17878   0.191E-02    0.126E-01
RMM:  14    -0.669977860617E+03   -0.11406E-01   -0.16391E-04 16361   0.163E-02    0.110E-01
RMM:  15    -0.669988537602E+03   -0.10677E-01   -0.13369E-04 16031   0.139E-02    0.106E-01
RMM:  16    -0.669994902443E+03   -0.63648E-02   -0.94511E-05 14637   0.117E-02    0.991E-02
RMM:  17    -0.670001997866E+03   -0.70954E-02   -0.16272E-04 16233   0.132E-02    0.906E-02
RMM:  18    -0.670011051838E+03   -0.90540E-02   -0.19588E-04 16461   0.130E-02    0.876E-02
RMM:  19    -0.670022952044E+03   -0.11900E-01   -0.14628E-04 15811   0.118E-02    0.841E-02
RMM:  20    -0.670032344713E+03   -0.93927E-02   -0.83938E-05 14339   0.100E-02    0.809E-02
RMM:  21    -0.670043663378E+03   -0.11319E-01   -0.70611E-05 14440   0.900E-03    0.771E-02
RMM:  22    -0.670060318661E+03   -0.16655E-01   -0.99377E-05 15163   0.999E-03    0.734E-02
RMM:  23    -0.670074125987E+03   -0.13807E-01   -0.69728E-05 14706   0.952E-03    0.701E-02
RMM:  24    -0.670086549577E+03   -0.12424E-01   -0.47110E-05 13861   0.842E-03    0.641E-02
RMM:  25    -0.670107071884E+03   -0.20522E-01   -0.54173E-05 14302   0.815E-03    0.598E-02
RMM:  26    -0.670133945993E+03   -0.26874E-01   -0.75846E-05 14264   0.876E-03    0.581E-02
RMM:  27    -0.670151705983E+03   -0.17760E-01   -0.57267E-05 13767   0.791E-03    0.518E-02
RMM:  28    -0.670161166898E+03   -0.94609E-02   -0.32887E-05 12941   0.665E-03    0.480E-02
RMM:  29    -0.670173757817E+03   -0.12591E-01   -0.48233E-05 13354   0.649E-03    0.433E-02
RMM:  30    -0.670183794430E+03   -0.10037E-01   -0.63087E-05 13783   0.660E-03    0.406E-02
RMM:  31    -0.670193767827E+03   -0.99734E-02   -0.37322E-05 13117   0.615E-03    0.375E-02
RMM:  32    -0.670202263611E+03   -0.84958E-02   -0.24604E-05 12773   0.555E-03    0.350E-02
RMM:  33    -0.670211320768E+03   -0.90572E-02   -0.19994E-05 12616   0.507E-03    0.326E-02
RMM:  34    -0.670224415596E+03   -0.13095E-01   -0.25083E-05 12961   0.533E-03    0.302E-02
RMM:  35    -0.670235328299E+03   -0.10913E-01   -0.17695E-05 12560   0.483E-03    0.274E-02
RMM:  36    -0.670246012426E+03   -0.10684E-01   -0.16626E-05 12451   0.464E-03    0.251E-02
RMM:  37    -0.670252550918E+03   -0.65385E-02   -0.10625E-05 11326   0.402E-03    0.219E-02
RMM:  38    -0.670258617240E+03   -0.60663E-02   -0.10422E-05 11558   0.385E-03    0.210E-02
RMM:  39    -0.670263652695E+03   -0.50355E-02   -0.10563E-05 11744   0.388E-03    0.183E-02
RMM:  40    -0.670266868207E+03   -0.32155E-02   -0.80212E-06 11628   0.371E-03    0.169E-02
RMM:  41    -0.670269111577E+03   -0.22434E-02   -0.49947E-06 10291   0.322E-03    0.134E-02
RMM:  42    -0.670271286384E+03   -0.21748E-02   -0.42533E-06 10356   0.307E-03    0.130E-02
RMM:  43    -0.670273154279E+03   -0.18679E-02   -0.46482E-06 10267   0.297E-03    0.106E-02
RMM:  44    -0.670274879047E+03   -0.17248E-02   -0.55683E-06 10644   0.307E-03    0.101E-02
RMM:  45    -0.670275944163E+03   -0.10651E-02   -0.23260E-06  9028   0.266E-03    0.812E-03
RMM:  46    -0.670276985778E+03   -0.10416E-02   -0.22058E-06  8616   0.255E-03    0.719E-03
RMM:  47    -0.670277719587E+03   -0.73381E-03   -0.21506E-06  8700   0.253E-03    0.605E-03
RMM:  48    -0.670278384008E+03   -0.66442E-03   -0.37040E-06  9427   0.268E-03    0.486E-03
RMM:  49    -0.670278545611E+03   -0.16160E-03   -0.17156E-06  7779   0.236E-03    0.358E-03
RMM:  50    -0.670278570130E+03   -0.24519E-04   -0.12246E-06  7288   0.227E-03
   2 F= -.67027857E+03 E0= -.66986464E+03  d E =0.254919E+00  mag=    79.9798
       N       E                     dE             d eps       ncg     rms          rms(c)
DAV:   1    -0.670943130720E+03   -0.66459E+00   -0.10544E+02 26976   0.812E+00    0.393E+00
RMM:   2    -0.671117660042E+03   -0.17453E+00   -0.32821E+00 24320   0.142E+00    0.228E+00
RMM:   3    -0.671183780563E+03   -0.66121E-01   -0.48303E-01 24442   0.589E-01    0.169E+00
RMM:   4    -0.671192322429E+03   -0.85419E-02   -0.57868E-02 24029   0.343E-01    0.152E+00
RMM:   5    -0.671199392829E+03   -0.70704E-02   -0.25348E-02 23141   0.219E-01    0.791E-01
RMM:   6    -0.671205808049E+03   -0.64152E-02   -0.11242E-02 23468   0.130E-01    0.729E-01
RMM:   7    -0.671206678928E+03   -0.87088E-03   -0.52082E-03 23140   0.103E-01    0.571E-01
RMM:   8    -0.671207002076E+03   -0.32315E-03   -0.20688E-03 22851   0.634E-02    0.258E-01
RMM:   9    -0.671207802149E+03   -0.80007E-03   -0.78144E-04 21733   0.342E-02    0.175E-01
RMM:  10    -0.671208301381E+03   -0.49923E-03   -0.34379E-04 18004   0.260E-02    0.957E-02
RMM:  11    -0.671209042730E+03   -0.74135E-03   -0.16223E-04 15440   0.155E-02    0.556E-02
RMM:  12    -0.671209469516E+03   -0.42679E-03   -0.77191E-05 14020   0.124E-02    0.447E-02
RMM:  13    -0.671209883566E+03   -0.41405E-03   -0.40815E-05 13373   0.852E-03    0.284E-02
RMM:  14    -0.671210180082E+03   -0.29652E-03   -0.23462E-05 12767   0.661E-03    0.219E-02
RMM:  15    -0.671210523446E+03   -0.34336E-03   -0.17420E-05 12504   0.538E-03    0.173E-02
RMM:  16    -0.671210833779E+03   -0.31033E-03   -0.14062E-05 12196   0.473E-03    0.149E-02
RMM:  17    -0.671211118288E+03   -0.28451E-03   -0.12650E-05 11951   0.437E-03    0.120E-02
RMM:  18    -0.671211324189E+03   -0.20590E-03   -0.90242E-06 11004   0.374E-03    0.988E-03
RMM:  19    -0.671211498070E+03   -0.17388E-03   -0.73853E-06 10877   0.347E-03    0.891E-03
RMM:  20    -0.671211667790E+03   -0.16972E-03   -0.75585E-06 10588   0.329E-03    0.779E-03
RMM:  21    -0.671211839744E+03   -0.17195E-03   -0.90120E-06 11204   0.346E-03    0.788E-03
RMM:  22    -0.671211949967E+03   -0.11022E-03   -0.54949E-06  9902   0.303E-03    0.605E-03
RMM:  23    -0.671212040293E+03   -0.90325E-04   -0.48707E-06  9967   0.295E-03
   3 F= -.67121204E+03 E0= -.67079912E+03  d E =-.678551E+00  mag=    79.9794
       N       E                     dE             d eps       ncg     rms          rms(c)
DAV:   1    -0.670960671668E+03    0.25128E+00   -0.57747E+01 25776   0.637E+00    0.319E+00
RMM:   2    -0.671039847390E+03   -0.79176E-01   -0.17326E+00 24320   0.111E+00    0.190E+00
RMM:   3    -0.671087344930E+03   -0.47498E-01   -0.24988E-01 24456   0.541E-01    0.225E+00
RMM:   4    -0.671072353882E+03    0.14991E-01   -0.44268E-02 24370   0.329E-01    0.106E+00
RMM:   5    -0.671073581263E+03   -0.12274E-02   -0.15916E-02 23644   0.141E-01    0.625E-01
RMM:   6    -0.671075485582E+03   -0.19043E-02   -0.62889E-03 23238   0.109E-01    0.740E-01
RMM:   7    -0.671073497303E+03    0.19883E-02   -0.32398E-03 22776   0.888E-02    0.462E-01
RMM:   8    -0.671072751207E+03    0.74610E-03   -0.13935E-03 22241   0.471E-02    0.231E-01
RMM:   9    -0.671073133899E+03   -0.38269E-03   -0.52242E-04 20009   0.339E-02    0.135E-01
RMM:  10    -0.671073701225E+03   -0.56733E-03   -0.20849E-04 16687   0.197E-02    0.504E-02
RMM:  11    -0.671074399448E+03   -0.69822E-03   -0.74867E-05 14586   0.112E-02    0.389E-02
RMM:  12    -0.671074864655E+03   -0.46521E-03   -0.38573E-05 13651   0.922E-03    0.352E-02
RMM:  13    -0.671075327623E+03   -0.46297E-03   -0.23805E-05 13110   0.732E-03    0.256E-02
RMM:  14    -0.671075623366E+03   -0.29574E-03   -0.13558E-05 12392   0.568E-03    0.180E-02
RMM:  15    -0.671075833704E+03   -0.21034E-03   -0.71026E-06 11573   0.423E-03    0.149E-02
RMM:  16    -0.671075995092E+03   -0.16139E-03   -0.39595E-06 10571   0.332E-03    0.128E-02
RMM:  17    -0.671076239908E+03   -0.24482E-03   -0.31591E-06 10361   0.307E-03    0.114E-02
RMM:  18    -0.671076494485E+03   -0.25458E-03   -0.26995E-06 10041   0.288E-03    0.108E-02
RMM:  19    -0.671076717706E+03   -0.22322E-03   -0.23125E-06  9809   0.280E-03    0.104E-02
RMM:  20    -0.671076932065E+03   -0.21436E-03   -0.18519E-06  8855   0.260E-03    0.952E-03
RMM:  21    -0.671077152053E+03   -0.21999E-03   -0.18560E-06  8894   0.259E-03    0.915E-03
RMM:  22    -0.671077413260E+03   -0.26121E-03   -0.26500E-06  9425   0.269E-03    0.898E-03
RMM:  23    -0.671077615621E+03   -0.20236E-03   -0.19136E-06  8592   0.252E-03    0.837E-03
RMM:  24    -0.671077800933E+03   -0.18531E-03   -0.14998E-06  8006   0.241E-03    0.817E-03
RMM:  25    -0.671078005064E+03   -0.20413E-03   -0.12569E-06  7661   0.239E-03    0.773E-03
RMM:  26    -0.671078289729E+03   -0.28466E-03   -0.22907E-06  8652   0.252E-03    0.748E-03
RMM:  27    -0.671078545803E+03   -0.25607E-03   -0.16954E-06  7718   0.237E-03    0.704E-03
RMM:  28    -0.671078817957E+03   -0.27215E-03   -0.25378E-06  8223   0.245E-03    0.654E-03
RMM:  29    -0.671079041710E+03   -0.22375E-03   -0.14190E-06  7141   0.229E-03    0.611E-03
RMM:  30    -0.671079326900E+03   -0.28519E-03   -0.24303E-06  7806   0.238E-03    0.569E-03
RMM:  31    -0.671079639059E+03   -0.31216E-03   -0.26898E-06  8118   0.246E-03    0.511E-03
RMM:  32    -0.671079891897E+03   -0.25284E-03   -0.20908E-06  7830   0.243E-03    0.470E-03
RMM:  33    -0.671080091063E+03   -0.19917E-03   -0.13200E-06  7263   0.235E-03    0.423E-03
RMM:  34    -0.671080324444E+03   -0.23338E-03   -0.14917E-06  7589   0.242E-03    0.348E-03
RMM:  35    -0.671080513836E+03   -0.18939E-03   -0.11269E-06  7260   0.236E-03    0.295E-03
RMM:  36    -0.671080638739E+03   -0.12490E-03   -0.64532E-07  6477   0.222E-03    0.243E-03
RMM:  37    -0.671080708056E+03   -0.69317E-04   -0.23155E-07  5734   0.211E-03
   4 F= -.67108071E+03 E0= -.67066565E+03  d E =0.131332E+00  mag=    80.0204
       N       E                     dE             d eps       ncg     rms          rms(c)
DAV:   1    -0.671260829048E+03   -0.18019E+00   -0.23004E+01 25536   0.387E+00    0.191E+00
RMM:   2    -0.671282609892E+03   -0.21781E-01   -0.55841E-01 24332   0.683E-01    0.116E+00
RMM:   3    -0.671298938968E+03   -0.16329E-01   -0.71985E-02 24348   0.306E-01    0.124E+00
RMM:   4    -0.671296004103E+03    0.29349E-02   -0.15912E-02 23404   0.198E-01    0.693E-01
RMM:   5    -0.671297906418E+03   -0.19023E-02   -0.56130E-03 22877   0.994E-02    0.436E-01
RMM:   6    -0.671298718926E+03   -0.81251E-03   -0.21829E-03 22613   0.651E-02    0.452E-01
RMM:   7    -0.671298052983E+03    0.66594E-03   -0.11951E-03 21678   0.514E-02    0.253E-01
RMM:   8    -0.671298074706E+03   -0.21723E-04   -0.54282E-04 19564   0.315E-02
   5 F= -.67129807E+03 E0= -.67088421E+03  d E =-.860344E-01  mag=    80.0193
       N       E                     dE             d eps       ncg     rms          rms(c)
DAV:   1    -0.671293925284E+03    0.41277E-02   -0.67387E-01 26512   0.687E-01    0.333E-01
RMM:   2    -0.671294137992E+03   -0.21271E-03   -0.15977E-02 23302   0.124E-01    0.255E-01
RMM:   3    -0.671294713374E+03   -0.57538E-03   -0.22162E-03 21511   0.632E-02    0.246E-01
RMM:   4    -0.671294691796E+03    0.21577E-04   -0.55766E-04 19113   0.381E-02    0.109E-01
RMM:   5    -0.671294982395E+03   -0.29060E-03   -0.17097E-04 15461   0.174E-02    0.111E-01
RMM:   6    -0.671295047309E+03   -0.64915E-04   -0.84787E-05 14294   0.139E-02    0.809E-02
RMM:   7    -0.671295109381E+03   -0.62072E-04   -0.43623E-05 13590   0.105E-02    0.349E-02
RMM:   8    -0.671295203270E+03   -0.93889E-04   -0.22215E-05 12471   0.764E-03
   6 F= -.67129520E+03 E0= -.67088163E+03  d E =-.831630E-01  mag=    80.0178
       N       E                     dE             d eps       ncg     rms          rms(c)
DAV:   1    -0.671302752072E+03   -0.76427E-02   -0.21907E-01 26384   0.387E-01    0.196E-01
RMM:   2    -0.671303361733E+03   -0.60966E-03   -0.54086E-03 21493   0.680E-02    0.126E-01
RMM:   3    -0.671303696547E+03   -0.33481E-03   -0.70198E-04 18155   0.335E-02    0.148E-01
RMM:   4    -0.671303706535E+03   -0.99880E-05   -0.20310E-04 15302   0.226E-02    0.672E-02
RMM:   5    -0.671303818008E+03   -0.11147E-03   -0.51624E-05 13197   0.997E-03    0.421E-02
RMM:   6    -0.671303918028E+03   -0.10002E-03   -0.22114E-05 12685   0.719E-03    0.480E-02
RMM:   7    -0.671303983313E+03   -0.65285E-04   -0.12403E-05 12283   0.597E-03    0.255E-02
RMM:   8    -0.671304041786E+03   -0.58473E-04   -0.47225E-06 10897   0.372E-03
   7 F= -.67130404E+03 E0= -.67089033E+03  d E =-.920015E-01  mag=    80.0167
       N       E                     dE             d eps       ncg     rms          rms(c)
DAV:   1    -0.671367720435E+03   -0.63737E-01   -0.13665E+01 25184   0.371E+00    0.117E+00
RMM:   2    -0.671398057501E+03   -0.30337E-01   -0.33941E-01 24320   0.697E-01    0.757E-01
RMM:   3    -0.671409811073E+03   -0.11754E-01   -0.54686E-02 24283   0.291E-01    0.112E+00
RMM:   4    -0.671404585066E+03    0.52260E-02   -0.95167E-03 23795   0.158E-01    0.458E-01
RMM:   5    -0.671405523825E+03   -0.93876E-03   -0.35112E-03 22995   0.805E-02    0.435E-01
RMM:   6    -0.671405251912E+03    0.27191E-03   -0.15460E-03 22009   0.628E-02    0.258E-01
RMM:   7    -0.671405645001E+03   -0.39309E-03   -0.10914E-03 20988   0.429E-02    0.181E-01
RMM:   8    -0.671405733082E+03   -0.88080E-04   -0.36875E-04 18505   0.291E-02
   8 F= -.67140573E+03 E0= -.67099176E+03  d E =-.101691E+00  mag=    80.0167
       N       E                     dE             d eps       ncg     rms          rms(c)
DAV:   1    -0.671418831880E+03   -0.13187E-01   -0.90419E-01 27344   0.962E-01    0.303E-01
RMM:   2    -0.671421225660E+03   -0.23938E-02   -0.22035E-02 23994   0.182E-01    0.248E-01
RMM:   3    -0.671422046043E+03   -0.82038E-03   -0.34129E-03 22422   0.796E-02    0.299E-01
RMM:   4    -0.671421846501E+03    0.19954E-03   -0.81030E-04 20397   0.456E-02    0.135E-01
RMM:   5    -0.671421986992E+03   -0.14049E-03   -0.27222E-04 17264   0.238E-02    0.119E-01
RMM:   6    -0.671422052617E+03   -0.65625E-04   -0.12321E-04 14765   0.183E-02    0.795E-02
RMM:   7    -0.671422124501E+03   -0.71884E-04   -0.68984E-05 13653   0.119E-02    0.409E-02
RMM:   8    -0.671422190466E+03   -0.65966E-04   -0.19723E-05 12638   0.717E-03
   9 F= -.67142219E+03 E0= -.67100816E+03  d E =-.118149E+00  mag=    80.0164
       N       E                     dE             d eps       ncg     rms          rms(c)
DAV:   1    -0.671484069175E+03   -0.61945E-01   -0.68664E+00 25648   0.246E+00    0.838E-01
RMM:   2    -0.671494784631E+03   -0.10715E-01   -0.15680E-01 24320   0.411E-01    0.478E-01
RMM:   3    -0.671499546969E+03   -0.47623E-02   -0.21600E-02 23950   0.173E-01    0.600E-01
RMM:   4    -0.671498528987E+03    0.10180E-02   -0.39654E-03 22835   0.970E-02    0.321E-01
RMM:   5    -0.671498925515E+03   -0.39653E-03   -0.14267E-03 22059   0.518E-02    0.264E-01
RMM:   6    -0.671498955729E+03   -0.30214E-04   -0.71852E-04 21305   0.381E-02    0.223E-01
RMM:   7    -0.671498967481E+03   -0.11752E-04   -0.40684E-04 18804   0.283E-02    0.115E-01
RMM:   8    -0.671498982954E+03   -0.15473E-04   -0.15056E-04 15730   0.171E-02
  10 F= -.67149898E+03 E0= -.67108521E+03  d E =-.767925E-01  mag=    80.0159
       N       E                     dE             d eps       ncg     rms          rms(c)
DAV:   1    -0.671499096375E+03   -0.12889E-03   -0.59226E-03 27056   0.810E-02    0.414E-02
RMM:   2    -0.671499205666E+03   -0.10929E-03   -0.18731E-04 15288   0.187E-02    0.729E-02
RMM:   3    -0.671499213510E+03   -0.78436E-05   -0.49219E-05 13471   0.123E-02    0.254E-02
RMM:   4    -0.671499253211E+03   -0.39701E-04   -0.99191E-06 12170   0.508E-03    0.222E-02
RMM:   5    -0.671499281163E+03   -0.27953E-04   -0.39403E-06 10820   0.340E-03    0.137E-02
RMM:   6    -0.671499318528E+03   -0.37365E-04   -0.30459E-06  9684   0.293E-03    0.104E-02
RMM:   7    -0.671499342418E+03   -0.23889E-04   -0.16555E-06  8182   0.259E-03    0.617E-03
RMM:   8    -0.671499355425E+03   -0.13007E-04   -0.83236E-07  7010   0.236E-03
  11 F= -.67149936E+03 E0= -.67108560E+03  d E =-.771650E-01  mag=    80.0153
       N       E                     dE             d eps       ncg     rms          rms(c)
DAV:   1    -0.671530873952E+03   -0.31532E-01   -0.29264E+00 25504   0.172E+00    0.588E-01
RMM:   2    -0.671535152889E+03   -0.42789E-02   -0.65049E-02 24173   0.304E-01    0.376E-01
RMM:   3    -0.671537540936E+03   -0.23880E-02   -0.10863E-02 23181   0.133E-01    0.470E-01
RMM:   4    -0.671536902015E+03    0.63892E-03   -0.22949E-03 21710   0.750E-02    0.182E-01
RMM:   5    -0.671537106118E+03   -0.20410E-03   -0.87457E-04 20197   0.381E-02    0.176E-01
RMM:   6    -0.671537018149E+03    0.87969E-04   -0.32137E-04 17644   0.258E-02    0.112E-01
RMM:   7    -0.671536991188E+03    0.26961E-04   -0.20237E-04 16339   0.211E-02    0.107E-01
RMM:   8    -0.671536881814E+03    0.10937E-03   -0.77891E-05 14113   0.134E-02    0.581E-02
RMM:   9    -0.671536817402E+03    0.64413E-04   -0.25767E-05 13048   0.787E-03
  12 F= -.67153682E+03 E0= -.67112321E+03  d E =-.374620E-01  mag=    80.0144
       N       E                     dE             d eps       ncg     rms          rms(c)
DAV:   1    -0.671537667539E+03   -0.78573E-03   -0.45633E-02 27024   0.216E-01    0.757E-02
RMM:   2    -0.671537712313E+03   -0.44774E-04   -0.10263E-03 18976   0.386E-02    0.578E-02
RMM:   3    -0.671537735795E+03   -0.23481E-04   -0.16378E-04 14850   0.182E-02    0.627E-02
RMM:   4    -0.671537713610E+03    0.22185E-04   -0.42718E-05 13145   0.110E-02    0.315E-02
RMM:   5    -0.671537692720E+03    0.20890E-04   -0.12142E-05 12267   0.559E-03    0.312E-02
RMM:   6    -0.671537682998E+03    0.97216E-05   -0.56824E-06 11671   0.435E-03    0.166E-02
RMM:   7    -0.671537684936E+03   -0.19372E-05   -0.29468E-06  9461   0.289E-03    0.107E-02
RMM:   8    -0.671537692199E+03   -0.72634E-05   -0.94603E-07  7879   0.243E-03
  13 F= -.67153769E+03 E0= -.67112404E+03  d E =-.383368E-01  mag=    80.0135
       N       E                     dE             d eps       ncg     rms          rms(c)
DAV:   1    -0.671563329518E+03   -0.25645E-01   -0.21262E+00 25392   0.132E+00    0.496E-01
RMM:   2    -0.671566794216E+03   -0.34647E-02   -0.48711E-02 24171   0.220E-01    0.281E-01
RMM:   3    -0.671568464160E+03   -0.16699E-02   -0.69826E-03 22795   0.906E-02    0.218E-01
RMM:   4    -0.671568746376E+03   -0.28222E-03   -0.13125E-03 20905   0.527E-02    0.256E-01
RMM:   5    -0.671568759480E+03   -0.13103E-04   -0.51587E-04 18423   0.346E-02    0.887E-02
RMM:   6    -0.671568931271E+03   -0.17179E-03   -0.21562E-04 16406   0.191E-02    0.820E-02
RMM:   7    -0.671568984667E+03   -0.53396E-04   -0.10575E-04 14658   0.150E-02    0.626E-02
RMM:   8    -0.671568969652E+03    0.15016E-04   -0.40672E-05 13347   0.102E-02
  14 F= -.67156897E+03 E0= -.67115519E+03  d E =-.312775E-01  mag=    80.0127
       N       E                     dE             d eps       ncg     rms          rms(c)
DAV:   1    -0.671578467220E+03   -0.94826E-02   -0.71887E-01 26960   0.758E-01    0.288E-01
RMM:   2    -0.671579475731E+03   -0.10085E-02   -0.16133E-02 23782   0.127E-01    0.171E-01
RMM:   3    -0.671580123206E+03   -0.64748E-03   -0.23512E-03 21278   0.550E-02    0.169E-01
RMM:   4    -0.671580179372E+03   -0.56166E-04   -0.49488E-04 18769   0.330E-02    0.153E-01
RMM:   5    -0.671580211058E+03   -0.31686E-04   -0.15635E-04 15504   0.184E-02    0.818E-02
RMM:   6    -0.671580251399E+03   -0.40341E-04   -0.67916E-05 14024   0.121E-02    0.630E-02
RMM:   7    -0.671580300630E+03   -0.49231E-04   -0.45777E-05 13354   0.105E-02    0.384E-02
RMM:   8    -0.671580309424E+03   -0.87940E-05   -0.19996E-05 12590   0.727E-03
  15 F= -.67158031E+03 E0= -.67116641E+03  d E =-.426172E-01  mag=    80.0122
       N       E                     dE             d eps       ncg     rms          rms(c)
DAV:   1    -0.671576564813E+03    0.37358E-02   -0.28755E+00 25456   0.151E+00    0.579E-01
RMM:   2    -0.671580687025E+03   -0.41222E-02   -0.63682E-02 24221   0.254E-01    0.319E-01
RMM:   3    -0.671582695737E+03   -0.20087E-02   -0.92405E-03 23249   0.104E-01    0.248E-01
RMM:   4    -0.671582889696E+03   -0.19396E-03   -0.17016E-03 21635   0.595E-02    0.288E-01
RMM:   5    -0.671582701758E+03    0.18794E-03   -0.62735E-04 19417   0.385E-02    0.129E-01
RMM:   6    -0.671582818678E+03   -0.11692E-03   -0.26695E-04 17243   0.209E-02    0.135E-01
RMM:   7    -0.671582818773E+03   -0.94995E-07   -0.15634E-04 15625   0.190E-02    0.874E-02
RMM:   8    -0.671582848930E+03   -0.30157E-04   -0.71691E-05 14108   0.129E-02
  16 F= -.67158285E+03 E0= -.67116877E+03  d E =-.451567E-01  mag=    80.0118
       N       E                     dE             d eps       ncg     rms          rms(c)
DAV:   1    -0.671593167526E+03   -0.10349E-01   -0.16427E-01 27024   0.336E-01    0.143E-01
RMM:   2    -0.671593410335E+03   -0.24281E-03   -0.34033E-03 20417   0.549E-02    0.900E-02
RMM:   3    -0.671593584629E+03   -0.17429E-03   -0.50263E-04 16986   0.271E-02    0.937E-02
RMM:   4    -0.671593587876E+03   -0.32475E-05   -0.14192E-04 14427   0.178E-02    0.524E-02
RMM:   5    -0.671593615598E+03   -0.27721E-04   -0.35435E-05 12730   0.876E-03    0.271E-02
RMM:   6    -0.671593643003E+03   -0.27405E-04   -0.15018E-05 12225   0.595E-03    0.285E-02
RMM:   7    -0.671593661024E+03   -0.18022E-04   -0.10122E-05 11751   0.541E-03    0.151E-02
RMM:   8    -0.671593680858E+03   -0.19834E-04   -0.35788E-06  9929   0.343E-03
  17 F= -.67159368E+03 E0= -.67117951E+03  d E =-.108319E-01  mag=    80.0116
       N       E                     dE             d eps       ncg     rms          rms(c)
DAV:   1    -0.671605842104E+03   -0.12181E-01   -0.14804E+00 25696   0.100E+00    0.427E-01
RMM:   2    -0.671607698416E+03   -0.18563E-02   -0.31129E-02 24057   0.162E-01    0.228E-01
RMM:   3    -0.671608718678E+03   -0.10203E-02   -0.42351E-03 21351   0.659E-02    0.148E-01
RMM:   4    -0.671608805554E+03   -0.86876E-04   -0.76738E-04 19150   0.367E-02    0.188E-01
RMM:   5    -0.671608728500E+03    0.77055E-04   -0.29615E-04 16885   0.268E-02    0.807E-02
RMM:   6    -0.671608778831E+03   -0.50331E-04   -0.14049E-04 15232   0.158E-02    0.799E-02
RMM:   7    -0.671608793365E+03   -0.14534E-04   -0.64105E-05 13824   0.118E-02    0.605E-02
RMM:   8    -0.671608804363E+03   -0.10998E-04   -0.27672E-05 13095   0.835E-03
  18 F= -.67160880E+03 E0= -.67119454E+03  d E =-.259554E-01  mag=    80.0115
       N       E                     dE             d eps       ncg     rms          rms(c)
DAV:   1    -0.671624176709E+03   -0.15383E-01   -0.35042E-02 27296   0.207E-01    0.547E-02
RMM:   2    -0.671624288978E+03   -0.11227E-03   -0.81705E-04 18895   0.377E-02    0.527E-02
RMM:   3    -0.671624327262E+03   -0.38284E-04   -0.13595E-04 14794   0.179E-02    0.510E-02
RMM:   4    -0.671624342281E+03   -0.15019E-04   -0.31757E-05 13275   0.100E-02    0.214E-02
RMM:   5    -0.671624365455E+03   -0.23174E-04   -0.91026E-06 11900   0.483E-03    0.217E-02
RMM:   6    -0.671624381513E+03   -0.16058E-04   -0.35895E-06 10852   0.338E-03    0.137E-02
RMM:   7    -0.671624403562E+03   -0.22049E-04   -0.20589E-06  9894   0.289E-03    0.116E-02
RMM:   8    -0.671624418126E+03   -0.14564E-04   -0.88594E-07  8327   0.257E-03
  19 F= -.67162442E+03 E0= -.67121011E+03  d E =-.156138E-01  mag=    80.0114
       N       E                     dE             d eps       ncg     rms          rms(c)
DAV:   1    -0.671659929783E+03   -0.35526E-01   -0.31444E-01 26608   0.618E-01    0.152E-01
RMM:   2    -0.671660588567E+03   -0.65878E-03   -0.72131E-03 23194   0.109E-01    0.878E-02
RMM:   3    -0.671660755874E+03   -0.16731E-03   -0.10320E-03 20260   0.440E-02    0.101E-01
RMM:   4    -0.671660739450E+03    0.16424E-04   -0.21069E-04 16011   0.228E-02    0.691E-02
RMM:   5    -0.671660727140E+03    0.12310E-04   -0.64464E-05 13998   0.127E-02    0.479E-02
RMM:   6    -0.671660721640E+03    0.54999E-05   -0.27604E-05 13133   0.797E-03    0.407E-02
RMM:   7    -0.671660718445E+03    0.31949E-05   -0.19992E-05 12943   0.726E-03    0.273E-02
RMM:   8    -0.671660722806E+03   -0.43605E-05   -0.97243E-06 12110   0.530E-03
  20 F= -.67166072E+03 E0= -.67124646E+03  d E =-.519184E-01  mag=    80.0113
       N       E                     dE             d eps       ncg     rms          rms(c)
DAV:   1    -0.671674012963E+03   -0.13295E-01   -0.12566E+00 26208   0.124E+00    0.303E-01
RMM:   2    -0.671676503486E+03   -0.24905E-02   -0.28688E-02 23856   0.218E-01    0.175E-01
RMM:   3    -0.671677012972E+03   -0.50949E-03   -0.41239E-03 23097   0.883E-02    0.183E-01
RMM:   4    -0.671676921350E+03    0.91622E-04   -0.85990E-04 21174   0.451E-02    0.122E-01
RMM:   5    -0.671676862503E+03    0.58847E-04   -0.27942E-04 17254   0.237E-02    0.875E-02
RMM:   6    -0.671676860401E+03    0.21025E-05   -0.12179E-04 15029   0.151E-02    0.873E-02
RMM:   7    -0.671676849425E+03    0.10976E-04   -0.73471E-05 14366   0.129E-02    0.601E-02
RMM:   8    -0.671676858506E+03   -0.90804E-05   -0.33220E-05 13169   0.937E-03
  21 F= -.67167686E+03 E0= -.67126272E+03  d E =-.680541E-01  mag=    80.0110
       N       E                     dE             d eps       ncg     rms          rms(c)
DAV:   1    -0.671680490182E+03   -0.36408E-02   -0.12408E-01 27200   0.390E-01    0.965E-02
RMM:   2    -0.671680808208E+03   -0.31803E-03   -0.28725E-03 22257   0.684E-02    0.677E-02
RMM:   3    -0.671680919917E+03   -0.11171E-03   -0.40570E-04 17121   0.283E-02    0.767E-02
RMM:   4    -0.671680929739E+03   -0.98217E-05   -0.91321E-05 14103   0.162E-02    0.432E-02
RMM:   5    -0.671680951931E+03   -0.22192E-04   -0.28103E-05 13035   0.847E-03    0.303E-02
RMM:   6    -0.671680964860E+03   -0.12929E-04   -0.11583E-05 12302   0.532E-03    0.258E-02
RMM:   7    -0.671680970987E+03   -0.61272E-05   -0.82548E-06 12087   0.480E-03    0.224E-02
RMM:   8    -0.671680964492E+03    0.64946E-05   -0.33220E-06 10479   0.341E-03
  22 F= -.67168096E+03 E0= -.67126680E+03  d E =-.721601E-01  mag=    80.0108
       N       E                     dE             d eps       ncg     rms          rms(c)
DAV:   1    -0.671694720889E+03   -0.13750E-01   -0.95172E-02 26560   0.324E-01    0.958E-02
RMM:   2    -0.671694908929E+03   -0.18804E-03   -0.22944E-03 21587   0.581E-02    0.612E-02
RMM:   3    -0.671695022907E+03   -0.11398E-03   -0.36021E-04 16833   0.268E-02    0.976E-02
RMM:   4    -0.671694993959E+03    0.28948E-04   -0.90591E-05 13951   0.159E-02    0.284E-02
RMM:   5    -0.671694985721E+03    0.82380E-05   -0.22683E-05 12618   0.673E-03    0.240E-02
RMM:   6    -0.671694987135E+03   -0.14137E-05   -0.10534E-05 12113   0.514E-03    0.191E-02
RMM:   7    -0.671694999686E+03   -0.12551E-04   -0.58115E-06 11408   0.425E-03    0.145E-02
RMM:   8    -0.671695010256E+03   -0.10571E-04   -0.24598E-06  9492   0.313E-03
  23 F= -.67169501E+03 E0= -.67128085E+03  d E =-.140458E-01  mag=    80.0106
       N       E                     dE             d eps       ncg     rms          rms(c)
DAV:   1    -0.671701258414E+03   -0.62587E-02   -0.85504E-01 25072   0.971E-01    0.287E-01
RMM:   2    -0.671702820458E+03   -0.15620E-02   -0.20781E-02 23700   0.173E-01    0.178E-01
RMM:   3    -0.671703643542E+03   -0.82308E-03   -0.32895E-03 22457   0.790E-02    0.280E-01
RMM:   4    -0.671703405729E+03    0.23781E-03   -0.73887E-04 19733   0.431E-02    0.823E-02
RMM:   5    -0.671703432713E+03   -0.26984E-04   -0.23827E-04 16388   0.186E-02    0.633E-02
RMM:   6    -0.671703456942E+03   -0.24228E-04   -0.94032E-05 14233   0.136E-02    0.556E-02
RMM:   7    -0.671703484300E+03   -0.27359E-04   -0.45351E-05 13526   0.113E-02    0.368E-02
RMM:   8    -0.671703493490E+03   -0.91898E-05   -0.20263E-05 12584   0.726E-03
  24 F= -.67170349E+03 E0= -.67128935E+03  d E =-.225290E-01  mag=    80.0105
       N       E                     dE             d eps       ncg     rms          rms(c)
DAV:   1    -0.671707045210E+03   -0.35609E-02   -0.11818E-01 27088   0.360E-01    0.108E-01
RMM:   2    -0.671707232777E+03   -0.18757E-03   -0.28092E-03 22032   0.646E-02    0.819E-02
RMM:   3    -0.671707401261E+03   -0.16848E-03   -0.43436E-04 17549   0.298E-02    0.124E-01
RMM:   4    -0.671707341501E+03    0.59760E-04   -0.10401E-04 14335   0.172E-02    0.364E-02
RMM:   5    -0.671707361795E+03   -0.20293E-04   -0.29435E-05 13105   0.798E-03    0.385E-02
RMM:   6    -0.671707364608E+03   -0.28135E-05   -0.16462E-05 12301   0.705E-03    0.285E-02
RMM:   7    -0.671707374989E+03   -0.10381E-04   -0.83425E-06 11448   0.443E-03    0.134E-02
RMM:   8    -0.671707379376E+03   -0.43865E-05   -0.28100E-06  9701   0.318E-03
  25 F= -.67170738E+03 E0= -.67129322E+03  d E =-.264149E-01  mag=    80.0104
       N       E                     dE             d eps       ncg     rms          rms(c)
DAV:   1    -0.671721469176E+03   -0.14094E-01   -0.15218E-01 25744   0.367E-01    0.148E-01
RMM:   2    -0.671721607225E+03   -0.13805E-03   -0.38078E-03 21675   0.674E-02    0.820E-02
RMM:   3    -0.671721758851E+03   -0.15163E-03   -0.44808E-04 17052   0.269E-02    0.830E-02
RMM:   4    -0.671721760240E+03   -0.13891E-05   -0.12045E-04 14390   0.172E-02    0.690E-02
RMM:   5    -0.671721754812E+03    0.54277E-05   -0.39164E-05 13274   0.992E-03    0.401E-02
RMM:   6    -0.671721759035E+03   -0.42231E-05   -0.14632E-05 12487   0.617E-03    0.286E-02
RMM:   7    -0.671721764706E+03   -0.56708E-05   -0.97792E-06 11930   0.520E-03    0.204E-02
RMM:   8    -0.671721765995E+03   -0.12894E-05   -0.48846E-06 10644   0.386E-03
  26 F= -.67172177E+03 E0= -.67130761E+03  d E =-.143866E-01  mag=    80.0105
       N       E                     dE             d eps       ncg     rms          rms(c)
DAV:   1    -0.671733244131E+03   -0.11479E-01   -0.63098E-01 24976   0.746E-01    0.303E-01
RMM:   2    -0.671733844007E+03   -0.59988E-03   -0.15839E-02 23161   0.137E-01    0.169E-01
RMM:   3    -0.671734311774E+03   -0.46777E-03   -0.19496E-03 21287   0.559E-02    0.174E-01
RMM:   4    -0.671734280826E+03    0.30949E-04   -0.46378E-04 18431   0.341E-02    0.122E-01
RMM:   5    -0.671734305718E+03   -0.24892E-04   -0.16448E-04 15385   0.191E-02    0.891E-02
RMM:   6    -0.671734287633E+03    0.18084E-04   -0.66543E-05 13991   0.127E-02    0.637E-02
RMM:   7    -0.671734247119E+03    0.40514E-04   -0.43230E-05 13279   0.989E-03    0.426E-02
RMM:   8    -0.671734205210E+03    0.41909E-04   -0.21908E-05 12564   0.753E-03
  27 F= -.67173421E+03 E0= -.67132004E+03  d E =-.268258E-01  mag=    80.0107
       N       E                     dE             d eps       ncg     rms          rms(c)
DAV:   1    -0.671750895996E+03   -0.16649E-01   -0.14280E-01 26416   0.330E-01    0.138E-01
RMM:   2    -0.671751075398E+03   -0.17940E-03   -0.31048E-03 21342   0.560E-02    0.105E-01
RMM:   3    -0.671751218219E+03   -0.14282E-03   -0.45502E-04 17131   0.289E-02    0.131E-01
RMM:   4    -0.671751199903E+03    0.18316E-04   -0.12971E-04 14564   0.191E-02    0.499E-02
RMM:   5    -0.671751246925E+03   -0.47022E-04   -0.43225E-05 13137   0.984E-03    0.446E-02
RMM:   6    -0.671751246567E+03    0.35809E-06   -0.18662E-05 12494   0.714E-03    0.314E-02
RMM:   7    -0.671751247711E+03   -0.11446E-05   -0.10825E-05 12072   0.507E-03    0.243E-02
RMM:   8    -0.671751244294E+03    0.34175E-05   -0.39202E-06 10973   0.356E-03
  28 F= -.67175124E+03 E0= -.67133708E+03  d E =-.170391E-01  mag=    80.0110
       N       E                     dE             d eps       ncg     rms          rms(c)
DAV:   1    -0.671755890468E+03   -0.46428E-02   -0.65191E-02 26384   0.224E-01    0.906E-02
RMM:   2    -0.671755969127E+03   -0.78659E-04   -0.13947E-03 18665   0.372E-02    0.621E-02
RMM:   3    -0.671756051309E+03   -0.82182E-04   -0.18967E-04 14947   0.191E-02    0.822E-02
RMM:   4    -0.671756047971E+03    0.33379E-05   -0.55214E-05 13243   0.125E-02    0.325E-02
RMM:   5    -0.671756079485E+03   -0.31514E-04   -0.17664E-05 12128   0.635E-03    0.254E-02
RMM:   6    -0.671756089806E+03   -0.10321E-04   -0.83385E-06 11755   0.483E-03    0.167E-02
RMM:   7    -0.671756101830E+03   -0.12024E-04   -0.50177E-06 10863   0.382E-03    0.127E-02
RMM:   8    -0.671756111943E+03   -0.10113E-04   -0.15156E-06  8642   0.276E-03
  29 F= -.67175611E+03 E0= -.67134193E+03  d E =-.219067E-01  mag=    80.0112
       N       E                     dE             d eps       ncg     rms          rms(c)
DAV:   1    -0.671766944793E+03   -0.10843E-01   -0.73447E-02 26464   0.272E-01    0.912E-02
RMM:   2    -0.671767102052E+03   -0.15726E-03   -0.19074E-03 20460   0.523E-02    0.762E-02
RMM:   3    -0.671767191065E+03   -0.89013E-04   -0.30764E-04 16516   0.249E-02    0.102E-01
RMM:   4    -0.671767169379E+03    0.21686E-04   -0.76124E-05 13591   0.146E-02    0.276E-02
RMM:   5    -0.671767189101E+03   -0.19723E-04   -0.24922E-05 12539   0.665E-03    0.304E-02
RMM:   6    -0.671767194847E+03   -0.57458E-05   -0.11569E-05 12000   0.545E-03    0.200E-02
RMM:   7    -0.671767204190E+03   -0.93430E-05   -0.58977E-06 11504   0.426E-03    0.183E-02
RMM:   8    -0.671767209441E+03   -0.52513E-05   -0.19369E-06  9477   0.292E-03
  30 F= -.67176721E+03 E0= -.67135304E+03  d E =-.110975E-01  mag=    80.0114
       N       E                     dE             d eps       ncg     rms          rms(c)
DAV:   1    -0.671771882211E+03   -0.46780E-02   -0.43168E-01 25456   0.660E-01    0.221E-01
RMM:   2    -0.671772550500E+03   -0.66829E-03   -0.11147E-02 23172   0.127E-01    0.190E-01
RMM:   3    -0.671772940636E+03   -0.39014E-03   -0.18231E-03 21293   0.599E-02    0.247E-01
RMM:   4    -0.671772749593E+03    0.19104E-03   -0.40325E-04 17924   0.324E-02    0.689E-02
RMM:   5    -0.671772851052E+03   -0.10146E-03   -0.15131E-04 15244   0.158E-02    0.949E-02
RMM:   6    -0.671772835588E+03    0.15465E-04   -0.68784E-05 13850   0.133E-02    0.634E-02
RMM:   7    -0.671772833674E+03    0.19134E-05   -0.42237E-05 13157   0.930E-03    0.362E-02
RMM:   8    -0.671772826692E+03    0.69826E-05   -0.15609E-05 12289   0.675E-03
  31 F= -.67177283E+03 E0= -.67135868E+03  d E =-.167147E-01  mag=    80.0113
       N       E                     dE             d eps       ncg     rms          rms(c)
DAV:   1    -0.671774984271E+03   -0.21506E-02   -0.63601E-02 26848   0.255E-01    0.868E-02
RMM:   2    -0.671775135445E+03   -0.15117E-03   -0.16617E-03 20042   0.488E-02    0.715E-02
RMM:   3    -0.671775203268E+03   -0.67823E-04   -0.25564E-04 15993   0.224E-02    0.918E-02
RMM:   4    -0.671775181773E+03    0.21495E-04   -0.64694E-05 13539   0.136E-02    0.300E-02
RMM:   5    -0.671775191288E+03   -0.95149E-05   -0.21159E-05 12554   0.667E-03    0.341E-02
RMM:   6    -0.671775190066E+03    0.12219E-05   -0.10412E-05 12030   0.546E-03    0.241E-02
RMM:   7    -0.671775193880E+03   -0.38142E-05   -0.56842E-06 11046   0.387E-03    0.141E-02
RMM:   8    -0.671775198493E+03   -0.46133E-05   -0.18059E-06  8830   0.278E-03
  32 F= -.67177520E+03 E0= -.67136104E+03  d E =-.190865E-01  mag=    80.0113
       N       E                     dE             d eps       ncg     rms          rms(c)
DAV:   1    -0.671775240184E+03   -0.46304E-04   -0.91845E-04 25232   0.309E-02    0.110E-02
RMM:   2    -0.671775239776E+03    0.40838E-06   -0.24403E-05 12439   0.614E-03    0.108E-02
RMM:   3    -0.671775240948E+03   -0.11725E-05   -0.33054E-06  9916   0.337E-03    0.852E-03
RMM:   4    -0.671775241598E+03   -0.65006E-06   -0.40287E-07  6296   0.212E-03    0.373E-03
RMM:   5    -0.671775243229E+03   -0.16307E-05   -0.98106E-08  5017   0.183E-03    0.323E-03
RMM:   6    -0.671775244980E+03   -0.17509E-05   -0.49265E-08  4877   0.181E-03    0.219E-03
RMM:   7    -0.671775245930E+03   -0.94948E-06   -0.24177E-08  4799   0.185E-03    0.139E-03
RMM:   8    -0.671775246614E+03   -0.68406E-06   -0.11266E-08  4714   0.186E-03
  33 F= -.67177525E+03 E0= -.67136110E+03  d E =-.191347E-01  mag=    80.0112
       N       E                     dE             d eps       ncg     rms          rms(c)
DAV:   1    -0.671778150649E+03   -0.29047E-02   -0.14100E-02 26528   0.134E-01    0.471E-02
RMM:   2    -0.671778167250E+03   -0.16601E-04   -0.33832E-04 16538   0.252E-02    0.321E-02
RMM:   3    -0.671778189234E+03   -0.21984E-04   -0.45485E-05 14319   0.114E-02    0.304E-02
RMM:   4    -0.671778192080E+03   -0.28466E-05   -0.12314E-05 12722   0.650E-03    0.229E-02
RMM:   5    -0.671778199006E+03   -0.69258E-05   -0.45210E-06 11844   0.370E-03    0.186E-02
RMM:   6    -0.671778200437E+03   -0.14314E-05   -0.23093E-06 10480   0.309E-03    0.924E-03
RMM:   7    -0.671778201701E+03   -0.12633E-05   -0.50898E-07  6788   0.232E-03    0.475E-03
RMM:   8    -0.671778201679E+03    0.21420E-07   -0.85020E-08  5598   0.207E-03
  34 F= -.67177820E+03 E0= -.67136404E+03  d E =-.295507E-02  mag=    80.0112
       N       E                     dE             d eps       ncg     rms          rms(c)
DAV:   1    -0.671780172926E+03   -0.19712E-02   -0.61753E-02 25632   0.282E-01    0.977E-02
RMM:   2    -0.671780272854E+03   -0.99928E-04   -0.14733E-03 22263   0.529E-02    0.632E-02
RMM:   3    -0.671780347480E+03   -0.74626E-04   -0.20302E-04 15934   0.219E-02    0.576E-02
RMM:   4    -0.671780353083E+03   -0.56028E-05   -0.59196E-05 14308   0.145E-02    0.420E-02
RMM:   5    -0.671780362233E+03   -0.91498E-05   -0.19481E-05 13240   0.729E-03    0.314E-02
RMM:   6    -0.671780359466E+03    0.27670E-05   -0.93760E-06 12406   0.534E-03    0.248E-02
RMM:   7    -0.671780355563E+03    0.39027E-05   -0.48879E-06 12015   0.391E-03    0.108E-02
RMM:   8    -0.671780355724E+03   -0.16065E-06   -0.13879E-06  9683   0.274E-03
  35 F= -.67178036E+03 E0= -.67136616E+03  d E =-.510911E-02  mag=    80.0114
       N       E                     dE             d eps       ncg     rms          rms(c)
DAV:   1    -0.671782374572E+03   -0.20190E-02   -0.49141E-03 27184   0.768E-02    0.365E-02
RMM:   2    -0.671782382536E+03   -0.79642E-05   -0.93795E-05 14914   0.147E-02    0.236E-02
RMM:   3    -0.671782391475E+03   -0.89384E-05   -0.17278E-05 13578   0.753E-03    0.265E-02
RMM:   4    -0.671782388701E+03    0.27735E-05   -0.58049E-06 11646   0.463E-03    0.101E-02
RMM:   5    -0.671782386677E+03    0.20242E-05   -0.11387E-06  8032   0.257E-03    0.847E-03
RMM:   6    -0.671782384984E+03    0.16931E-05   -0.41478E-07  6952   0.233E-03    0.535E-03
RMM:   7    -0.671782383983E+03    0.10012E-05   -0.56641E-08  5249   0.211E-03    0.371E-03
RMM:   8    -0.671782383750E+03    0.23283E-06   -0.51719E-08  5089   0.209E-03
  36 F= -.67178238E+03 E0= -.67136818E+03  d E =-.202803E-02  mag=    80.0115
       N       E                     dE             d eps       ncg     rms          rms(c)
DAV:   1    -0.671785617722E+03   -0.32337E-02   -0.44159E-02 25952   0.230E-01    0.105E-01
RMM:   2    -0.671785711425E+03   -0.93703E-04   -0.80950E-04 21388   0.429E-02    0.617E-02
RMM:   3    -0.671785768423E+03   -0.56998E-04   -0.12569E-04 15172   0.175E-02    0.551E-02
RMM:   4    -0.671785758650E+03    0.97728E-05   -0.42112E-05 14377   0.121E-02    0.415E-02
RMM:   5    -0.671785747046E+03    0.11605E-04   -0.14976E-05 13232   0.655E-03    0.287E-02
RMM:   6    -0.671785734665E+03    0.12381E-04   -0.74145E-06 12250   0.507E-03    0.170E-02
RMM:   7    -0.671785721552E+03    0.13113E-04   -0.35263E-06 11859   0.350E-03    0.865E-03
RMM:   8    -0.671785715805E+03    0.57467E-05   -0.65926E-07  8129   0.247E-03
  37 F= -.67178572E+03 E0= -.67137150E+03  d E =-.536008E-02  mag=    80.0118
       N       E                     dE             d eps       ncg     rms          rms(c)
DAV:   1    -0.671786007990E+03   -0.28644E-03   -0.69324E-03 27152   0.909E-02    0.416E-02
RMM:   2    -0.671786014619E+03   -0.66292E-05   -0.12999E-04 15168   0.172E-02    0.250E-02
RMM:   3    -0.671786022337E+03   -0.77174E-05   -0.19833E-05 14059   0.799E-03    0.221E-02
RMM:   4    -0.671786018658E+03    0.36787E-05   -0.64120E-06 11892   0.483E-03    0.155E-02
RMM:   5    -0.671786011525E+03    0.71325E-05   -0.20060E-06 10083   0.295E-03    0.112E-02
RMM:   6    -0.671786006127E+03    0.53984E-05   -0.46737E-07  7312   0.236E-03    0.619E-03
RMM:   7    -0.671786000879E+03    0.52475E-05   -0.87139E-08  5280   0.209E-03    0.399E-03
RMM:   8    -0.671785998555E+03    0.23246E-05   -0.79781E-08  5270   0.203E-03
  38 F= -.67178600E+03 E0= -.67137178E+03  d E =-.564283E-02  mag=    80.0120
       N       E                     dE             d eps       ncg     rms          rms(c)
DAV:   1    -0.671787943483E+03   -0.19426E-02   -0.15635E-02 27104   0.146E-01    0.500E-02
RMM:   2    -0.671787978942E+03   -0.35459E-04   -0.34725E-04 17362   0.282E-02    0.346E-02
RMM:   3    -0.671787990933E+03   -0.11991E-04   -0.55568E-05 14361   0.128E-02    0.380E-02
RMM:   4    -0.671787984467E+03    0.64657E-05   -0.14795E-05 12869   0.730E-03    0.162E-02
RMM:   5    -0.671787981305E+03    0.31623E-05   -0.47065E-06 11781   0.380E-03    0.153E-02
RMM:   6    -0.671787979607E+03    0.16973E-05   -0.20523E-06 10581   0.294E-03    0.964E-03
RMM:   7    -0.671787980901E+03   -0.12936E-05   -0.80285E-07  8037   0.249E-03    0.591E-03
RMM:   8    -0.671787982978E+03   -0.20768E-05   -0.93857E-08  5636   0.217E-03
  39 F= -.67178798E+03 E0= -.67137378E+03  d E =-.198442E-02  mag=    80.0123
       N       E                     dE             d eps       ncg     rms          rms(c)
DAV:   1    -0.671788916703E+03   -0.93580E-03   -0.32338E-02 26736   0.210E-01    0.715E-02
RMM:   2    -0.671789000766E+03   -0.84063E-04   -0.71392E-04 20608   0.402E-02    0.478E-02
RMM:   3    -0.671789030314E+03   -0.29548E-04   -0.11297E-04 14968   0.171E-02    0.515E-02
RMM:   4    -0.671789020324E+03    0.99898E-05   -0.30712E-05 13602   0.106E-02    0.246E-02
RMM:   5    -0.671789018020E+03    0.23041E-05   -0.93872E-06 12507   0.508E-03    0.213E-02
RMM:   6    -0.671789016751E+03    0.12694E-05   -0.48598E-06 11866   0.406E-03    0.144E-02
RMM:   7    -0.671789019706E+03   -0.29551E-05   -0.29396E-06 11468   0.329E-03    0.924E-03
RMM:   8    -0.671789022838E+03   -0.31320E-05   -0.51998E-07  7496   0.239E-03
  40 F= -.67178902E+03 E0= -.67137485E+03  d E =-.302428E-02  mag=    80.0125
       N       E                     dE             d eps       ncg     rms          rms(c)
DAV:   1    -0.671789896358E+03   -0.87665E-03   -0.84822E-03 27232   0.109E-01    0.522E-02
RMM:   2    -0.671789930916E+03   -0.34559E-04   -0.18145E-04 15988   0.224E-02    0.317E-02
RMM:   3    -0.671789951068E+03   -0.20152E-04   -0.27620E-05 14247   0.101E-02    0.257E-02
RMM:   4    -0.671789950196E+03    0.87218E-06   -0.83327E-06 12572   0.572E-03    0.151E-02
RMM:   5    -0.671789952694E+03   -0.24983E-05   -0.31462E-06 11544   0.337E-03    0.130E-02
RMM:   6    -0.671789953265E+03   -0.57044E-06   -0.64787E-07  7714   0.244E-03    0.770E-03
RMM:   7    -0.671789955036E+03   -0.17709E-05   -0.30358E-07  6310   0.232E-03    0.417E-03
RMM:   8    -0.671789956047E+03   -0.10114E-05   -0.25994E-08  5057   0.217E-03
  41 F= -.67178996E+03 E0= -.67137579E+03  d E =-.933209E-03  mag=    80.0127
       N       E                     dE             d eps       ncg     rms          rms(c)
DAV:   1    -0.671790691982E+03   -0.73695E-03   -0.62031E-02 27280   0.296E-01    0.141E-01
RMM:   2    -0.671790942250E+03   -0.25027E-03   -0.12911E-03 23358   0.603E-02    0.847E-02
RMM:   3    -0.671791051438E+03   -0.10919E-03   -0.21286E-04 16486   0.241E-02    0.709E-02
RMM:   4    -0.671791036517E+03    0.14921E-04   -0.64068E-05 14467   0.158E-02    0.403E-02
RMM:   5    -0.671791036961E+03   -0.44331E-06   -0.24177E-05 13758   0.804E-03    0.358E-02
RMM:   6    -0.671791030559E+03    0.64019E-05   -0.11613E-05 13017   0.600E-03    0.228E-02
RMM:   7    -0.671791029168E+03    0.13909E-05   -0.67169E-06 12332   0.463E-03    0.131E-02
RMM:   8    -0.671791029366E+03   -0.19837E-06   -0.22576E-06 11328   0.320E-03
  42 F= -.67179103E+03 E0= -.67137687E+03  d E =-.200653E-02  mag=    80.0130
       N       E                     dE             d eps       ncg     rms          rms(c)
DAV:   1    -0.671791671567E+03   -0.64240E-03   -0.38226E-03 27200   0.692E-02    0.401E-02
RMM:   2    -0.671791687072E+03   -0.15505E-04   -0.78039E-05 14873   0.143E-02    0.249E-02
RMM:   3    -0.671791696818E+03   -0.97458E-05   -0.13388E-05 13708   0.697E-03    0.228E-02
RMM:   4    -0.671791695002E+03    0.18156E-05   -0.40038E-06 11517   0.408E-03    0.987E-03
RMM:   5    -0.671791695309E+03   -0.30734E-06   -0.59494E-07  7651   0.240E-03    0.102E-02
RMM:   6    -0.671791695580E+03   -0.27055E-06   -0.29985E-07  6648   0.231E-03    0.548E-03
RMM:   7    -0.671791696558E+03   -0.97835E-06   -0.82785E-08  5172   0.211E-03    0.313E-03
RMM:   8    -0.671791697414E+03   -0.85542E-06   -0.10117E-07  5106   0.213E-03
  43 F= -.67179170E+03 E0= -.67137754E+03  d E =-.668047E-03  mag=    80.0132
       N       E                     dE             d eps       ncg     rms          rms(c)
DAV:   1    -0.671793309269E+03   -0.16127E-02   -0.34449E-02 27088   0.207E-01    0.119E-01
RMM:   2    -0.671793467880E+03   -0.15861E-03   -0.66566E-04 21608   0.420E-02    0.702E-02
RMM:   3    -0.671793535012E+03   -0.67133E-04   -0.10036E-04 15051   0.172E-02    0.565E-02
RMM:   4    -0.671793525145E+03    0.98669E-05   -0.37237E-05 14171   0.120E-02    0.335E-02
RMM:   5    -0.671793524225E+03    0.92015E-06   -0.13828E-05 13169   0.617E-03    0.287E-02
RMM:   6    -0.671793519442E+03    0.47828E-05   -0.72018E-06 12299   0.495E-03    0.167E-02
RMM:   7    -0.671793517989E+03    0.14538E-05   -0.40427E-06 12110   0.372E-03    0.875E-03
RMM:   8    -0.671793516921E+03    0.10673E-05   -0.73203E-07  8478   0.251E-03
  44 F= -.67179352E+03 E0= -.67137936E+03  d E =-.248756E-02  mag=    80.0135
       N       E                     dE             d eps       ncg     rms          rms(c)
DAV:   1    -0.671795237910E+03   -0.17199E-02   -0.13764E-01 26512   0.414E-01    0.238E-01
RMM:   2    -0.671795901699E+03   -0.66379E-03   -0.26480E-03 24030   0.840E-02    0.139E-01
RMM:   3    -0.671796127690E+03   -0.22599E-03   -0.41236E-04 20176   0.343E-02    0.102E-01
RMM:   4    -0.671796098036E+03    0.29654E-04   -0.12944E-04 15648   0.210E-02    0.677E-02
RMM:   5    -0.671796095232E+03    0.28037E-05   -0.55680E-05 14448   0.128E-02    0.555E-02
RMM:   6    -0.671796079058E+03    0.16174E-04   -0.26828E-05 14119   0.872E-03    0.345E-02
RMM:   7    -0.671796071479E+03    0.75791E-05   -0.14646E-05 13421   0.665E-03    0.179E-02
RMM:   8    -0.671796066936E+03    0.45430E-05   -0.45917E-06 11924   0.424E-03
  45 F= -.67179607E+03 E0= -.67138191E+03  d E =-.503757E-02  mag=    80.0139
       N       E                     dE             d eps       ncg     rms          rms(c)
DAV:   1    -0.671791315977E+03    0.47555E-02   -0.55078E-01 26432   0.827E-01    0.476E-01
RMM:   2    -0.671794102693E+03   -0.27867E-02   -0.10587E-02 24330   0.168E-01    0.283E-01
RMM:   3    -0.671794916993E+03   -0.81430E-03   -0.16563E-03 24153   0.697E-02    0.211E-01
RMM:   4    -0.671794794231E+03    0.12276E-03   -0.54741E-04 21027   0.414E-02    0.129E-01
RMM:   5    -0.671794807317E+03   -0.13086E-04   -0.21745E-04 17339   0.228E-02    0.121E-01
RMM:   6    -0.671794734458E+03    0.72860E-04   -0.10628E-04 14874   0.173E-02    0.672E-02
RMM:   7    -0.671794716259E+03    0.18199E-04   -0.59713E-05 14497   0.128E-02    0.361E-02
RMM:   8    -0.671794703678E+03    0.12581E-04   -0.19964E-05 14001   0.834E-03
  46 F= -.67179470E+03 E0= -.67138056E+03  d E =-.367431E-02  mag=    80.0145
       N       E                     dE             d eps       ncg     rms          rms(c)
DAV:   1    -0.671795197446E+03   -0.48119E-03   -0.21089E-01 27184   0.511E-01    0.295E-01
RMM:   2    -0.671796282968E+03   -0.10855E-02   -0.40279E-03 24109   0.104E-01    0.178E-01
RMM:   3    -0.671796670089E+03   -0.38712E-03   -0.65148E-04 22036   0.435E-02    0.156E-01
RMM:   4    -0.671796582019E+03    0.88070E-04   -0.20382E-04 16866   0.257E-02    0.807E-02
RMM:   5    -0.671796598128E+03   -0.16109E-04   -0.88574E-05 14714   0.153E-02    0.757E-02
RMM:   6    -0.671796575070E+03    0.23058E-04   -0.47200E-05 14240   0.118E-02    0.404E-02
RMM:   7    -0.671796583481E+03   -0.84108E-05   -0.26029E-05 13922   0.852E-03    0.228E-02
RMM:   8    -0.671796591194E+03   -0.77137E-05   -0.76784E-06 12563   0.535E-03
  47 F= -.67179659E+03 E0= -.67138244E+03  d E =-.556183E-02  mag=    80.0149
       N       E                     dE             d eps       ncg     rms          rms(c)
DAV:   1    -0.671797815993E+03   -0.12325E-02   -0.27379E-02 27696   0.183E-01    0.107E-01
RMM:   2    -0.671797954939E+03   -0.13895E-03   -0.51507E-04 20242   0.367E-02    0.666E-02
RMM:   3    -0.671798016861E+03   -0.61922E-04   -0.82655E-05 14833   0.158E-02    0.652E-02
RMM:   4    -0.671797997907E+03    0.18954E-04   -0.29179E-05 14083   0.106E-02    0.304E-02
RMM:   5    -0.671797998243E+03   -0.33621E-06   -0.11277E-05 12952   0.551E-03    0.251E-02
RMM:   6    -0.671797996563E+03    0.16806E-05   -0.66155E-06 12095   0.488E-03    0.145E-02
RMM:   7    -0.671797998905E+03   -0.23423E-05   -0.36969E-06 12003   0.359E-03    0.798E-03
RMM:   8    -0.671798000930E+03   -0.20252E-05   -0.47419E-07  7460   0.238E-03
  48 F= -.67179800E+03 E0= -.67138386E+03  d E =-.140974E-02  mag=    80.0153
       N       E                     dE             d eps       ncg     rms          rms(c)
DAV:   1    -0.671798531291E+03   -0.53239E-03   -0.18813E-01 26304   0.479E-01    0.281E-01
RMM:   2    -0.671799491112E+03   -0.95982E-03   -0.35559E-03 24099   0.962E-02    0.170E-01
RMM:   3    -0.671799801510E+03   -0.31040E-03   -0.56386E-04 21754   0.405E-02    0.140E-01
RMM:   4    -0.671799730786E+03    0.70724E-04   -0.17530E-04 16424   0.240E-02    0.825E-02
RMM:   5    -0.671799719329E+03    0.11458E-04   -0.74897E-05 14704   0.144E-02    0.705E-02
RMM:   6    -0.671799687871E+03    0.31458E-04   -0.41977E-05 14308   0.112E-02    0.361E-02
RMM:   7    -0.671799681550E+03    0.63209E-05   -0.22777E-05 13918   0.808E-03    0.209E-02
RMM:   8    -0.671799679189E+03    0.23609E-05   -0.69565E-06 12398   0.510E-03
  49 F= -.67179968E+03 E0= -.67138555E+03  d E =-.308799E-02  mag=    80.0158
       N       E                     dE             d eps       ncg     rms          rms(c)
DAV:   1    -0.671799687590E+03   -0.60406E-05   -0.13458E-02 27696   0.128E-01    0.757E-02
RMM:   2    -0.671799745996E+03   -0.58405E-04   -0.26453E-04 17215   0.260E-02    0.457E-02
RMM:   3    -0.671799767154E+03   -0.21159E-04   -0.41770E-05 14455   0.120E-02    0.347E-02
RMM:   4    -0.671799761613E+03    0.55409E-05   -0.15017E-05 13119   0.767E-03    0.188E-02
RMM:   5    -0.671799754160E+03    0.74538E-05   -0.48200E-06 11986   0.411E-03    0.118E-02
RMM:   6    -0.671799750749E+03    0.34100E-05   -0.24894E-06 11147   0.313E-03    0.106E-02
RMM:   7    -0.671799749266E+03    0.14836E-05   -0.83064E-07  8431   0.258E-03    0.546E-03
RMM:   8    -0.671799749244E+03    0.22352E-07   -0.15803E-08  5086   0.208E-03
  50 F= -.67179975E+03 E0= -.67138563E+03  d E =-.315805E-02  mag=    80.0164
       N       E                     dE             d eps       ncg     rms          rms(c)
DAV:   1    -0.671801344666E+03   -0.15954E-02   -0.35566E-02 26992   0.224E-01    0.113E-01
RMM:   2    -0.671801505577E+03   -0.16091E-03   -0.74961E-04 23129   0.460E-02    0.738E-02
RMM:   3    -0.671801575579E+03   -0.70002E-04   -0.12959E-04 15097   0.195E-02    0.769E-02
RMM:   4    -0.671801551365E+03    0.24214E-04   -0.44398E-05 14432   0.134E-02    0.322E-02
RMM:   5    -0.671801545742E+03    0.56233E-05   -0.15407E-05 13527   0.628E-03    0.281E-02
RMM:   6    -0.671801536445E+03    0.92969E-05   -0.85511E-06 12477   0.560E-03    0.162E-02
RMM:   7    -0.671801530142E+03    0.63032E-05   -0.50730E-06 12319   0.399E-03    0.993E-03
RMM:   8    -0.671801525524E+03    0.46175E-05   -0.13333E-06 10003   0.277E-03
  51 F= -.67180153E+03 E0= -.67138740E+03  d E =-.177628E-02  mag=    80.0169
       N       E                     dE             d eps       ncg     rms          rms(c)
DAV:   1    -0.671802068565E+03   -0.53842E-03   -0.14352E-01 25328   0.450E-01    0.227E-01
RMM:   2    -0.671802736646E+03   -0.66808E-03   -0.30190E-03 24191   0.925E-02    0.144E-01
RMM:   3    -0.671802968598E+03   -0.23195E-03   -0.51349E-04 21845   0.387E-02    0.126E-01
RMM:   4    -0.671802910917E+03    0.57681E-04   -0.14561E-04 15794   0.221E-02    0.685E-02
RMM:   5    -0.671802894105E+03    0.16812E-04   -0.59692E-05 14632   0.129E-02    0.587E-02
RMM:   6    -0.671802860572E+03    0.33534E-04   -0.31135E-05 14268   0.982E-03    0.323E-02
RMM:   7    -0.671802838951E+03    0.21621E-04   -0.19335E-05 14003   0.735E-03    0.196E-02
RMM:   8    -0.671802824900E+03    0.14051E-04   -0.64536E-06 12458   0.491E-03
  52 F= -.67180282E+03 E0= -.67138869E+03  d E =-.307566E-02  mag=    80.0176
       N       E                     dE             d eps       ncg     rms          rms(c)
DAV:   1    -0.671804212536E+03   -0.13736E-02   -0.44101E-02 27856   0.243E-01    0.134E-01
RMM:   2    -0.671804415612E+03   -0.20308E-03   -0.93323E-04 23748   0.507E-02    0.839E-02
RMM:   3    -0.671804478062E+03   -0.62451E-04   -0.14990E-04 15514   0.214E-02    0.670E-02
RMM:   4    -0.671804460693E+03    0.17369E-04   -0.58597E-05 14544   0.155E-02    0.371E-02
RMM:   5    -0.671804440660E+03    0.20033E-04   -0.19960E-05 13954   0.743E-03    0.297E-02
RMM:   6    -0.671804421927E+03    0.18734E-04   -0.98315E-06 13167   0.564E-03    0.240E-02
RMM:   7    -0.671804403485E+03    0.18442E-04   -0.56671E-06 12434   0.420E-03    0.115E-02
RMM:   8    -0.671804393854E+03    0.96313E-05   -0.14887E-06 10258   0.278E-03
  53 F= -.67180439E+03 E0= -.67139025E+03  d E =-.156895E-02  mag=    80.0184
       N       E                     dE             d eps       ncg     rms          rms(c)
DAV:   1    -0.671804181708E+03    0.22178E-03   -0.39695E-01 25184   0.728E-01    0.400E-01
RMM:   2    -0.671806229711E+03   -0.20480E-02   -0.83235E-03 24325   0.152E-01    0.254E-01
RMM:   3    -0.671806797682E+03   -0.56797E-03   -0.13497E-03 24415   0.638E-02    0.197E-01
RMM:   4    -0.671806682507E+03    0.11518E-03   -0.44564E-04 20643   0.376E-02    0.119E-01
RMM:   5    -0.671806645175E+03    0.37332E-04   -0.17516E-04 16067   0.201E-02    0.112E-01
RMM:   6    -0.671806538928E+03    0.10625E-03   -0.88972E-05 14773   0.165E-02    0.572E-02
RMM:   7    -0.671806482282E+03    0.56646E-04   -0.56334E-05 14493   0.121E-02    0.320E-02
RMM:   8    -0.671806451127E+03    0.31155E-04   -0.18245E-05 14146   0.800E-03
  54 F= -.67180645E+03 E0= -.67139229E+03  d E =-.362623E-02  mag=    80.0195
       N       E                     dE             d eps       ncg     rms          rms(c)
DAV:   1    -0.671808387232E+03   -0.19050E-02   -0.69407E-02 27568   0.306E-01    0.160E-01
RMM:   2    -0.671808650543E+03   -0.26331E-03   -0.14010E-03 23887   0.617E-02    0.983E-02
RMM:   3    -0.671808739031E+03   -0.88488E-04   -0.23389E-04 16776   0.257E-02    0.770E-02
RMM:   4    -0.671808707730E+03    0.31301E-04   -0.77061E-05 14651   0.172E-02    0.457E-02
RMM:   5    -0.671808675235E+03    0.32495E-04   -0.27385E-05 14146   0.871E-03    0.399E-02
RMM:   6    -0.671808645870E+03    0.29366E-04   -0.13987E-05 13566   0.671E-03    0.245E-02
RMM:   7    -0.671808626858E+03    0.19012E-04   -0.83872E-06 12807   0.484E-03    0.144E-02
RMM:   8    -0.671808619847E+03    0.70110E-05   -0.26988E-06 11500   0.338E-03
  55 F= -.67180862E+03 E0= -.67139444E+03  d E =-.216872E-02  mag=    80.0206
       N       E                     dE             d eps       ncg     rms          rms(c)
DAV:   1    -0.671809044778E+03   -0.41792E-03   -0.20241E-01 26032   0.523E-01    0.272E-01
RMM:   2    -0.671809930485E+03   -0.88571E-03   -0.40561E-03 24243   0.105E-01    0.168E-01
RMM:   3    -0.671810199382E+03   -0.26890E-03   -0.67256E-04 22518   0.438E-02    0.120E-01
RMM:   4    -0.671810149702E+03    0.49680E-04   -0.20086E-04 16920   0.255E-02    0.786E-02
RMM:   5    -0.671810113659E+03    0.36043E-04   -0.81025E-05 14767   0.154E-02    0.601E-02
RMM:   6    -0.671810084100E+03    0.29558E-04   -0.38720E-05 14298   0.104E-02    0.482E-02
RMM:   7    -0.671810062401E+03    0.21699E-04   -0.22606E-05 14110   0.801E-03    0.234E-02
RMM:   8    -0.671810058066E+03    0.43348E-05   -0.75831E-06 12679   0.514E-03
  56 F= -.67181006E+03 E0= -.67139586E+03  d E =-.360694E-02  mag=    80.0219
       N       E                     dE             d eps       ncg     rms          rms(c)
DAV:   1    -0.671811078150E+03   -0.10157E-02   -0.15241E-02 27776   0.140E-01    0.791E-02
RMM:   2    -0.671811141253E+03   -0.63103E-04   -0.31988E-04 17897   0.292E-02    0.494E-02
RMM:   3    -0.671811164938E+03   -0.23685E-04   -0.51377E-05 14576   0.130E-02    0.397E-02
RMM:   4    -0.671811158756E+03    0.61826E-05   -0.17254E-05 13823   0.811E-03    0.227E-02
RMM:   5    -0.671811158577E+03    0.17928E-06   -0.60786E-06 12259   0.431E-03    0.220E-02
RMM:   6    -0.671811156225E+03    0.23516E-05   -0.33578E-06 11661   0.368E-03    0.116E-02
RMM:   7    -0.671811157195E+03   -0.97044E-06   -0.15323E-06  9587   0.271E-03    0.683E-03
RMM:   8    -0.671811158731E+03   -0.15358E-05   -0.91860E-08  5851   0.224E-03
  57 F= -.67181116E+03 E0= -.67139696E+03  d E =-.110066E-02  mag=    80.0232
       N       E                     dE             d eps       ncg     rms          rms(c)
DAV:   1    -0.671812052387E+03   -0.89519E-03   -0.13731E-01 26176   0.421E-01    0.235E-01
RMM:   2    -0.671812703507E+03   -0.65112E-03   -0.27823E-03 24108   0.868E-02    0.144E-01
RMM:   3    -0.671812911549E+03   -0.20804E-03   -0.45430E-04 21015   0.363E-02    0.105E-01
RMM:   4    -0.671812878679E+03    0.32870E-04   -0.14054E-04 15811   0.220E-02    0.626E-02
RMM:   5    -0.671812873560E+03    0.51185E-05   -0.59209E-05 14538   0.133E-02    0.471E-02
RMM:   6    -0.671812867393E+03    0.61672E-05   -0.28358E-05 14099   0.877E-03    0.403E-02
RMM:   7    -0.671812860201E+03    0.71921E-05   -0.15304E-05 13703   0.677E-03    0.223E-02
RMM:   8    -0.671812857457E+03    0.27441E-05   -0.51780E-06 12206   0.427E-03
  58 F= -.67181286E+03 E0= -.67139866E+03  d E =-.279939E-02  mag=    80.0245
       N       E                     dE             d eps       ncg     rms          rms(c)
DAV:   1    -0.671814560740E+03   -0.17005E-02   -0.73455E-03 27408   0.103E-01    0.315E-02
RMM:   2    -0.671814584334E+03   -0.23594E-04   -0.18737E-04 15118   0.201E-02    0.274E-02
RMM:   3    -0.671814596094E+03   -0.11760E-04   -0.30009E-05 13936   0.988E-03    0.247E-02
RMM:   4    -0.671814601999E+03   -0.59051E-05   -0.74694E-06 12516   0.523E-03    0.139E-02
RMM:   5    -0.671814614100E+03   -0.12102E-04   -0.20533E-06 10241   0.292E-03    0.110E-02
RMM:   6    -0.671814621914E+03   -0.78138E-05   -0.64650E-07  7673   0.243E-03    0.878E-03
RMM:   7    -0.671814631513E+03   -0.95991E-05   -0.16271E-07  5791   0.217E-03    0.653E-03
RMM:   8    -0.671814637149E+03   -0.56359E-05   -0.86379E-08  5430   0.210E-03
  59 F= -.67181464E+03 E0= -.67140044E+03  d E =-.177969E-02  mag=    80.0257
       N       E                     dE             d eps       ncg     rms          rms(c)
DAV:   1    -0.671816299533E+03   -0.16680E-02   -0.50287E-02 27008   0.270E-01    0.802E-02
RMM:   2    -0.671816450932E+03   -0.15140E-03   -0.12500E-03 22726   0.520E-02    0.548E-02
RMM:   3    -0.671816508833E+03   -0.57901E-04   -0.20598E-04 15468   0.220E-02    0.639E-02
RMM:   4    -0.671816508800E+03    0.32596E-07   -0.51133E-05 14178   0.137E-02    0.287E-02
RMM:   5    -0.671816530978E+03   -0.22178E-04   -0.16005E-05 13220   0.621E-03    0.288E-02
RMM:   6    -0.671816543322E+03   -0.12343E-04   -0.71394E-06 12182   0.490E-03    0.186E-02
RMM:   7    -0.671816557421E+03   -0.14100E-04   -0.46485E-06 11852   0.379E-03    0.139E-02
RMM:   8    -0.671816563147E+03   -0.57253E-05   -0.16834E-06  9938   0.292E-03
  60 F= -.67181656E+03 E0= -.67140239E+03  d E =-.370569E-02  mag=    80.0269
       N       E                     dE             d eps       ncg     rms          rms(c)
DAV:   1    -0.671817373208E+03   -0.81579E-03   -0.50178E-03 27296   0.881E-02    0.380E-02
RMM:   2    -0.671817394458E+03   -0.21250E-04   -0.12737E-04 15013   0.182E-02    0.271E-02
RMM:   3    -0.671817403218E+03   -0.87600E-05   -0.20023E-05 14102   0.881E-03    0.233E-02
RMM:   4    -0.671817403815E+03   -0.59698E-06   -0.59625E-06 12288   0.484E-03    0.129E-02
RMM:   5    -0.671817412994E+03   -0.91796E-05   -0.18006E-06 10417   0.285E-03    0.105E-02
RMM:   6    -0.671817422078E+03   -0.90841E-05   -0.35691E-07  6854   0.232E-03    0.769E-03
RMM:   7    -0.671817433161E+03   -0.11083E-04   -0.15479E-07  5548   0.220E-03    0.581E-03
RMM:   8    -0.671817442460E+03   -0.92988E-05   -0.75821E-08  5168   0.213E-03
  61 F= -.67181744E+03 E0= -.67140328E+03  d E =-.879313E-03  mag=    80.0280
       N       E                     dE             d eps       ncg     rms          rms(c)
DAV:   1    -0.671818556535E+03   -0.11234E-02   -0.45162E-02 26736   0.264E-01    0.113E-01
RMM:   2    -0.671818738230E+03   -0.18169E-03   -0.10962E-03 23421   0.540E-02    0.747E-02
RMM:   3    -0.671818794893E+03   -0.56663E-04   -0.17589E-04 15504   0.222E-02    0.644E-02
RMM:   4    -0.671818784942E+03    0.99503E-05   -0.57751E-05 14367   0.153E-02    0.362E-02
RMM:   5    -0.671818792670E+03   -0.77281E-05   -0.18644E-05 13506   0.724E-03    0.279E-02
RMM:   6    -0.671818803338E+03   -0.10667E-04   -0.87079E-06 12795   0.529E-03    0.207E-02
RMM:   7    -0.671818819435E+03   -0.16097E-04   -0.54144E-06 12413   0.407E-03    0.140E-02
RMM:   8    -0.671818831319E+03   -0.11884E-04   -0.17501E-06 10890   0.291E-03
  62 F= -.67181883E+03 E0= -.67140471E+03  d E =-.226817E-02  mag=    80.0291
       N       E                     dE             d eps       ncg     rms          rms(c)
DAV:   1    -0.671818908894E+03   -0.89459E-04   -0.54499E-03 27536   0.919E-02    0.395E-02
RMM:   2    -0.671818938344E+03   -0.29450E-04   -0.13892E-04 15151   0.189E-02    0.276E-02
RMM:   3    -0.671818948681E+03   -0.10338E-04   -0.20645E-05 14168   0.895E-03    0.217E-02
RMM:   4    -0.671818951410E+03   -0.27288E-05   -0.60729E-06 12445   0.488E-03    0.130E-02
RMM:   5    -0.671818963227E+03   -0.11817E-04   -0.21140E-06 11178   0.298E-03    0.931E-03
RMM:   6    -0.671818975545E+03   -0.12317E-04   -0.15935E-07  6267   0.223E-03    0.746E-03
RMM:   7    -0.671818986696E+03   -0.11152E-04   -0.11160E-07  5440   0.219E-03    0.612E-03
RMM:   8    -0.671818996817E+03   -0.10121E-04   -0.47477E-08  5153   0.212E-03
  63 F= -.67181900E+03 E0= -.67140489E+03  d E =-.243367E-02  mag=    80.0302
       N       E                     dE             d eps       ncg     rms          rms(c)
DAV:   1    -0.671819921111E+03   -0.93441E-03   -0.85409E-03 27472   0.109E-01    0.565E-02
RMM:   2    -0.671819956818E+03   -0.35707E-04   -0.20229E-04 16108   0.223E-02    0.376E-02
RMM:   3    -0.671819970727E+03   -0.13908E-04   -0.29631E-05 14366   0.103E-02    0.276E-02
RMM:   4    -0.671819971115E+03   -0.38883E-06   -0.96437E-06 12708   0.606E-03    0.193E-02
RMM:   5    -0.671819977812E+03   -0.66971E-05   -0.34410E-06 11593   0.363E-03    0.137E-02
RMM:   6    -0.671819984765E+03   -0.69528E-05   -0.11956E-06  9203   0.270E-03    0.105E-02
RMM:   7    -0.671819992161E+03   -0.73956E-05   -0.55262E-07  7029   0.244E-03    0.586E-03
RMM:   8    -0.671819997887E+03   -0.57258E-05   -0.78440E-08  5094   0.223E-03
  64 F= -.67182000E+03 E0= -.67140591E+03  d E =-.100107E-02  mag=    80.0312
       N       E                     dE             d eps       ncg     rms          rms(c)
DAV:   1    -0.671821088247E+03   -0.10961E-02   -0.76626E-02 26192   0.326E-01    0.169E-01
RMM:   2    -0.671821397060E+03   -0.30881E-03   -0.17553E-03 23859   0.660E-02    0.107E-01
RMM:   3    -0.671821493137E+03   -0.96078E-04   -0.24813E-04 16961   0.265E-02    0.741E-02
RMM:   4    -0.671821478388E+03    0.14749E-04   -0.89818E-05 14789   0.183E-02    0.564E-02
RMM:   5    -0.671821469088E+03    0.92997E-05   -0.33436E-05 14248   0.103E-02    0.342E-02
RMM:   6    -0.671821467982E+03    0.11059E-05   -0.17302E-05 13658   0.707E-03    0.308E-02
RMM:   7    -0.671821466489E+03    0.14929E-05   -0.88135E-06 12752   0.535E-03    0.165E-02
RMM:   8    -0.671821467351E+03   -0.86147E-06   -0.26635E-06 11533   0.323E-03
  65 F= -.67182147E+03 E0= -.67140741E+03  d E =-.247053E-02  mag=    80.0322
       N       E                     dE             d eps       ncg     rms          rms(c)
DAV:   1    -0.671821545479E+03   -0.78990E-04   -0.10830E-02 27664   0.123E-01    0.639E-02
RMM:   2    -0.671821581691E+03   -0.36211E-04   -0.25667E-04 16849   0.250E-02    0.419E-02
RMM:   3    -0.671821594303E+03   -0.12612E-04   -0.36216E-05 14431   0.112E-02    0.291E-02
RMM:   4    -0.671821593263E+03    0.10403E-05   -0.12168E-05 13011   0.673E-03    0.215E-02
RMM:   5    -0.671821594972E+03   -0.17090E-05   -0.43885E-06 11792   0.406E-03    0.137E-02
RMM:   6    -0.671821599413E+03   -0.44415E-05   -0.20484E-06 10728   0.296E-03    0.123E-02
RMM:   7    -0.671821603657E+03   -0.42436E-05   -0.63465E-07  7693   0.250E-03    0.614E-03
RMM:   8    -0.671821607879E+03   -0.42222E-05   -0.15581E-07  5449   0.223E-03
  66 F= -.67182161E+03 E0= -.67140756E+03  d E =-.261106E-02  mag=    80.0332
       N       E                     dE             d eps       ncg     rms          rms(c)
DAV:   1    -0.671822508011E+03   -0.90435E-03   -0.10590E-02 27408   0.119E-01    0.669E-02
RMM:   2    -0.671822565861E+03   -0.57850E-04   -0.25407E-04 16877   0.249E-02    0.436E-02
RMM:   3    -0.671822583776E+03   -0.17914E-04   -0.38862E-05 14431   0.116E-02    0.346E-02
RMM:   4    -0.671822582268E+03    0.15073E-05   -0.13129E-05 13278   0.709E-03    0.195E-02
RMM:   5    -0.671822589098E+03   -0.68303E-05   -0.44047E-06 11889   0.384E-03    0.179E-02
RMM:   6    -0.671822594428E+03   -0.53300E-05   -0.20894E-06 10717   0.302E-03    0.118E-02
RMM:   7    -0.671822601729E+03   -0.73006E-05   -0.91761E-07  8216   0.255E-03    0.561E-03
RMM:   8    -0.671822607169E+03   -0.54399E-05   -0.53726E-08  5141   0.217E-03
  67 F= -.67182261E+03 E0= -.67140858E+03  d E =-.999290E-03  mag=    80.0342
       N       E                     dE             d eps       ncg     rms          rms(c)
DAV:   1    -0.671824302301E+03   -0.17006E-02   -0.95214E-02 25552   0.357E-01    0.200E-01
RMM:   2    -0.671824805267E+03   -0.50297E-03   -0.22210E-03 24027   0.741E-02    0.128E-01
RMM:   3    -0.671824933801E+03   -0.12853E-03   -0.32311E-04 18337   0.307E-02    0.972E-02
RMM:   4    -0.671824907850E+03    0.25950E-04   -0.11526E-04 15260   0.204E-02    0.572E-02
RMM:   5    -0.671824904609E+03    0.32415E-05   -0.44018E-05 14455   0.115E-02    0.488E-02
RMM:   6    -0.671824899136E+03    0.54729E-05   -0.22132E-05 14177   0.798E-03    0.358E-02
RMM:   7    -0.671824895547E+03    0.35889E-05   -0.12081E-05 13202   0.598E-03    0.177E-02
RMM:   8    -0.671824896043E+03   -0.49593E-06   -0.40056E-06 12036   0.398E-03
  68 F= -.67182490E+03 E0= -.67141092E+03  d E =-.328816E-02  mag=    80.0353
       N       E                     dE             d eps       ncg     rms          rms(c)
DAV:   1    -0.671822158617E+03    0.27369E-02   -0.38107E-01 25200   0.714E-01    0.400E-01
RMM:   2    -0.671824212297E+03   -0.20537E-02   -0.88777E-03 24287   0.148E-01    0.256E-01
RMM:   3    -0.671824685600E+03   -0.47330E-03   -0.12875E-03 23881   0.621E-02    0.186E-01
RMM:   4    -0.671824586046E+03    0.99554E-04   -0.45251E-04 20490   0.377E-02    0.105E-01
RMM:   5    -0.671824553520E+03    0.32526E-04   -0.16179E-04 15901   0.208E-02    0.832E-02
RMM:   6    -0.671824538521E+03    0.14999E-04   -0.89239E-05 14773   0.159E-02    0.748E-02
RMM:   7    -0.671824502920E+03    0.35601E-04   -0.45153E-05 14519   0.114E-02    0.347E-02
RMM:   8    -0.671824494572E+03    0.83479E-05   -0.14834E-05 13891   0.703E-03
  69 F= -.67182449E+03 E0= -.67141062E+03  d E =-.288669E-02  mag=    80.0364
       N       E                     dE             d eps       ncg     rms          rms(c)
DAV:   1    -0.671824891075E+03   -0.38816E-03   -0.12538E-01 26800   0.410E-01    0.229E-01
RMM:   2    -0.671825573460E+03   -0.68238E-03   -0.28951E-03 24134   0.851E-02    0.152E-01
RMM:   3    -0.671825792229E+03   -0.21877E-03   -0.44460E-04 20682   0.365E-02    0.131E-01
RMM:   4    -0.671825736749E+03    0.55480E-04   -0.14885E-04 15674   0.228E-02    0.662E-02
RMM:   5    -0.671825762348E+03   -0.25599E-04   -0.58496E-05 14534   0.130E-02    0.675E-02
RMM:   6    -0.671825755970E+03    0.63777E-05   -0.31123E-05 14272   0.974E-03    0.338E-02
RMM:   7    -0.671825772098E+03   -0.16128E-04   -0.18557E-05 13692   0.711E-03    0.200E-02
RMM:   8    -0.671825783852E+03   -0.11754E-04   -0.60005E-06 12247   0.485E-03
  70 F= -.67182578E+03 E0= -.67141185E+03  d E =-.417597E-02  mag=    80.0374
       N       E                     dE             d eps       ncg     rms          rms(c)
DAV:   1    -0.671827333924E+03   -0.15618E-02   -0.44353E-02 27856   0.245E-01    0.131E-01
RMM:   2    -0.671827551123E+03   -0.21720E-03   -0.10170E-03 23239   0.490E-02    0.841E-02
RMM:   3    -0.671827622985E+03   -0.71863E-04   -0.14910E-04 15492   0.210E-02    0.768E-02
RMM:   4    -0.671827604095E+03    0.18890E-04   -0.53022E-05 14417   0.144E-02    0.386E-02
RMM:   5    -0.671827611643E+03   -0.75479E-05   -0.18299E-05 13747   0.694E-03    0.352E-02
RMM:   6    -0.671827616969E+03   -0.53262E-05   -0.10603E-05 12700   0.590E-03    0.207E-02
RMM:   7    -0.671827630152E+03   -0.13183E-04   -0.63693E-06 12483   0.440E-03    0.119E-02
RMM:   8    -0.671827639284E+03   -0.91321E-05   -0.17494E-06 10796   0.298E-03
  71 F= -.67182764E+03 E0= -.67141372E+03  d E =-.185543E-02  mag=    80.0383
       N       E                     dE             d eps       ncg     rms          rms(c)
DAV:   1    -0.671827916617E+03   -0.28647E-03   -0.43464E-02 27776   0.243E-01    0.130E-01
RMM:   2    -0.671828122894E+03   -0.20628E-03   -0.10113E-03 23238   0.486E-02    0.823E-02
RMM:   3    -0.671828182295E+03   -0.59401E-04   -0.14380E-04 15506   0.209E-02    0.660E-02
RMM:   4    -0.671828171031E+03    0.11264E-04   -0.55360E-05 14436   0.147E-02    0.362E-02
RMM:   5    -0.671828175024E+03   -0.39930E-05   -0.18554E-05 13611   0.736E-03    0.261E-02
RMM:   6    -0.671828182634E+03   -0.76098E-05   -0.10101E-05 12843   0.558E-03    0.221E-02
RMM:   7    -0.671828190489E+03   -0.78552E-05   -0.51546E-06 12275   0.418E-03    0.133E-02
RMM:   8    -0.671828197065E+03   -0.65765E-05   -0.10711E-06  9187   0.264E-03
  72 F= -.67182820E+03 E0= -.67141429E+03  d E =-.241321E-02  mag=    80.0393
       N       E                     dE             d eps       ncg     rms          rms(c)
DAV:   1    -0.671829448254E+03   -0.12578E-02   -0.23263E-02 27872   0.186E-01    0.914E-02
RMM:   2    -0.671829540086E+03   -0.91832E-04   -0.54615E-04 21576   0.382E-02    0.572E-02
RMM:   3    -0.671829576966E+03   -0.36879E-04   -0.79338E-05 14742   0.156E-02    0.414E-02
[...]
RMM:   8    -0.671880520770E+03   -0.39279E-05   -0.69474E-08  5680   0.204E-03
 131 F= -.67188052E+03 E0= -.67147110E+03  d E =-.410663E-03  mag=    80.0689
       N       E                     dE             d eps       ncg     rms          rms(c)
DAV:   1    -0.671880211980E+03    0.30486E-03   -0.80492E-02 27632   0.301E-01    0.194E-01
RMM:   2    -0.671880679194E+03   -0.46721E-03   -0.14986E-03 23280   0.602E-02    0.112E-01
RMM:   3    -0.671880815983E+03   -0.13679E-03   -0.20384E-04 16381   0.242E-02    0.724E-02
RMM:   4    -0.671880809209E+03    0.67740E-05   -0.72682E-05 14760   0.161E-02    0.589E-02
RMM:   5    -0.671880796942E+03    0.12267E-04   -0.27906E-05 14094   0.881E-03    0.364E-02
RMM:   6    -0.671880793256E+03    0.36857E-05   -0.15304E-05 13359   0.697E-03    0.256E-02
RMM:   7    -0.671880793083E+03    0.17323E-06   -0.91806E-06 12538   0.529E-03    0.112E-02
RMM:   8    -0.671880794823E+03   -0.17397E-05   -0.23149E-06 11000   0.322E-03
 132 F= -.67188079E+03 E0= -.67147149E+03  d E =-.684715E-03  mag=    80.0690
       N       E                     dE             d eps       ncg     rms          rms(c)
DAV:   1    -0.671881188562E+03   -0.39548E-03   -0.30591E-03 26512   0.694E-02    0.295E-02
RMM:   2    -0.671881206348E+03   -0.17786E-04   -0.70171E-05 14535   0.144E-02    0.229E-02
RMM:   3    -0.671881216281E+03   -0.99326E-05   -0.12196E-05 13472   0.691E-03    0.265E-02
RMM:   4    -0.671881214311E+03    0.19693E-05   -0.33006E-06 12134   0.380E-03    0.869E-03
RMM:   5    -0.671881220988E+03   -0.66767E-05   -0.48297E-07  7431   0.234E-03    0.784E-03
RMM:   6    -0.671881227893E+03   -0.69053E-05   -0.14996E-07  6316   0.217E-03    0.408E-03
RMM:   7    -0.671881236222E+03   -0.83284E-05   -0.91861E-08  5318   0.217E-03    0.281E-03
RMM:   8    -0.671881243010E+03   -0.67879E-05   -0.76910E-08  5171   0.215E-03
 133 F= -.67188124E+03 E0= -.67147192E+03  d E =-.448187E-03  mag=    80.0690
       N       E                     dE             d eps       ncg     rms          rms(c)
DAV:   1    -0.671881738546E+03   -0.50232E-03   -0.27488E-02 27152   0.208E-01    0.873E-02
RMM:   2    -0.671881858265E+03   -0.11972E-03   -0.59780E-04 22466   0.423E-02    0.564E-02
RMM:   3    -0.671881910404E+03   -0.52140E-04   -0.10687E-04 14685   0.175E-02    0.585E-02
RMM:   4    -0.671881896650E+03    0.13754E-04   -0.32511E-05 14150   0.116E-02    0.256E-02
RMM:   5    -0.671881902772E+03   -0.61225E-05   -0.10880E-05 13002   0.547E-03    0.225E-02
RMM:   6    -0.671881904552E+03   -0.17793E-05   -0.54214E-06 11975   0.455E-03    0.126E-02
RMM:   7    -0.671881907556E+03   -0.30044E-05   -0.33327E-06 11895   0.334E-03    0.987E-03
RMM:   8    -0.671881908842E+03   -0.12857E-05   -0.10291E-06  9594   0.265E-03
 134 F= -.67188191E+03 E0= -.67147253E+03  d E =-.111402E-02  mag=    80.0691
       N       E                     dE             d eps       ncg     rms          rms(c)
DAV:   1    -0.671882276526E+03   -0.36897E-03   -0.40136E-03 26416   0.736E-02    0.402E-02
RMM:   2    -0.671882300485E+03   -0.23960E-04   -0.82174E-05 14883   0.152E-02    0.245E-02
RMM:   3    -0.671882311796E+03   -0.11310E-04   -0.13108E-05 13936   0.718E-03    0.195E-02
RMM:   4    -0.671882313523E+03   -0.17267E-05   -0.41817E-06 11882   0.419E-03    0.107E-02
RMM:   5    -0.671882321554E+03   -0.80317E-05   -0.81414E-07  8574   0.254E-03    0.781E-03
RMM:   6    -0.671882327858E+03   -0.63041E-05   -0.14706E-07  6224   0.221E-03    0.611E-03
RMM:   7    -0.671882332909E+03   -0.50506E-05   -0.40663E-08  5169   0.213E-03    0.370E-03
RMM:   8    -0.671882337516E+03   -0.46073E-05   -0.12562E-07  5350   0.213E-03
 135 F= -.67188234E+03 E0= -.67147294E+03  d E =-.428674E-03  mag=    80.0692
       N       E                     dE             d eps       ncg     rms          rms(c)
DAV:   1    -0.671882727736E+03   -0.39483E-03   -0.36153E-02 27184   0.221E-01    0.120E-01
RMM:   2    -0.671882912456E+03   -0.18472E-03   -0.70600E-04 22255   0.448E-02    0.730E-02
RMM:   3    -0.671882993714E+03   -0.81258E-04   -0.11787E-04 15075   0.191E-02    0.660E-02
RMM:   4    -0.671882982875E+03    0.10839E-04   -0.43325E-05 14328   0.131E-02    0.315E-02
RMM:   5    -0.671882993005E+03   -0.10130E-04   -0.14193E-05 13315   0.632E-03    0.286E-02
RMM:   6    -0.671882999721E+03   -0.67162E-05   -0.72195E-06 12164   0.514E-03    0.157E-02
RMM:   7    -0.671883009186E+03   -0.94650E-05   -0.38229E-06 12041   0.361E-03    0.101E-02
RMM:   8    -0.671883014591E+03   -0.54045E-05   -0.11112E-06  9958   0.271E-03
 136 F= -.67188301E+03 E0= -.67147357E+03  d E =-.110575E-02  mag=    80.0693
       N       E                     dE             d eps       ncg     rms          rms(c)
DAV:   1    -0.671883365990E+03   -0.35680E-03   -0.69541E-03 27296   0.949E-02    0.550E-02
RMM:   2    -0.671883406430E+03   -0.40440E-04   -0.13642E-04 15606   0.194E-02    0.330E-02
RMM:   3    -0.671883426309E+03   -0.19879E-04   -0.21625E-05 14340   0.910E-03    0.270E-02
RMM:   4    -0.671883427183E+03   -0.87451E-06   -0.70849E-06 12336   0.533E-03    0.144E-02
RMM:   5    -0.671883435633E+03   -0.84499E-05   -0.23504E-06 11178   0.313E-03    0.137E-02
RMM:   6    -0.671883441800E+03   -0.61668E-05   -0.74573E-07  8521   0.256E-03    0.595E-03
RMM:   7    -0.671883448496E+03   -0.66962E-05   -0.22017E-07  6185   0.226E-03    0.426E-03
RMM:   8    -0.671883453319E+03   -0.48233E-05   -0.20334E-08  5189   0.209E-03
 137 F= -.67188345E+03 E0= -.67147399E+03  d E =-.438728E-03  mag=    80.0693
       N       E                     dE             d eps       ncg     rms          rms(c)
DAV:   1    -0.671883606405E+03   -0.15791E-03   -0.62647E-02 27904   0.285E-01    0.164E-01
RMM:   2    -0.671883926296E+03   -0.31989E-03   -0.11857E-03 23672   0.579E-02    0.973E-02
RMM:   3    -0.671884053781E+03   -0.12749E-03   -0.18973E-04 16221   0.243E-02    0.744E-02
RMM:   4    -0.671884040995E+03    0.12786E-04   -0.71239E-05 14643   0.167E-02    0.423E-02
RMM:   5    -0.671884040456E+03    0.53877E-06   -0.25021E-05 14159   0.882E-03    0.291E-02
RMM:   6    -0.671884038127E+03    0.23292E-05   -0.12163E-05 13000   0.632E-03    0.207E-02
RMM:   7    -0.671884038711E+03   -0.58440E-06   -0.54695E-06 12183   0.436E-03    0.161E-02
RMM:   8    -0.671884038428E+03    0.28312E-06   -0.16567E-06 10783   0.288E-03
 138 F= -.67188404E+03 E0= -.67147453E+03  d E =-.102384E-02  mag=    80.0693
       N       E                     dE             d eps       ncg     rms          rms(c)
DAV:   1    -0.671884264658E+03   -0.22595E-03   -0.16997E-02 27408   0.150E-01    0.850E-02
RMM:   2    -0.671884345444E+03   -0.80786E-04   -0.33000E-04 18110   0.305E-02    0.500E-02
RMM:   3    -0.671884383385E+03   -0.37941E-04   -0.50645E-05 14581   0.133E-02    0.402E-02
RMM:   4    -0.671884378681E+03    0.47041E-05   -0.18526E-05 14136   0.852E-03    0.226E-02
RMM:   5    -0.671884378386E+03    0.29523E-06   -0.63357E-06 12331   0.455E-03    0.201E-02
RMM:   6    -0.671884377451E+03    0.93505E-06   -0.31232E-06 11635   0.355E-03    0.111E-02
RMM:   7    -0.671884379527E+03   -0.20759E-05   -0.97475E-07  8901   0.264E-03    0.621E-03
RMM:   8    -0.671884382431E+03   -0.29048E-05   -0.86737E-08  6044   0.221E-03
 139 F= -.67188438E+03 E0= -.67147485E+03  d E =-.344003E-03  mag=    80.0692
       N       E                     dE             d eps       ncg     rms          rms(c)
DAV:   1    -0.671884398221E+03   -0.18694E-04   -0.10057E-02 26928   0.115E-01    0.653E-02
RMM:   2    -0.671884447530E+03   -0.49309E-04   -0.19884E-04 16264   0.235E-02    0.389E-02
RMM:   3    -0.671884469871E+03   -0.22341E-04   -0.30345E-05 14474   0.105E-02    0.318E-02
RMM:   4    -0.671884466942E+03    0.29295E-05   -0.10044E-05 13119   0.622E-03    0.181E-02
RMM:   5    -0.671884467195E+03   -0.25285E-06   -0.36385E-06 11669   0.360E-03    0.165E-02
RMM:   6    -0.671884467305E+03   -0.10990E-06   -0.17308E-06 10519   0.296E-03    0.808E-03
RMM:   7    -0.671884469483E+03   -0.21779E-05   -0.43030E-07  7232   0.238E-03    0.420E-03
RMM:   8    -0.671884472124E+03   -0.26412E-05   -0.25215E-08  5280   0.206E-03
 140 F= -.67188447E+03 E0= -.67147492E+03  d E =-.433696E-03  mag=    80.0691
       N       E                     dE             d eps       ncg     rms          rms(c)
DAV:   1    -0.671884603808E+03   -0.13433E-03   -0.11234E-02 27280   0.121E-01    0.698E-02
RMM:   2    -0.671884661562E+03   -0.57754E-04   -0.22462E-04 16629   0.251E-02    0.425E-02
RMM:   3    -0.671884687387E+03   -0.25825E-04   -0.36047E-05 14460   0.114E-02    0.359E-02
RMM:   4    -0.671884683250E+03    0.41369E-05   -0.12265E-05 13464   0.692E-03    0.177E-02
RMM:   5    -0.671884684638E+03   -0.13872E-05   -0.42942E-06 11812   0.382E-03    0.173E-02
RMM:   6    -0.671884684559E+03    0.78231E-07   -0.21556E-06 11058   0.311E-03    0.974E-03
RMM:   7    -0.671884685978E+03   -0.14189E-05   -0.44425E-07  7343   0.241E-03    0.461E-03
RMM:   8    -0.671884687873E+03   -0.18948E-05   -0.22897E-08  5371   0.211E-03
 141 F= -.67188469E+03 E0= -.67147513E+03  d E =-.215749E-03  mag=    80.0690
       N       E                     dE             d eps       ncg     rms          rms(c)
DAV:   1    -0.671884680591E+03    0.53872E-05   -0.13313E-02 27600   0.132E-01    0.760E-02
RMM:   2    -0.671884746602E+03   -0.66011E-04   -0.26602E-04 17196   0.272E-02    0.460E-02
RMM:   3    -0.671884775563E+03   -0.28960E-04   -0.41997E-05 14532   0.121E-02    0.386E-02
RMM:   4    -0.671884769341E+03    0.62222E-05   -0.14367E-05 13810   0.746E-03    0.196E-02
RMM:   5    -0.671884766849E+03    0.24918E-05   -0.51484E-06 12108   0.406E-03    0.192E-02
RMM:   6    -0.671884761709E+03    0.51400E-05   -0.27128E-06 11493   0.335E-03    0.107E-02
RMM:   7    -0.671884758375E+03    0.33341E-05   -0.79573E-07  8504   0.257E-03    0.499E-03
RMM:   8    -0.671884755888E+03    0.24871E-05   -0.47247E-08  5755   0.216E-03
 142 F= -.67188476E+03 E0= -.67147518E+03  d E =-.283764E-03  mag=    80.0688
       N       E                     dE             d eps       ncg     rms          rms(c)
DAV:   1    -0.671884870432E+03   -0.11206E-03   -0.91606E-03 26640   0.106E-01    0.645E-02
RMM:   2    -0.671884912457E+03   -0.42025E-04   -0.18199E-04 16070   0.219E-02    0.393E-02
RMM:   3    -0.671884932133E+03   -0.19676E-04   -0.29159E-05 14465   0.101E-02    0.314E-02
RMM:   4    -0.671884927836E+03    0.42971E-05   -0.96162E-06 12797   0.611E-03    0.162E-02
RMM:   5    -0.671884924293E+03    0.35432E-05   -0.32295E-06 11500   0.344E-03    0.148E-02
RMM:   6    -0.671884920530E+03    0.37621E-05   -0.14359E-06  9779   0.282E-03    0.898E-03
RMM:   7    -0.671884917761E+03    0.27698E-05   -0.46765E-07  7067   0.238E-03    0.447E-03
RMM:   8    -0.671884916212E+03    0.15488E-05   -0.23892E-08  5019   0.210E-03
 143 F= -.67188492E+03 E0= -.67147534E+03  d E =-.160324E-03  mag=    80.0687
       N       E                     dE             d eps       ncg     rms          rms(c)
DAV:   1    -0.671884880747E+03    0.37014E-04   -0.20408E-02 27792   0.158E-01    0.961E-02
RMM:   2    -0.671884981348E+03   -0.10060E-03   -0.39650E-04 18794   0.325E-02    0.581E-02
RMM:   3    -0.671885024745E+03   -0.43398E-04   -0.62139E-05 14617   0.142E-02    0.454E-02
RMM:   4    -0.671885016399E+03    0.83460E-05   -0.22979E-05 14138   0.936E-03    0.241E-02
RMM:   5    -0.671885011279E+03    0.51204E-05   -0.76861E-06 12345   0.487E-03    0.196E-02
RMM:   6    -0.671885005874E+03    0.54049E-05   -0.40168E-06 11842   0.382E-03    0.140E-02
RMM:   7    -0.671885002062E+03    0.38124E-05   -0.15614E-06  9879   0.281E-03    0.777E-03
RMM:   8    -0.671884999555E+03    0.25071E-05   -0.11356E-07  5905   0.222E-03
 144 F= -.67188500E+03 E0= -.67147543E+03  d E =-.243667E-03  mag=    80.0685
       N       E                     dE             d eps       ncg     rms          rms(c)
DAV:   1    -0.671885116776E+03   -0.11471E-03   -0.10021E-02 27648   0.114E-01    0.647E-02
RMM:   2    -0.671885161984E+03   -0.45208E-04   -0.20652E-04 16230   0.236E-02    0.394E-02
RMM:   3    -0.671885180549E+03   -0.18565E-04   -0.31965E-05 14446   0.107E-02    0.303E-02
RMM:   4    -0.671885177320E+03    0.32294E-05   -0.10631E-05 13081   0.636E-03    0.167E-02
RMM:   5    -0.671885175590E+03    0.17299E-05   -0.34948E-06 11551   0.358E-03    0.123E-02
RMM:   6    -0.671885175270E+03    0.31944E-06   -0.14679E-06  9756   0.279E-03    0.921E-03
RMM:   7    -0.671885175831E+03   -0.56019E-06   -0.44938E-07  7018   0.241E-03    0.504E-03
RMM:   8    -0.671885177143E+03   -0.13122E-05   -0.18598E-08  5030   0.214E-03
 145 F= -.67188518E+03 E0= -.67147562E+03  d E =-.177588E-03  mag=    80.0683
       N       E                     dE             d eps       ncg     rms          rms(c)
DAV:   1    -0.671885183630E+03   -0.77989E-05   -0.44415E-03 27552   0.758E-02    0.431E-02
RMM:   2    -0.671885205435E+03   -0.21806E-04   -0.93211E-05 14972   0.158E-02    0.264E-02
RMM:   3    -0.671885215149E+03   -0.97142E-05   -0.14824E-05 14172   0.735E-03    0.211E-02
RMM:   4    -0.671885213627E+03    0.15222E-05   -0.45303E-06 11851   0.432E-03    0.107E-02
RMM:   5    -0.671885214746E+03   -0.11185E-05   -0.10480E-06  8894   0.262E-03    0.780E-03
RMM:   6    -0.671885216045E+03   -0.12992E-05   -0.20578E-07  6255   0.223E-03    0.686E-03
RMM:   7    -0.671885217478E+03   -0.14338E-05   -0.90064E-08  5447   0.219E-03    0.347E-03
RMM:   8    -0.671885219298E+03   -0.18198E-05   -0.89613E-08  5299   0.216E-03
 146 F= -.67188522E+03 E0= -.67147567E+03  d E =-.219744E-03  mag=    80.0681
       N       E                     dE             d eps       ncg     rms          rms(c)
DAV:   1    -0.671885314988E+03   -0.97510E-04   -0.68572E-03 27424   0.931E-02    0.538E-02
RMM:   2    -0.671885348551E+03   -0.33562E-04   -0.14140E-04 15439   0.196E-02    0.324E-02
RMM:   3    -0.671885367332E+03   -0.18781E-04   -0.21257E-05 14281   0.873E-03    0.247E-02
RMM:   4    -0.671885366299E+03    0.10328E-05   -0.69918E-06 12367   0.516E-03    0.148E-02
RMM:   5    -0.671885368548E+03   -0.22491E-05   -0.23245E-06 10686   0.314E-03    0.113E-02
RMM:   6    -0.671885370054E+03   -0.15064E-05   -0.65827E-07  7659   0.248E-03    0.752E-03
RMM:   7    -0.671885371982E+03   -0.19274E-05   -0.27743E-07  6201   0.231E-03    0.387E-03
RMM:   8    -0.671885373326E+03   -0.13448E-05   -0.31101E-08  5035   0.216E-03
 147 F= -.67188537E+03 E0= -.67147585E+03  d E =-.154028E-03  mag=    80.0678
       N       E                     dE             d eps       ncg     rms          rms(c)
DAV:   1    -0.671885357089E+03    0.14893E-04   -0.11696E-02 27568   0.122E-01    0.703E-02
RMM:   2    -0.671885413353E+03   -0.56264E-04   -0.24009E-04 16613   0.255E-02    0.425E-02
RMM:   3    -0.671885442859E+03   -0.29507E-04   -0.35972E-05 14529   0.112E-02    0.320E-02
RMM:   4    -0.671885440557E+03    0.23022E-05   -0.12713E-05 13422   0.685E-03    0.198E-02
RMM:   5    -0.671885442339E+03   -0.17816E-05   -0.43842E-06 11791   0.392E-03    0.148E-02
RMM:   6    -0.671885442936E+03   -0.59698E-06   -0.19687E-06 10433   0.295E-03    0.105E-02
RMM:   7    -0.671885444235E+03   -0.12987E-05   -0.71637E-07  7989   0.252E-03    0.475E-03
RMM:   8    -0.671885445111E+03   -0.87637E-06   -0.26274E-08  5289   0.214E-03
 148 F= -.67188545E+03 E0= -.67147597E+03  d E =-.225813E-03  mag=    80.0676
       N       E                     dE             d eps       ncg     rms          rms(c)
DAV:   1    -0.671885527065E+03   -0.82831E-04   -0.74690E-03 27456   0.978E-02    0.562E-02
RMM:   2    -0.671885558609E+03   -0.31544E-04   -0.15294E-04 15506   0.204E-02    0.334E-02
RMM:   3    -0.671885578391E+03   -0.19782E-04   -0.22679E-05 14354   0.912E-03    0.236E-02
RMM:   4    -0.671885577608E+03    0.78324E-06   -0.75366E-06 12505   0.545E-03    0.149E-02
RMM:   5    -0.671885578072E+03   -0.46426E-06   -0.26105E-06 11380   0.333E-03    0.977E-03
RMM:   6    -0.671885579052E+03   -0.97975E-06   -0.75321E-07  8010   0.252E-03    0.628E-03
RMM:   7    -0.671885579703E+03   -0.65146E-06   -0.22133E-07  6442   0.233E-03    0.413E-03
RMM:   8    -0.671885580395E+03   -0.69197E-06   -0.13189E-08  5046   0.215E-03
 149 F= -.67188558E+03 E0= -.67147614E+03  d E =-.135284E-03  mag=    80.0673
       N       E                     dE             d eps       ncg     rms          rms(c)
DAV:   1    -0.671885565998E+03    0.13705E-04   -0.80297E-03 27248   0.101E-01    0.583E-02
RMM:   2    -0.671885599928E+03   -0.33930E-04   -0.16485E-04 15631   0.213E-02    0.352E-02
RMM:   3    -0.671885621055E+03   -0.21127E-04   -0.25128E-05 14378   0.959E-03    0.263E-02
RMM:   4    -0.671885619231E+03    0.18240E-05   -0.84793E-06 12798   0.574E-03    0.154E-02
RMM:   5    -0.671885618866E+03    0.36461E-06   -0.27537E-06 11435   0.334E-03    0.115E-02
RMM:   6    -0.671885618773E+03    0.93132E-07   -0.78809E-07  8258   0.255E-03    0.746E-03
RMM:   7    -0.671885618975E+03   -0.20210E-06   -0.31512E-07  6484   0.235E-03    0.503E-03
RMM:   8    -0.671885619405E+03   -0.42934E-06   -0.28253E-08  5028   0.217E-03
 150 F= -.67188562E+03 E0= -.67147621E+03  d E =-.174294E-03  mag=    80.0670
       N       E                     dE             d eps       ncg     rms          rms(c)
DAV:   1    -0.671885676583E+03   -0.57608E-04   -0.83779E-03 28224   0.105E-01    0.588E-02
RMM:   2    -0.671885714043E+03   -0.37460E-04   -0.17288E-04 15797   0.218E-02    0.352E-02
RMM:   3    -0.671885735285E+03   -0.21242E-04   -0.26231E-05 14362   0.984E-03    0.269E-02
RMM:   4    -0.671885734298E+03    0.98674E-06   -0.90787E-06 12862   0.597E-03    0.162E-02
RMM:   5    -0.671885735578E+03   -0.12796E-05   -0.31258E-06 11501   0.351E-03    0.116E-02
RMM:   6    -0.671885736296E+03   -0.71805E-06   -0.10972E-06  8839   0.264E-03    0.801E-03
RMM:   7    -0.671885737386E+03   -0.10901E-05   -0.30771E-07  6437   0.236E-03    0.504E-03
RMM:   8    -0.671885738042E+03   -0.65612E-06   -0.17653E-08  5025   0.218E-03
 151 F= -.67188574E+03 E0= -.67147637E+03  d E =-.118637E-03  mag=    80.0667
       N       E                     dE             d eps       ncg     rms          rms(c)
DAV:   1    -0.671885740919E+03   -0.35325E-05   -0.17817E-03 27120   0.487E-02    0.272E-02
RMM:   2    -0.671885749385E+03   -0.84667E-05   -0.38844E-05 14489   0.104E-02    0.167E-02
RMM:   3    -0.671885755123E+03   -0.57379E-05   -0.59096E-06 13092   0.475E-03    0.124E-02
RMM:   4    -0.671885754908E+03    0.21560E-06   -0.16718E-06 10290   0.298E-03    0.750E-03
RMM:   5    -0.671885755997E+03   -0.10896E-05   -0.92649E-08  5462   0.205E-03    0.523E-03
RMM:   6    -0.671885756934E+03   -0.93644E-06   -0.27091E-08  4809   0.197E-03    0.495E-03
RMM:   7    -0.671885757770E+03   -0.83633E-06   -0.23503E-08  4748   0.197E-03    0.292E-03
RMM:   8    -0.671885758492E+03   -0.72177E-06   -0.38279E-08  4752   0.204E-03
 152 F= -.67188576E+03 E0= -.67147641E+03  d E =-.139087E-03  mag=    80.0664
       N       E                     dE             d eps       ncg     rms          rms(c)
DAV:   1    -0.671885816599E+03   -0.58829E-04   -0.40104E-03 26736   0.773E-02    0.383E-02
RMM:   2    -0.671885834341E+03   -0.17742E-04   -0.91226E-05 14815   0.162E-02    0.234E-02
RMM:   3    -0.671885847515E+03   -0.13174E-04   -0.13377E-05 14206   0.731E-03    0.182E-02
RMM:   4    -0.671885848155E+03   -0.63982E-06   -0.40715E-06 11895   0.418E-03    0.114E-02
RMM:   5    -0.671885851685E+03   -0.35297E-05   -0.78993E-07  8496   0.258E-03    0.830E-03
RMM:   6    -0.671885854356E+03   -0.26715E-05   -0.18457E-07  6006   0.226E-03    0.653E-03
RMM:   7    -0.671885856824E+03   -0.24680E-05   -0.60771E-08  5262   0.219E-03    0.373E-03
RMM:   8    -0.671885858481E+03   -0.16564E-05   -0.16983E-07  5478   0.217E-03
 153 F= -.67188586E+03 E0= -.67147653E+03  d E =-.999891E-04  mag=    80.0662
