       N       E                     dE             d eps       ncg     rms          rms(c)
DAV:   1     0.901692711896E+04    0.90169E+04   -0.34259E+05 24864   0.112E+03
DAV:   2     0.779688324561E+03   -0.82372E+04   -0.74201E+04 31008   0.304E+02
DAV:   3    -0.911575054504E+03   -0.16913E+04   -0.16691E+04 29600   0.149E+02
DAV:   4    -0.996063632862E+03   -0.84489E+02   -0.83909E+02 33296   0.410E+01
DAV:   5    -0.999433791899E+03   -0.33702E+01   -0.33608E+01 39904   0.650E+00    0.176E+02
RMM:   6    -0.945214520481E+03    0.54219E+02   -0.27804E+03 27036   0.918E+01    0.355E+02
RMM:   7    -0.731252304061E+03    0.21396E+03   -0.33272E+02 24333   0.305E+01    0.211E+02
RMM:   8    -0.907325414118E+03   -0.17607E+03   -0.31129E+02 24399   0.278E+01    0.215E+02
RMM:   9    -0.662466878519E+03    0.24486E+03   -0.16307E+02 24338   0.206E+01    0.146E+02
RMM:  10    -0.556701598632E+03    0.10577E+03   -0.78787E+01 24355   0.151E+01    0.838E+01
RMM:  11    -0.533372064326E+03    0.23330E+02   -0.30421E+01 24381   0.853E+00    0.815E+01
RMM:  12    -0.528223767239E+03    0.51483E+01   -0.15537E+01 24587   0.646E+00    0.745E+01
RMM:  13    -0.522006994296E+03    0.62168E+01   -0.15898E+01 24517   0.639E+00    0.639E+01
RMM:  14    -0.513373692138E+03    0.86333E+01   -0.13073E+01 24754   0.590E+00    0.517E+01
RMM:  15    -0.498226016577E+03    0.15148E+02   -0.96002E+00 24363   0.488E+00    0.449E+01
RMM:  16    -0.489388497710E+03    0.88375E+01   -0.45333E+00 24566   0.342E+00    0.393E+01
RMM:  17    -0.480666637180E+03    0.87219E+01   -0.29462E+00 25083   0.259E+00    0.369E+01
RMM:  18    -0.471351603042E+03    0.93150E+01   -0.26106E+00 24956   0.252E+00    0.348E+01
RMM:  19    -0.463363455260E+03    0.79881E+01   -0.20614E+00 25146   0.225E+00    0.316E+01
RMM:  20    -0.457244366421E+03    0.61191E+01   -0.16933E+00 25442   0.186E+00    0.304E+01
RMM:  21    -0.454350980167E+03    0.28934E+01   -0.11624E+00 25520   0.169E+00    0.299E+01
RMM:  22    -0.452113332063E+03    0.22376E+01   -0.12532E+00 26170   0.175E+00    0.283E+01
RMM:  23    -0.456542611944E+03   -0.44293E+01   -0.16041E+00 27776   0.193E+00    0.287E+01
RMM:  24    -0.461059872908E+03   -0.45173E+01   -0.12321E+00 26508   0.171E+00    0.269E+01
RMM:  25    -0.470388792064E+03   -0.93289E+01   -0.19390E+00 28321   0.206E+00    0.265E+01
RMM:  26    -0.482894707742E+03   -0.12506E+02   -0.21823E+00 28887   0.210E+00    0.259E+01
RMM:  27    -0.499031904185E+03   -0.16137E+02   -0.32282E+00 29357   0.238E+00    0.250E+01
RMM:  28    -0.518032475385E+03   -0.19001E+02   -0.51016E+00 31834   0.283E+00    0.242E+01
RMM:  29    -0.538030722849E+03   -0.19998E+02   -0.64768E+00 32798   0.313E+00    0.236E+01
RMM:  30    -0.556973755052E+03   -0.18943E+02   -0.67303E+00 32754   0.316E+00    0.231E+01
RMM:  31    -0.579659225641E+03   -0.22685E+02   -0.94120E+00 34765   0.378E+00    0.220E+01
RMM:  32    -0.598411064520E+03   -0.18752E+02   -0.94194E+00 35115   0.377E+00    0.213E+01
RMM:  33    -0.614594922261E+03   -0.16184E+02   -0.11265E+01 35807   0.384E+00    0.206E+01
RMM:  34    -0.620205425904E+03   -0.56105E+01   -0.35930E+00 33135   0.241E+00    0.182E+01
RMM:  35    -0.624126273910E+03   -0.39208E+01   -0.10911E+00 29739   0.146E+00    0.169E+01
RMM:  36    -0.627894747449E+03   -0.37685E+01   -0.78576E-01 28628   0.124E+00    0.161E+01
RMM:  37    -0.629543820923E+03   -0.16491E+01   -0.53236E-01 27979   0.104E+00    0.152E+01
RMM:  38    -0.633434654124E+03   -0.38908E+01   -0.64658E-01 29820   0.109E+00    0.141E+01
RMM:  39    -0.638676810517E+03   -0.52422E+01   -0.10646E+00 31917   0.127E+00    0.137E+01
RMM:  40    -0.642483426475E+03   -0.38066E+01   -0.14228E+00 32371   0.140E+00    0.136E+01
RMM:  41    -0.644853902780E+03   -0.23705E+01   -0.13234E+00 31983   0.130E+00    0.144E+01
RMM:  42    -0.646599092032E+03   -0.17452E+01   -0.71361E-01 30330   0.100E+00    0.144E+01
RMM:  43    -0.649242926301E+03   -0.26438E+01   -0.61639E-01 30216   0.956E-01    0.147E+01
RMM:  44    -0.651056023492E+03   -0.18131E+01   -0.41789E-01 29303   0.839E-01    0.142E+01
RMM:  45    -0.654912415545E+03   -0.38564E+01   -0.95770E-01 32276   0.116E+00    0.149E+01
RMM:  46    -0.656771745089E+03   -0.18593E+01   -0.74602E-01 31188   0.101E+00    0.147E+01
RMM:  47    -0.658163047937E+03   -0.13913E+01   -0.58574E-01 30614   0.924E-01    0.140E+01
RMM:  48    -0.659435144821E+03   -0.12721E+01   -0.35506E-01 29108   0.743E-01    0.126E+01
RMM:  49    -0.661231111861E+03   -0.17960E+01   -0.29093E-01 29052   0.651E-01    0.111E+01
RMM:  50    -0.663065832040E+03   -0.18347E+01   -0.34771E-01 30288   0.690E-01    0.955E+00
RMM:  51    -0.664439365725E+03   -0.13735E+01   -0.71840E-01 34901   0.114E+00    0.677E+00
RMM:  52    -0.665586502831E+03   -0.11471E+01   -0.32145E-01 30861   0.687E-01    0.592E+00
RMM:  53    -0.667506929360E+03   -0.19204E+01   -0.42913E-01 30100   0.607E-01    0.478E+00
RMM:  54    -0.668911200164E+03   -0.14043E+01   -0.82655E-02 26456   0.402E-01    0.408E+00
RMM:  55    -0.669198810917E+03   -0.28761E+00   -0.42595E-02 25159   0.297E-01    0.360E+00
RMM:  56    -0.669529952562E+03   -0.33114E+00   -0.95199E-02 28511   0.373E-01    0.327E+00
RMM:  57    -0.669481872078E+03    0.48080E-01   -0.11859E-01 28307   0.365E-01    0.285E+00
RMM:  58    -0.669346463302E+03    0.13541E+00   -0.58780E-02 27942   0.309E-01    0.258E+00
RMM:  59    -0.669348794274E+03   -0.23310E-02   -0.34824E-02 26901   0.260E-01    0.244E+00
RMM:  60    -0.669346627552E+03    0.21667E-02   -0.27406E-02 26250   0.228E-01    0.214E+00
RMM:  61    -0.669515892189E+03   -0.16926E+00   -0.39104E-02 27382   0.303E-01    0.221E+00
RMM:  62    -0.669642624055E+03   -0.12673E+00   -0.25669E-02 26834   0.220E-01    0.160E+00
RMM:  63    -0.669698738120E+03   -0.56114E-01   -0.11314E-02 25356   0.142E-01    0.142E+00
RMM:  64    -0.669850664441E+03   -0.15193E+00   -0.77412E-03 25113   0.119E-01    0.130E+00
RMM:  65    -0.669962874692E+03   -0.11221E+00   -0.86549E-03 26161   0.119E-01    0.121E+00
RMM:  66    -0.670013300130E+03   -0.50425E-01   -0.41828E-03 24487   0.881E-02    0.116E+00
RMM:  67    -0.670031944104E+03   -0.18644E-01   -0.22908E-03 22932   0.683E-02    0.110E+00
RMM:  68    -0.670120423779E+03   -0.88480E-01   -0.37949E-03 25768   0.661E-02    0.108E+00
RMM:  69    -0.670217593992E+03   -0.97170E-01   -0.44633E-03 26530   0.741E-02    0.105E+00
RMM:  70    -0.670198133680E+03    0.19460E-01   -0.36754E-03 25652   0.657E-02    0.101E+00
RMM:  71    -0.670130300656E+03    0.67833E-01   -0.31828E-03 26100   0.638E-02    0.984E-01
RMM:  72    -0.670003198433E+03    0.12710E+00   -0.50982E-03 28584   0.746E-02    0.947E-01
RMM:  73    -0.670098568612E+03   -0.95370E-01   -0.37471E-03 27648   0.633E-02    0.905E-01
RMM:  74    -0.670088797232E+03    0.97714E-02   -0.44713E-03 28370   0.701E-02    0.842E-01
RMM:  75    -0.670074384832E+03    0.14412E-01   -0.25092E-03 26479   0.647E-02    0.761E-01
RMM:  76    -0.670001502151E+03    0.72883E-01   -0.19659E-03 25816   0.571E-02    0.715E-01
RMM:  77    -0.670031882736E+03   -0.30381E-01   -0.31833E-03 27417   0.715E-02    0.642E-01
RMM:  78    -0.670024358533E+03    0.75242E-02   -0.55838E-03 30585   0.871E-02    0.550E-01
RMM:  79    -0.670121683856E+03   -0.97325E-01   -0.38799E-03 28351   0.693E-02    0.405E-01
RMM:  80    -0.670234513158E+03   -0.11283E+00   -0.41253E-03 27010   0.612E-02
   1 F= -.67023451E+03 E0= -.66982155E+03  d E =-.670235E+03  mag=    80.3299
       N       E                     dE             d eps       ncg     rms          rms(c)
DAV:   1    -0.669492204716E+03    0.62948E+00   -0.17017E+02 28048   0.120E+01    0.408E+00
RMM:   2    -0.669964177024E+03   -0.47197E+00   -0.46263E+00 24321   0.226E+00    0.296E+00
RMM:   3    -0.670193554469E+03   -0.22938E+00   -0.78308E-01 24582   0.107E+00    0.405E+00
RMM:   4    -0.670180542092E+03    0.13012E-01   -0.13444E-01 24046   0.560E-01    0.124E+00
RMM:   5    -0.670264141554E+03   -0.83599E-01   -0.50197E-02 24145   0.275E-01    0.131E+00
RMM:   6    -0.670320549562E+03   -0.56408E-01   -0.21945E-02 24042   0.193E-01    0.121E+00
RMM:   7    -0.670367497006E+03   -0.46947E-01   -0.11771E-02 23988   0.154E-01    0.946E-01
RMM:   8    -0.670381834409E+03   -0.14337E-01   -0.45169E-03 24026   0.890E-02    0.332E-01
RMM:   9    -0.670396664199E+03   -0.14830E-01   -0.23510E-03 24107   0.593E-02    0.286E-01
RMM:  10    -0.670412576307E+03   -0.15912E-01   -0.90812E-04 22578   0.415E-02    0.179E-01
RMM:  11    -0.670429392562E+03   -0.16816E-01   -0.47924E-04 21397   0.222E-02    0.147E-01
RMM:  12    -0.670451919668E+03   -0.22527E-01   -0.28836E-04 18654   0.194E-02    0.150E-01
RMM:  13    -0.670476060445E+03   -0.24141E-01   -0.27659E-04 17510   0.188E-02    0.128E-01
RMM:  14    -0.670488734936E+03   -0.12674E-01   -0.16094E-04 16003   0.137E-02    0.124E-01
RMM:  15    -0.670502444339E+03   -0.13709E-01   -0.19354E-04 16517   0.135E-02    0.114E-01
RMM:  16    -0.670522839156E+03   -0.20395E-01   -0.30976E-04 17281   0.151E-02    0.112E-01
RMM:  17    -0.670556456401E+03   -0.33617E-01   -0.36858E-04 17525   0.156E-02    0.102E-01
RMM:  18    -0.670585409708E+03   -0.28953E-01   -0.18596E-04 16445   0.126E-02    0.964E-02
RMM:  19    -0.670609098796E+03   -0.23689E-01   -0.92791E-05 15072   0.104E-02    0.908E-02
RMM:  20    -0.670626781384E+03   -0.17683E-01   -0.49679E-05 14301   0.936E-03    0.888E-02
RMM:  21    -0.670645081532E+03   -0.18300E-01   -0.38009E-05 14206   0.787E-03    0.824E-02
RMM:  22    -0.670670217435E+03   -0.25136E-01   -0.40974E-05 14812   0.817E-03    0.781E-02
RMM:  23    -0.670689956449E+03   -0.19739E-01   -0.28262E-05 13862   0.792E-03    0.745E-02
RMM:  24    -0.670720063616E+03   -0.30107E-01   -0.32327E-05 14334   0.861E-03    0.704E-02
RMM:  25    -0.670745865963E+03   -0.25802E-01   -0.28910E-05 13512   0.759E-03    0.631E-02
RMM:  26    -0.670764008400E+03   -0.18142E-01   -0.32987E-05 13257   0.663E-03    0.603E-02
RMM:  27    -0.670779057612E+03   -0.15049E-01   -0.28703E-05 13171   0.596E-03    0.553E-02
RMM:  28    -0.670796084978E+03   -0.17027E-01   -0.31484E-05 13470   0.618E-03    0.521E-02
RMM:  29    -0.670815105596E+03   -0.19021E-01   -0.46188E-05 13885   0.737E-03    0.495E-02
RMM:  30    -0.670827550774E+03   -0.12445E-01   -0.28704E-05 13157   0.657E-03    0.424E-02
RMM:  31    -0.670841093134E+03   -0.13542E-01   -0.23045E-05 13124   0.584E-03    0.393E-02
RMM:  32    -0.670858564154E+03   -0.17471E-01   -0.20339E-05 13039   0.549E-03    0.348E-02
RMM:  33    -0.670871660021E+03   -0.13096E-01   -0.13305E-05 12644   0.474E-03    0.314E-02
RMM:  34    -0.670881672962E+03   -0.10013E-01   -0.89255E-06 12127   0.408E-03    0.290E-02
RMM:  35    -0.670891645233E+03   -0.99723E-02   -0.88059E-06 12035   0.402E-03    0.269E-02
RMM:  36    -0.670902759181E+03   -0.11114E-01   -0.10850E-05 12403   0.417E-03    0.245E-02
RMM:  37    -0.670909997750E+03   -0.72386E-02   -0.11247E-05 12420   0.415E-03    0.212E-02
RMM:  38    -0.670914102854E+03   -0.41051E-02   -0.67986E-06 11524   0.376E-03    0.188E-02
RMM:  39    -0.670917484649E+03   -0.33818E-02   -0.47533E-06 10303   0.317E-03    0.167E-02
RMM:  40    -0.670921412443E+03   -0.39278E-02   -0.53388E-06 10744   0.314E-03    0.160E-02
RMM:  41    -0.670926007476E+03   -0.45950E-02   -0.69945E-06 11047   0.333E-03    0.142E-02
RMM:  42    -0.670929707333E+03   -0.36999E-02   -0.53042E-06 10640   0.317E-03    0.116E-02
RMM:  43    -0.670932650357E+03   -0.29430E-02   -0.30978E-06  9743   0.284E-03    0.961E-03
RMM:  44    -0.670934142469E+03   -0.14921E-02   -0.94372E-07  7848   0.237E-03    0.733E-03
RMM:  45    -0.670935346828E+03   -0.12044E-02   -0.12665E-06  7711   0.235E-03    0.643E-03
RMM:  46    -0.670935870608E+03   -0.52378E-03   -0.14311E-06  7585   0.230E-03    0.552E-03
RMM:  47    -0.670936125032E+03   -0.25442E-03   -0.15141E-06  7587   0.227E-03    0.461E-03
RMM:  48    -0.670936272213E+03   -0.14718E-03   -0.12339E-06  7000   0.217E-03    0.389E-03
RMM:  49    -0.670936288162E+03   -0.15949E-04   -0.22713E-06  7900   0.230E-03
   2 F= -.67093629E+03 E0= -.67052142E+03  d E =-.701775E+00  mag=    80.0004
       N       E                     dE             d eps       ncg     rms          rms(c)
DAV:   1    -0.670949495061E+03   -0.13223E-01   -0.16680E+00 26864   0.124E+00    0.394E-01
RMM:   2    -0.670952680712E+03   -0.31857E-02   -0.34394E-02 22985   0.208E-01    0.279E-01
RMM:   3    -0.670954354465E+03   -0.16738E-02   -0.55949E-03 21971   0.978E-02    0.393E-01
RMM:   4    -0.670953895178E+03    0.45929E-03   -0.12962E-03 19910   0.538E-02    0.113E-01
RMM:   5    -0.670954016416E+03   -0.12124E-03   -0.45211E-04 17739   0.250E-02    0.109E-01
RMM:   6    -0.670954095090E+03   -0.78673E-04   -0.19924E-04 16020   0.192E-02    0.121E-01
RMM:   7    -0.670954081423E+03    0.13667E-04   -0.88812E-05 14091   0.153E-02    0.693E-02
RMM:   8    -0.670954091801E+03   -0.10379E-04   -0.31333E-05 12995   0.877E-03
   3 F= -.67095409E+03 E0= -.67053937E+03  d E =-.719579E+00  mag=    79.9996
       N       E                     dE             d eps       ncg     rms          rms(c)
DAV:   1    -0.670982007782E+03   -0.27926E-01   -0.53820E+00 26752   0.219E+00    0.694E-01
RMM:   2    -0.670991109455E+03   -0.91017E-02   -0.10732E-01 24037   0.351E-01    0.397E-01
RMM:   3    -0.670996565442E+03   -0.54560E-02   -0.15650E-02 22879   0.154E-01    0.491E-01
RMM:   4    -0.670996121426E+03    0.44402E-03   -0.37464E-03 21744   0.873E-02    0.216E-01
RMM:   5    -0.670996285739E+03   -0.16431E-03   -0.10541E-03 19823   0.425E-02    0.130E-01
RMM:   6    -0.670996387145E+03   -0.10141E-03   -0.46950E-04 18478   0.284E-02    0.143E-01
RMM:   7    -0.670996368458E+03    0.18687E-04   -0.20322E-04 16286   0.222E-02    0.953E-02
RMM:   8    -0.670996347022E+03    0.21436E-04   -0.77410E-05 13992   0.122E-02
   4 F= -.67099635E+03 E0= -.67058113E+03  d E =-.422552E-01  mag=    79.9994
       N       E                     dE             d eps       ncg     rms          rms(c)
DAV:   1    -0.670997672144E+03   -0.13037E-02   -0.10846E-01 26416   0.313E-01    0.102E-01
RMM:   2    -0.670997920268E+03   -0.24812E-03   -0.21589E-03 20074   0.519E-02    0.812E-02
RMM:   3    -0.670998050119E+03   -0.12985E-03   -0.34312E-04 16345   0.256E-02    0.999E-02
RMM:   4    -0.670998035443E+03    0.14676E-04   -0.83347E-05 13714   0.155E-02    0.395E-02
RMM:   5    -0.670998068007E+03   -0.32564E-04   -0.21684E-05 12581   0.658E-03    0.382E-02
RMM:   6    -0.670998081164E+03   -0.13156E-04   -0.10701E-05 12058   0.552E-03    0.222E-02
RMM:   7    -0.670998110646E+03   -0.29483E-04   -0.47431E-06 10692   0.368E-03    0.124E-02
RMM:   8    -0.670998130314E+03   -0.19667E-04   -0.15848E-06  9061   0.278E-03
   5 F= -.67099813E+03 E0= -.67058305E+03  d E =-.440385E-01  mag=    79.9991
       N       E                     dE             d eps       ncg     rms          rms(c)
DAV:   1    -0.671078349481E+03   -0.80239E-01   -0.66007E-01 26000   0.932E-01    0.254E-01
RMM:   2    -0.671079736696E+03   -0.13872E-02   -0.17654E-02 23529   0.184E-01    0.237E-01
RMM:   3    -0.671080078227E+03   -0.34153E-03   -0.31289E-03 22343   0.806E-02    0.252E-01
RMM:   4    -0.671079824614E+03    0.25361E-03   -0.68828E-04 19865   0.426E-02    0.924E-02
RMM:   5    -0.671079856597E+03   -0.31983E-04   -0.27824E-04 17344   0.222E-02    0.104E-01
RMM:   6    -0.671079832611E+03    0.23986E-04   -0.11902E-04 14844   0.160E-02    0.866E-02
RMM:   7    -0.671079808578E+03    0.24033E-04   -0.63544E-05 13817   0.122E-02    0.460E-02
RMM:   8    -0.671079811908E+03   -0.33295E-05   -0.21262E-05 13002   0.759E-03
   6 F= -.67107981E+03 E0= -.67066460E+03  d E =-.816816E-01  mag=    79.9992
       N       E                     dE             d eps       ncg     rms          rms(c)
DAV:   1    -0.671169998823E+03   -0.90190E-01   -0.36083E+00 26288   0.218E+00    0.583E-01
RMM:   2    -0.671178067570E+03   -0.80687E-02   -0.96123E-02 24149   0.429E-01    0.547E-01
RMM:   3    -0.671180001284E+03   -0.19337E-02   -0.17100E-02 23492   0.189E-01    0.589E-01
RMM:   4    -0.671178709212E+03    0.12921E-02   -0.37371E-03 22740   0.985E-02    0.202E-01
RMM:   5    -0.671178804079E+03   -0.94866E-04   -0.14758E-03 22434   0.482E-02    0.210E-01
RMM:   6    -0.671178705608E+03    0.98471E-04   -0.63633E-04 20552   0.325E-02    0.173E-01
RMM:   7    -0.671178646632E+03    0.58976E-04   -0.33029E-04 18500   0.250E-02    0.125E-01
RMM:   8    -0.671178602395E+03    0.44237E-04   -0.10944E-04 15117   0.153E-02
   7 F= -.67117860E+03 E0= -.67076330E+03  d E =-.180472E+00  mag=    80.0003
       N       E                     dE             d eps       ncg     rms          rms(c)
DAV:   1    -0.671192021238E+03   -0.13375E-01   -0.72966E-01 27136   0.976E-01    0.261E-01
RMM:   2    -0.671193398502E+03   -0.13773E-02   -0.19333E-02 23580   0.193E-01    0.263E-01
RMM:   3    -0.671193634304E+03   -0.23580E-03   -0.34781E-03 22508   0.859E-02    0.254E-01
RMM:   4    -0.671193291714E+03    0.34259E-03   -0.76098E-04 20197   0.439E-02    0.920E-02
RMM:   5    -0.671193270881E+03    0.20833E-04   -0.32434E-04 17693   0.230E-02    0.950E-02
RMM:   6    -0.671193271244E+03   -0.36368E-06   -0.13593E-04 15224   0.165E-02    0.756E-02
RMM:   7    -0.671193301427E+03   -0.30182E-04   -0.67714E-05 14035   0.129E-02    0.593E-02
RMM:   8    -0.671193333573E+03   -0.32146E-04   -0.25359E-05 13250   0.822E-03
   8 F= -.67119333E+03 E0= -.67077806E+03  d E =-.195203E+00  mag=    80.0019
       N       E                     dE             d eps       ncg     rms          rms(c)
DAV:   1    -0.671267971411E+03   -0.74670E-01   -0.17732E+00 26816   0.151E+00    0.398E-01
RMM:   2    -0.671271100747E+03   -0.31293E-02   -0.45711E-02 24068   0.283E-01    0.398E-01
RMM:   3    -0.671271917897E+03   -0.81715E-03   -0.75085E-03 23088   0.128E-01    0.376E-01
RMM:   4    -0.671271438589E+03    0.47931E-03   -0.16420E-03 21940   0.650E-02    0.147E-01
RMM:   5    -0.671271578357E+03   -0.13977E-03   -0.61759E-04 20446   0.326E-02    0.152E-01
RMM:   6    -0.671271673043E+03   -0.94687E-04   -0.24669E-04 17150   0.222E-02    0.120E-01
RMM:   7    -0.671271805735E+03   -0.13269E-03   -0.16503E-04 16092   0.176E-02    0.823E-02
RMM:   8    -0.671271944254E+03   -0.13852E-03   -0.58129E-05 14125   0.123E-02    0.428E-02
RMM:   9    -0.671272043807E+03   -0.99553E-04   -0.25676E-05 12807   0.784E-03
   9 F= -.67127204E+03 E0= -.67085715E+03  d E =-.787102E-01  mag=    80.0035
       N       E                     dE             d eps       ncg     rms          rms(c)
DAV:   1    -0.671282120152E+03   -0.10176E-01   -0.35235E-01 27040   0.673E-01    0.178E-01
RMM:   2    -0.671282708579E+03   -0.58843E-03   -0.90712E-03 23149   0.127E-01    0.182E-01
RMM:   3    -0.671282895764E+03   -0.18718E-03   -0.15171E-03 21668   0.576E-02    0.176E-01
RMM:   4    -0.671282811941E+03    0.83823E-04   -0.33388E-04 17742   0.293E-02    0.711E-02
RMM:   5    -0.671282907655E+03   -0.95714E-04   -0.12523E-04 14915   0.159E-02    0.797E-02
RMM:   6    -0.671282999871E+03   -0.92216E-04   -0.52168E-05 13708   0.117E-02    0.495E-02
RMM:   7    -0.671283144869E+03   -0.14500E-03   -0.37401E-05 13336   0.854E-03    0.340E-02
RMM:   8    -0.671283287128E+03   -0.14226E-03   -0.14979E-05 12639   0.650E-03    0.196E-02
RMM:   9    -0.671283364506E+03   -0.77378E-04   -0.67822E-06 11564   0.411E-03
  10 F= -.67128336E+03 E0= -.67086862E+03  d E =-.900309E-01  mag=    80.0049
       N       E                     dE             d eps       ncg     rms          rms(c)
DAV:   1    -0.671316067606E+03   -0.32780E-01   -0.20991E+00 26048   0.155E+00    0.410E-01
RMM:   2    -0.671319954501E+03   -0.38869E-02   -0.47378E-02 24190   0.265E-01    0.309E-01
RMM:   3    -0.671321546060E+03   -0.15916E-02   -0.67839E-03 23224   0.114E-01    0.382E-01
RMM:   4    -0.671320965696E+03    0.58036E-03   -0.14359E-03 22237   0.592E-02    0.181E-01
RMM:   5    -0.671321050198E+03   -0.84502E-04   -0.51071E-04 20028   0.299E-02    0.147E-01
RMM:   6    -0.671321081838E+03   -0.31640E-04   -0.20572E-04 16525   0.220E-02    0.998E-02
RMM:   7    -0.671321202685E+03   -0.12085E-03   -0.15809E-04 15592   0.184E-02    0.707E-02
RMM:   8    -0.671321313155E+03   -0.11047E-03   -0.55192E-05 13713   0.120E-02    0.311E-02
RMM:   9    -0.671321388843E+03   -0.75688E-04   -0.18324E-05 12650   0.635E-03
  11 F= -.67132139E+03 E0= -.67090673E+03  d E =-.380243E-01  mag=    80.0062
       N       E                     dE             d eps       ncg     rms          rms(c)
DAV:   1    -0.671323439106E+03   -0.21260E-02   -0.55516E-02 27088   0.252E-01    0.680E-02
RMM:   2    -0.671323716363E+03   -0.27726E-03   -0.12297E-03 19811   0.432E-02    0.573E-02
RMM:   3    -0.671323827440E+03   -0.11108E-03   -0.17312E-04 15325   0.196E-02    0.573E-02
RMM:   4    -0.671323889821E+03   -0.62381E-04   -0.42420E-05 13236   0.115E-02    0.322E-02
RMM:   5    -0.671323965575E+03   -0.75754E-04   -0.11872E-05 12226   0.567E-03    0.248E-02
RMM:   6    -0.671324032777E+03   -0.67203E-04   -0.52023E-06 11557   0.402E-03    0.187E-02
RMM:   7    -0.671324114542E+03   -0.81765E-04   -0.34008E-06 10536   0.322E-03    0.131E-02
RMM:   8    -0.671324182381E+03   -0.67838E-04   -0.91893E-07  7790   0.247E-03
  12 F= -.67132418E+03 E0= -.67090949E+03  d E =-.408179E-01  mag=    80.0073
       N       E                     dE             d eps       ncg     rms          rms(c)
DAV:   1    -0.671353211625E+03   -0.29097E-01   -0.86316E-01 26176   0.106E+00    0.240E-01
RMM:   2    -0.671355063664E+03   -0.18520E-02   -0.18587E-02 23970   0.185E-01    0.180E-01
RMM:   3    -0.671355821882E+03   -0.75822E-03   -0.29469E-03 22576   0.802E-02    0.224E-01
RMM:   4    -0.671355789356E+03    0.32526E-04   -0.69639E-04 20273   0.426E-02    0.841E-02
RMM:   5    -0.671355908139E+03   -0.11878E-03   -0.24656E-04 16828   0.205E-02    0.731E-02
RMM:   6    -0.671355967714E+03   -0.59575E-04   -0.92192E-05 14637   0.140E-02    0.725E-02
RMM:   7    -0.671356010885E+03   -0.43171E-04   -0.50553E-05 13917   0.115E-02    0.513E-02
RMM:   8    -0.671356034024E+03   -0.23140E-04   -0.20467E-05 13101   0.735E-03
  13 F= -.67135603E+03 E0= -.67094112E+03  d E =-.318516E-01  mag=    80.0084
       N       E                     dE             d eps       ncg     rms          rms(c)
DAV:   1    -0.671356397682E+03   -0.38680E-03   -0.10695E-02 26784   0.119E-01    0.321E-02
RMM:   2    -0.671356459962E+03   -0.62280E-04   -0.25509E-04 16320   0.224E-02    0.450E-02
RMM:   3    -0.671356476217E+03   -0.16254E-04   -0.47993E-05 13456   0.119E-02    0.237E-02
RMM:   4    -0.671356502436E+03   -0.26219E-04   -0.10292E-05 12308   0.568E-03    0.144E-02
RMM:   5    -0.671356523442E+03   -0.21006E-04   -0.34391E-06 10151   0.328E-03    0.137E-02
RMM:   6    -0.671356544374E+03   -0.20932E-04   -0.15474E-06  8884   0.262E-03    0.972E-03
RMM:   7    -0.671356569164E+03   -0.24789E-04   -0.95611E-07  8079   0.248E-03    0.728E-03
RMM:   8    -0.671356585949E+03   -0.16785E-04   -0.22546E-07  6216   0.223E-03
  14 F= -.67135659E+03 E0= -.67094165E+03  d E =-.324036E-01  mag=    80.0097
       N       E                     dE             d eps       ncg     rms          rms(c)
DAV:   1    -0.671369612109E+03   -0.13043E-01   -0.30213E-01 25856   0.597E-01    0.163E-01
RMM:   2    -0.671370368533E+03   -0.75642E-03   -0.72559E-03 23227   0.108E-01    0.137E-01
RMM:   3    -0.671370645438E+03   -0.27690E-03   -0.11190E-03 20936   0.489E-02    0.156E-01
RMM:   4    -0.671370621382E+03    0.24056E-04   -0.26976E-04 16767   0.263E-02    0.562E-02
RMM:   5    -0.671370668045E+03   -0.46663E-04   -0.89556E-05 14312   0.139E-02    0.547E-02
RMM:   6    -0.671370672657E+03   -0.46114E-05   -0.38318E-05 13432   0.957E-03    0.464E-02
RMM:   7    -0.671370674420E+03   -0.17635E-05   -0.21220E-05 12987   0.725E-03    0.331E-02
RMM:   8    -0.671370678606E+03   -0.41854E-05   -0.83118E-06 12118   0.503E-03
  15 F= -.67137068E+03 E0= -.67095564E+03  d E =-.140927E-01  mag=    80.0107
       N       E                     dE             d eps       ncg     rms          rms(c)
DAV:   1    -0.671373418148E+03   -0.27437E-02   -0.15192E-01 26896   0.424E-01    0.115E-01
RMM:   2    -0.671373830467E+03   -0.41232E-03   -0.36419E-03 22653   0.766E-02    0.970E-02
RMM:   3    -0.671373972270E+03   -0.14180E-03   -0.56489E-04 18909   0.347E-02    0.110E-01
RMM:   4    -0.671373969793E+03    0.24764E-05   -0.13743E-04 15029   0.193E-02    0.400E-02
RMM:   5    -0.671373987880E+03   -0.18086E-04   -0.45090E-05 13422   0.101E-02    0.353E-02
RMM:   6    -0.671373983770E+03    0.41099E-05   -0.20609E-05 12518   0.698E-03    0.236E-02
RMM:   7    -0.671373987842E+03   -0.40722E-05   -0.10973E-05 12192   0.550E-03    0.203E-02
RMM:   8    -0.671373990566E+03   -0.27246E-05   -0.47434E-06 11079   0.398E-03
  16 F= -.67137399E+03 E0= -.67095884E+03  d E =-.174046E-01  mag=    80.0117
       N       E                     dE             d eps       ncg     rms          rms(c)
DAV:   1    -0.671382968247E+03   -0.89804E-02   -0.26560E-01 26288   0.505E-01    0.147E-01
RMM:   2    -0.671383487521E+03   -0.51927E-03   -0.53466E-03 22731   0.790E-02    0.102E-01
RMM:   3    -0.671383683746E+03   -0.19622E-03   -0.66091E-04 18850   0.357E-02    0.126E-01
RMM:   4    -0.671383635963E+03    0.47783E-04   -0.16961E-04 15390   0.210E-02    0.585E-02
RMM:   5    -0.671383617609E+03    0.18354E-04   -0.57960E-05 13805   0.110E-02    0.547E-02
RMM:   6    -0.671383584182E+03    0.33427E-04   -0.25844E-05 13052   0.805E-03    0.376E-02
RMM:   7    -0.671383564205E+03    0.19977E-04   -0.16671E-05 12552   0.667E-03    0.268E-02
RMM:   8    -0.671383561679E+03    0.25267E-05   -0.61674E-06 11710   0.457E-03
  17 F= -.67138356E+03 E0= -.67096833E+03  d E =-.957111E-02  mag=    80.0127
       N       E                     dE             d eps       ncg     rms          rms(c)
DAV:   1    -0.671385158154E+03   -0.15939E-02   -0.19617E-01 26352   0.434E-01    0.127E-01
RMM:   2    -0.671385566151E+03   -0.40800E-03   -0.39563E-03 22216   0.680E-02    0.852E-02
RMM:   3    -0.671385695517E+03   -0.12937E-03   -0.48285E-04 17878   0.306E-02    0.992E-02
RMM:   4    -0.671385669102E+03    0.26415E-04   -0.12783E-04 14686   0.185E-02    0.488E-02
RMM:   5    -0.671385644443E+03    0.24659E-04   -0.42400E-05 13345   0.977E-03    0.363E-02
RMM:   6    -0.671385625679E+03    0.18765E-04   -0.19654E-05 12779   0.668E-03    0.349E-02
RMM:   7    -0.671385612671E+03    0.13007E-04   -0.10653E-05 12423   0.539E-03    0.278E-02
RMM:   8    -0.671385610582E+03    0.20894E-05   -0.43100E-06 11259   0.387E-03
  18 F= -.67138561E+03 E0= -.67097030E+03  d E =-.116200E-01  mag=    80.0137
       N       E                     dE             d eps       ncg     rms          rms(c)
DAV:   1    -0.671398231629E+03   -0.12619E-01   -0.26410E-01 26336   0.567E-01    0.149E-01
RMM:   2    -0.671398677983E+03   -0.44635E-03   -0.57026E-03 22872   0.999E-02    0.101E-01
RMM:   3    -0.671398872810E+03   -0.19483E-03   -0.88655E-04 19962   0.418E-02    0.128E-01
RMM:   4    -0.671398816994E+03    0.55816E-04   -0.21349E-04 16194   0.231E-02    0.583E-02
RMM:   5    -0.671398841796E+03   -0.24802E-04   -0.69974E-05 14079   0.125E-02    0.512E-02
RMM:   6    -0.671398847308E+03   -0.55125E-05   -0.30913E-05 13131   0.900E-03    0.417E-02
RMM:   7    -0.671398852257E+03   -0.49486E-05   -0.17385E-05 12780   0.671E-03    0.260E-02
RMM:   8    -0.671398856893E+03   -0.46366E-05   -0.73454E-06 11816   0.455E-03
  19 F= -.67139886E+03 E0= -.67098352E+03  d E =-.132463E-01  mag=    80.0147
       N       E                     dE             d eps       ncg     rms          rms(c)
DAV:   1    -0.671383196474E+03    0.15656E-01   -0.23777E+00 24992   0.170E+00    0.446E-01
RMM:   2    -0.671387481078E+03   -0.42846E-02   -0.51444E-02 24243   0.299E-01    0.290E-01
RMM:   3    -0.671389314135E+03   -0.18331E-02   -0.78889E-03 23295   0.124E-01    0.347E-01
RMM:   4    -0.671389015386E+03    0.29875E-03   -0.18795E-03 22258   0.670E-02    0.165E-01
RMM:   5    -0.671389145011E+03   -0.12962E-03   -0.66043E-04 20969   0.329E-02    0.130E-01
RMM:   6    -0.671389196067E+03   -0.51056E-04   -0.28752E-04 18152   0.225E-02    0.141E-01
RMM:   7    -0.671389127522E+03    0.68544E-04   -0.12726E-04 15475   0.173E-02    0.789E-02
RMM:   8    -0.671389112793E+03    0.14729E-04   -0.58186E-05 14298   0.121E-02
  20 F= -.67138911E+03 E0= -.67097378E+03  d E =-.350221E-02  mag=    80.0158
       N       E                     dE             d eps       ncg     rms          rms(c)
DAV:   1    -0.671405761697E+03   -0.16634E-01   -0.10982E+00 26288   0.116E+00    0.305E-01
RMM:   2    -0.671408109162E+03   -0.23475E-02   -0.23801E-02 24095   0.205E-01    0.206E-01
RMM:   3    -0.671409095358E+03   -0.98620E-03   -0.36346E-03 22531   0.848E-02    0.253E-01
RMM:   4    -0.671408921689E+03    0.17367E-03   -0.85473E-04 20434   0.456E-02    0.118E-01
RMM:   5    -0.671408971260E+03   -0.49571E-04   -0.30033E-04 17610   0.235E-02    0.104E-01
RMM:   6    -0.671408952870E+03    0.18390E-04   -0.12735E-04 15154   0.178E-02    0.898E-02
RMM:   7    -0.671408961130E+03   -0.82604E-05   -0.71140E-05 14111   0.130E-02    0.499E-02
RMM:   8    -0.671408972137E+03   -0.11007E-04   -0.26968E-05 13148   0.833E-03
  21 F= -.67140897E+03 E0= -.67099374E+03  d E =-.233616E-01  mag=    80.0168
       N       E                     dE             d eps       ncg     rms          rms(c)
DAV:   1    -0.671409285279E+03   -0.32415E-03   -0.15940E-01 26384   0.441E-01    0.117E-01
RMM:   2    -0.671409529422E+03   -0.24414E-03   -0.34453E-03 22280   0.776E-02    0.771E-02
RMM:   3    -0.671409633447E+03   -0.10403E-03   -0.50638E-04 18206   0.317E-02    0.891E-02
RMM:   4    -0.671409610782E+03    0.22665E-04   -0.11932E-04 14809   0.178E-02    0.519E-02
RMM:   5    -0.671409621119E+03   -0.10337E-04   -0.38617E-05 13263   0.985E-03    0.358E-02
RMM:   6    -0.671409628129E+03   -0.70101E-05   -0.17953E-05 12473   0.698E-03    0.309E-02
RMM:   7    -0.671409634115E+03   -0.59856E-05   -0.97824E-06 12018   0.538E-03    0.186E-02
RMM:   8    -0.671409641675E+03   -0.75605E-05   -0.35717E-06 10545   0.349E-03
  22 F= -.67140964E+03 E0= -.67099435E+03  d E =-.240311E-01  mag=    80.0178
       N       E                     dE             d eps       ncg     rms          rms(c)
DAV:   1    -0.671410356470E+03   -0.72236E-03   -0.29456E-02 27024   0.190E-01    0.500E-02
RMM:   2    -0.671410460125E+03   -0.10365E-03   -0.63820E-04 18361   0.334E-02    0.331E-02
RMM:   3    -0.671410500756E+03   -0.40632E-04   -0.93799E-05 14303   0.143E-02    0.385E-02
RMM:   4    -0.671410505658E+03   -0.49016E-05   -0.22830E-05 12559   0.815E-03    0.206E-02
RMM:   5    -0.671410516698E+03   -0.11040E-04   -0.66797E-06 11290   0.429E-03    0.145E-02
RMM:   6    -0.671410527758E+03   -0.11060E-04   -0.27612E-06  9693   0.298E-03    0.144E-02
RMM:   7    -0.671410541054E+03   -0.13296E-04   -0.13053E-06  8769   0.264E-03    0.981E-03
RMM:   8    -0.671410552187E+03   -0.11133E-04   -0.12367E-07  5720   0.208E-03
  23 F= -.67141055E+03 E0= -.67099527E+03  d E =-.249416E-01  mag=    80.0186
       N       E                     dE             d eps       ncg     rms          rms(c)
DAV:   1    -0.671415372854E+03   -0.48318E-02   -0.73977E-02 25712   0.292E-01    0.827E-02
RMM:   2    -0.671415471630E+03   -0.98777E-04   -0.16225E-03 20274   0.516E-02    0.599E-02
RMM:   3    -0.671415549799E+03   -0.78169E-04   -0.25431E-04 16181   0.220E-02    0.761E-02
RMM:   4    -0.671415535235E+03    0.14564E-04   -0.60203E-05 13564   0.129E-02    0.308E-02
RMM:   5    -0.671415563461E+03   -0.28226E-04   -0.19901E-05 12725   0.667E-03    0.304E-02
RMM:   6    -0.671415581387E+03   -0.17925E-04   -0.94262E-06 12205   0.513E-03    0.210E-02
RMM:   7    -0.671415599810E+03   -0.18424E-04   -0.53277E-06 11620   0.405E-03    0.164E-02
RMM:   8    -0.671415612654E+03   -0.12843E-04   -0.20531E-06  9766   0.297E-03
  24 F= -.67141561E+03 E0= -.67100035E+03  d E =-.506047E-02  mag=    80.0195
       N       E                     dE             d eps       ncg     rms          rms(c)
DAV:   1    -0.671416159755E+03   -0.55994E-03   -0.23656E-02 27008   0.165E-01    0.464E-02
RMM:   2    -0.671416196939E+03   -0.37184E-04   -0.52329E-04 17572   0.292E-02    0.355E-02
RMM:   3    -0.671416227994E+03   -0.31055E-04   -0.81301E-05 14018   0.132E-02    0.450E-02
RMM:   4    -0.671416227153E+03    0.84192E-06   -0.19933E-05 12483   0.771E-03    0.176E-02
RMM:   5    -0.671416246603E+03   -0.19450E-04   -0.62224E-06 11248   0.393E-03    0.186E-02
RMM:   6    -0.671416262433E+03   -0.15831E-04   -0.32006E-06 10687   0.326E-03    0.119E-02
RMM:   7    -0.671416279776E+03   -0.17343E-04   -0.13959E-06  8881   0.262E-03    0.907E-03
RMM:   8    -0.671416290999E+03   -0.11222E-04   -0.33485E-07  6485   0.221E-03
  25 F= -.67141629E+03 E0= -.67100105E+03  d E =-.573881E-02  mag=    80.0203
       N       E                     dE             d eps       ncg     rms          rms(c)
DAV:   1    -0.671421266234E+03   -0.49865E-02   -0.17776E-02 27056   0.158E-01    0.337E-02
RMM:   2    -0.671421324118E+03   -0.57884E-04   -0.38856E-04 17590   0.291E-02    0.283E-02
RMM:   3    -0.671421355472E+03   -0.31354E-04   -0.64518E-05 14074   0.127E-02    0.357E-02
RMM:   4    -0.671421364886E+03   -0.94133E-05   -0.13093E-05 12743   0.668E-03    0.149E-02
RMM:   5    -0.671421385521E+03   -0.20635E-04   -0.38688E-06 10909   0.338E-03    0.143E-02
RMM:   6    -0.671421400929E+03   -0.15408E-04   -0.18159E-06  9713   0.284E-03    0.940E-03
RMM:   7    -0.671421420455E+03   -0.19527E-04   -0.88657E-07  7550   0.241E-03    0.618E-03
RMM:   8    -0.671421430581E+03   -0.10126E-04   -0.11250E-07  5610   0.212E-03
  26 F= -.67142143E+03 E0= -.67100621E+03  d E =-.513958E-02  mag=    80.0210
       N       E                     dE             d eps       ncg     rms          rms(c)
DAV:   1    -0.671426806990E+03   -0.53865E-02   -0.15177E-01 25024   0.461E-01    0.970E-02
RMM:   2    -0.671427139747E+03   -0.33276E-03   -0.32879E-03 22685   0.846E-02    0.740E-02
RMM:   3    -0.671427300197E+03   -0.16045E-03   -0.54909E-04 19162   0.343E-02    0.984E-02
RMM:   4    -0.671427289286E+03    0.10910E-04   -0.11464E-04 14974   0.181E-02    0.432E-02
RMM:   5    -0.671427326896E+03   -0.37610E-04   -0.36962E-05 13542   0.968E-03    0.396E-02
RMM:   6    -0.671427346748E+03   -0.19852E-04   -0.17962E-05 12624   0.715E-03    0.266E-02
RMM:   7    -0.671427377912E+03   -0.31163E-04   -0.12124E-05 12502   0.561E-03    0.187E-02
RMM:   8    -0.671427393387E+03   -0.15475E-04   -0.46322E-06 11621   0.403E-03
  27 F= -.67142739E+03 E0= -.67101219E+03  d E =-.111024E-01  mag=    80.0216
       N       E                     dE             d eps       ncg     rms          rms(c)
DAV:   1    -0.671427426281E+03   -0.48369E-04   -0.57214E-04 24944   0.291E-02    0.805E-03
RMM:   2    -0.671427440063E+03   -0.13782E-04   -0.14050E-05 13094   0.584E-03    0.118E-02
RMM:   3    -0.671427443721E+03   -0.36578E-05   -0.18469E-06  9926   0.299E-03    0.584E-03
RMM:   4    -0.671427449654E+03   -0.59330E-05   -0.32029E-08  4761   0.176E-03    0.483E-03
RMM:   5    -0.671427455681E+03   -0.60275E-05   -0.15478E-09  4573   0.176E-03    0.339E-03
RMM:   6    -0.671427466989E+03   -0.11308E-04   -0.38064E-09  4725   0.171E-03    0.311E-03
RMM:   7    -0.671427478923E+03   -0.11934E-04   -0.92289E-09  4737   0.181E-03    0.238E-03
RMM:   8    -0.671427488376E+03   -0.94529E-05   -0.20332E-08  4694   0.184E-03
  28 F= -.67142749E+03 E0= -.67101230E+03  d E =-.111974E-01  mag=    80.0222
       N       E                     dE             d eps       ncg     rms          rms(c)
DAV:   1    -0.671428451640E+03   -0.97272E-03   -0.53142E-03 26144   0.786E-02    0.228E-02
RMM:   2    -0.671428480793E+03   -0.29153E-04   -0.11962E-04 15003   0.139E-02    0.158E-02
RMM:   3    -0.671428499857E+03   -0.19064E-04   -0.15811E-05 12869   0.638E-03    0.159E-02
RMM:   4    -0.671428507951E+03   -0.80937E-05   -0.33916E-06 10703   0.351E-03    0.116E-02
RMM:   5    -0.671428518841E+03   -0.10889E-04   -0.72264E-07  6900   0.235E-03    0.740E-03
RMM:   6    -0.671428528208E+03   -0.93677E-05   -0.30542E-07  5912   0.216E-03    0.576E-03
RMM:   7    -0.671428537559E+03   -0.93509E-05   -0.90475E-08  5237   0.205E-03    0.343E-03
RMM:   8    -0.671428544729E+03   -0.71703E-05   -0.15911E-08  4921   0.198E-03
  29 F= -.67142854E+03 E0= -.67101336E+03  d E =-.105635E-02  mag=    80.0228
       N       E                     dE             d eps       ncg     rms          rms(c)
DAV:   1    -0.671429582144E+03   -0.10446E-02   -0.47671E-02 25840   0.236E-01    0.676E-02
RMM:   2    -0.671429702237E+03   -0.12009E-03   -0.10598E-03 19943   0.413E-02    0.446E-02
RMM:   3    -0.671429777819E+03   -0.75582E-04   -0.15227E-04 15379   0.174E-02    0.469E-02
RMM:   4    -0.671429788804E+03   -0.10985E-04   -0.36569E-05 13557   0.104E-02    0.351E-02
RMM:   5    -0.671429802095E+03   -0.13290E-04   -0.11388E-05 12515   0.555E-03    0.205E-02
RMM:   6    -0.671429812449E+03   -0.10355E-04   -0.58279E-06 11819   0.415E-03    0.161E-02
RMM:   7    -0.671429821554E+03   -0.91041E-05   -0.34976E-06 11048   0.360E-03    0.104E-02
RMM:   8    -0.671429827750E+03   -0.61961E-05   -0.92363E-07  7808   0.250E-03
  30 F= -.67142983E+03 E0= -.67101464E+03  d E =-.233937E-02  mag=    80.0232
       N       E                     dE             d eps       ncg     rms          rms(c)
DAV:   1    -0.671430415144E+03   -0.59359E-03   -0.47169E-03 26576   0.766E-02    0.277E-02
RMM:   2    -0.671430439814E+03   -0.24671E-04   -0.10721E-04 14994   0.144E-02    0.194E-02
RMM:   3    -0.671430451436E+03   -0.11621E-04   -0.15564E-05 13588   0.698E-03    0.192E-02
RMM:   4    -0.671430453471E+03   -0.20359E-05   -0.43210E-06 11488   0.402E-03    0.988E-03
RMM:   5    -0.671430458989E+03   -0.55176E-05   -0.11184E-06  7739   0.252E-03    0.770E-03
RMM:   6    -0.671430463304E+03   -0.43148E-05   -0.23600E-07  5897   0.220E-03    0.570E-03
RMM:   7    -0.671430467542E+03   -0.42380E-05   -0.53751E-08  5207   0.210E-03    0.438E-03
RMM:   8    -0.671430472279E+03   -0.47376E-05   -0.91074E-08  5338   0.211E-03
  31 F= -.67143047E+03 E0= -.67101529E+03  d E =-.644530E-03  mag=    80.0237
       N       E                     dE             d eps       ncg     rms          rms(c)
DAV:   1    -0.671431127802E+03   -0.66026E-03   -0.42392E-02 26528   0.229E-01    0.820E-02
RMM:   2    -0.671431262224E+03   -0.13442E-03   -0.93990E-04 20672   0.426E-02    0.522E-02
RMM:   3    -0.671431318084E+03   -0.55861E-04   -0.13190E-04 15286   0.176E-02    0.473E-02
RMM:   4    -0.671431318315E+03   -0.23097E-06   -0.36848E-05 14329   0.110E-02    0.361E-02
RMM:   5    -0.671431317215E+03    0.11004E-05   -0.13380E-05 12948   0.599E-03    0.237E-02
RMM:   6    -0.671431313286E+03    0.39292E-05   -0.63076E-06 12140   0.452E-03    0.160E-02
RMM:   7    -0.671431311640E+03    0.16456E-05   -0.36571E-06 11670   0.362E-03    0.108E-02
RMM:   8    -0.671431312827E+03   -0.11870E-05   -0.90433E-07  8471   0.258E-03
  32 F= -.67143131E+03 E0= -.67101613E+03  d E =-.148508E-02  mag=    80.0241
       N       E                     dE             d eps       ncg     rms          rms(c)
DAV:   1    -0.671431799252E+03   -0.48761E-03   -0.31154E-03 27056   0.618E-02    0.293E-02
RMM:   2    -0.671431815600E+03   -0.16348E-04   -0.64654E-05 14809   0.121E-02    0.183E-02
RMM:   3    -0.671431823898E+03   -0.82976E-05   -0.97612E-06 13268   0.566E-03    0.164E-02
RMM:   4    -0.671431824230E+03   -0.33202E-06   -0.29826E-06 10982   0.354E-03    0.918E-03
RMM:   5    -0.671431827575E+03   -0.33448E-05   -0.57255E-07  6872   0.232E-03    0.585E-03
RMM:   6    -0.671431830560E+03   -0.29854E-05   -0.14538E-07  5647   0.209E-03    0.341E-03
RMM:   7    -0.671431834407E+03   -0.38464E-05   -0.38751E-08  5217   0.207E-03    0.320E-03
RMM:   8    -0.671431837247E+03   -0.28401E-05   -0.17094E-08  5009   0.207E-03
  33 F= -.67143184E+03 E0= -.67101665E+03  d E =-.524420E-03  mag=    80.0245
       N       E                     dE             d eps       ncg     rms          rms(c)
DAV:   1    -0.671432811765E+03   -0.97736E-03   -0.28059E-02 26704   0.185E-01    0.871E-02
RMM:   2    -0.671432916562E+03   -0.10480E-03   -0.56710E-04 19377   0.358E-02    0.532E-02
RMM:   3    -0.671432966027E+03   -0.49465E-04   -0.86073E-05 14965   0.152E-02    0.507E-02
RMM:   4    -0.671432958226E+03    0.78012E-05   -0.28662E-05 14221   0.988E-03    0.305E-02
RMM:   5    -0.671432957141E+03    0.10855E-05   -0.11390E-05 12809   0.545E-03    0.246E-02
RMM:   6    -0.671432952831E+03    0.43092E-05   -0.52692E-06 11943   0.423E-03    0.138E-02
RMM:   7    -0.671432953035E+03   -0.20303E-06   -0.30423E-06 11135   0.333E-03    0.898E-03
RMM:   8    -0.671432955554E+03   -0.25192E-05   -0.48113E-07  7252   0.239E-03
  34 F= -.67143296E+03 E0= -.67101778E+03  d E =-.164273E-02  mag=    80.0248
       N       E                     dE             d eps       ncg     rms          rms(c)
DAV:   1    -0.671432649833E+03    0.30320E-03   -0.11215E-01 26064   0.370E-01    0.174E-01
RMM:   2    -0.671433049603E+03   -0.39977E-03   -0.22485E-03 23863   0.714E-02    0.107E-01
RMM:   3    -0.671433221881E+03   -0.17228E-03   -0.35254E-04 18019   0.295E-02    0.102E-01
RMM:   4    -0.671433186884E+03    0.34998E-04   -0.11041E-04 15219   0.193E-02    0.630E-02
RMM:   5    -0.671433179538E+03    0.73458E-05   -0.46485E-05 14474   0.107E-02    0.486E-02
RMM:   6    -0.671433159229E+03    0.20309E-04   -0.22115E-05 13720   0.807E-03    0.274E-02
RMM:   7    -0.671433155078E+03    0.41509E-05   -0.13089E-05 12763   0.608E-03    0.181E-02
RMM:   8    -0.671433156594E+03   -0.15162E-05   -0.39582E-06 11814   0.398E-03
  35 F= -.67143316E+03 E0= -.67101799E+03  d E =-.184377E-02  mag=    80.0252
       N       E                     dE             d eps       ncg     rms          rms(c)
DAV:   1    -0.671433299188E+03   -0.14411E-03   -0.22093E-02 27184   0.164E-01    0.774E-02
RMM:   2    -0.671433378740E+03   -0.79552E-04   -0.44635E-04 18218   0.318E-02    0.519E-02
RMM:   3    -0.671433427626E+03   -0.48886E-04   -0.72290E-05 14883   0.142E-02    0.614E-02
RMM:   4    -0.671433412369E+03    0.15256E-04   -0.23012E-05 13903   0.896E-03    0.264E-02
RMM:   5    -0.671433423052E+03   -0.10682E-04   -0.94881E-06 12392   0.487E-03    0.215E-02
RMM:   6    -0.671433431167E+03   -0.81155E-05   -0.49451E-06 11843   0.425E-03    0.119E-02
RMM:   7    -0.671433438767E+03   -0.76001E-05   -0.24807E-06 10499   0.311E-03    0.732E-03
RMM:   8    -0.671433444368E+03   -0.56010E-05   -0.26299E-07  6600   0.227E-03
  36 F= -.67143344E+03 E0= -.67101828E+03  d E =-.213154E-02  mag=    80.0255
       N       E                     dE             d eps       ncg     rms          rms(c)
DAV:   1    -0.671434075478E+03   -0.63671E-03   -0.39177E-03 26448   0.683E-02    0.374E-02
RMM:   2    -0.671434098253E+03   -0.22775E-04   -0.74292E-05 14947   0.135E-02    0.223E-02
RMM:   3    -0.671434113044E+03   -0.14790E-04   -0.11632E-05 13504   0.619E-03    0.206E-02
RMM:   4    -0.671434113750E+03   -0.70594E-06   -0.34837E-06 11462   0.377E-03    0.110E-02
RMM:   5    -0.671434118000E+03   -0.42506E-05   -0.77809E-07  7477   0.241E-03    0.101E-02
RMM:   6    -0.671434120269E+03   -0.22682E-05   -0.31658E-07  6682   0.227E-03    0.553E-03
RMM:   7    -0.671434122480E+03   -0.22114E-05   -0.12019E-07  5390   0.209E-03    0.272E-03
RMM:   8    -0.671434125103E+03   -0.26231E-05   -0.19651E-08  4927   0.205E-03
  37 F= -.67143413E+03 E0= -.67101896E+03  d E =-.680735E-03  mag=    80.0259
       N       E                     dE             d eps       ncg     rms          rms(c)
DAV:   1    -0.671435717666E+03   -0.15952E-02   -0.35271E-02 26768   0.205E-01    0.113E-01
RMM:   2    -0.671435872025E+03   -0.15436E-03   -0.65702E-04 20720   0.400E-02    0.651E-02
RMM:   3    -0.671435950473E+03   -0.78448E-04   -0.10156E-04 15175   0.169E-02    0.539E-02
RMM:   4    -0.671435947855E+03    0.26179E-05   -0.38516E-05 14467   0.118E-02    0.345E-02
RMM:   5    -0.671435952739E+03   -0.48839E-05   -0.15483E-05 13137   0.654E-03    0.279E-02
RMM:   6    -0.671435949439E+03    0.33006E-05   -0.67532E-06 12411   0.462E-03    0.186E-02
RMM:   7    -0.671435947096E+03    0.23432E-05   -0.33627E-06 11556   0.350E-03    0.940E-03
RMM:   8    -0.671435947157E+03   -0.61002E-07   -0.51590E-07  7264   0.237E-03
  38 F= -.67143595E+03 E0= -.67102079E+03  d E =-.250279E-02  mag=    80.0262
       N       E                     dE             d eps       ncg     rms          rms(c)
DAV:   1    -0.671437034396E+03   -0.10873E-02   -0.14096E-01 25456   0.409E-01    0.225E-01
RMM:   2    -0.671437639967E+03   -0.60557E-03   -0.26190E-03 23973   0.803E-02    0.131E-01
RMM:   3    -0.671437897149E+03   -0.25718E-03   -0.41927E-04 18935   0.338E-02    0.110E-01
RMM:   4    -0.671437876088E+03    0.21061E-04   -0.14476E-04 15749   0.222E-02    0.697E-02
RMM:   5    -0.671437891615E+03   -0.15527E-04   -0.63344E-05 14774   0.130E-02    0.583E-02
RMM:   6    -0.671437875387E+03    0.16227E-04   -0.28417E-05 14134   0.897E-03    0.364E-02
RMM:   7    -0.671437866947E+03    0.84401E-05   -0.15084E-05 13145   0.663E-03    0.181E-02
RMM:   8    -0.671437864761E+03    0.21863E-05   -0.47539E-06 12151   0.415E-03
  39 F= -.67143786E+03 E0= -.67102272E+03  d E =-.442039E-02  mag=    80.0265
       N       E                     dE             d eps       ncg     rms          rms(c)
DAV:   1    -0.671439511685E+03   -0.16447E-02   -0.21841E-02 27104   0.160E-01    0.838E-02
RMM:   2    -0.671439605132E+03   -0.93447E-04   -0.43818E-04 18188   0.309E-02    0.484E-02
RMM:   3    -0.671439653815E+03   -0.48683E-04   -0.63909E-05 14850   0.132E-02    0.393E-02
RMM:   4    -0.671439653951E+03   -0.13551E-06   -0.19892E-05 13718   0.828E-03    0.270E-02
RMM:   5    -0.671439661189E+03   -0.72387E-05   -0.72868E-06 12431   0.477E-03    0.212E-02
RMM:   6    -0.671439662611E+03   -0.14212E-05   -0.40075E-06 11688   0.388E-03    0.122E-02
RMM:   7    -0.671439662531E+03    0.80094E-07   -0.19733E-06 10486   0.296E-03    0.696E-03
RMM:   8    -0.671439661673E+03    0.85775E-06   -0.11221E-07  5912   0.216E-03
  40 F= -.67143966E+03 E0= -.67102451E+03  d E =-.179691E-02  mag=    80.0268
       N       E                     dE             d eps       ncg     rms          rms(c)
DAV:   1    -0.671441513193E+03   -0.18507E-02   -0.19622E-01 26176   0.478E-01    0.249E-01
RMM:   2    -0.671442338060E+03   -0.82487E-03   -0.38857E-03 23986   0.922E-02    0.138E-01
RMM:   3    -0.671442601384E+03   -0.26332E-03   -0.57408E-04 19929   0.357E-02    0.721E-02
RMM:   4    -0.671442623309E+03   -0.21925E-04   -0.13994E-04 15652   0.203E-02    0.789E-02
RMM:   5    -0.671442626792E+03   -0.34836E-05   -0.64043E-05 14670   0.147E-02    0.384E-02
RMM:   6    -0.671442640617E+03   -0.13824E-04   -0.34260E-05 14091   0.928E-03    0.279E-02
RMM:   7    -0.671442637604E+03    0.30124E-05   -0.11472E-05 12961   0.628E-03    0.149E-02
RMM:   8    -0.671442635142E+03    0.24624E-05   -0.33594E-06 11754   0.352E-03
  41 F= -.67144264E+03 E0= -.67102750E+03  d E =-.477038E-02  mag=    80.0271
       N       E                     dE             d eps       ncg     rms          rms(c)
DAV:   1    -0.671442824831E+03   -0.18723E-03   -0.41486E-02 27632   0.220E-01    0.115E-01
RMM:   2    -0.671442991920E+03   -0.16709E-03   -0.82715E-04 21080   0.426E-02    0.645E-02
RMM:   3    -0.671443064776E+03   -0.72856E-04   -0.12132E-04 15261   0.169E-02    0.433E-02
RMM:   4    -0.671443070289E+03   -0.55130E-05   -0.35117E-05 14403   0.110E-02    0.427E-02
RMM:   5    -0.671443072084E+03   -0.17951E-05   -0.13321E-05 13274   0.633E-03    0.248E-02
RMM:   6    -0.671443074059E+03   -0.19749E-05   -0.71527E-06 12560   0.459E-03    0.177E-02
RMM:   7    -0.671443074369E+03   -0.31013E-06   -0.38222E-06 11920   0.383E-03    0.105E-02
RMM:   8    -0.671443074008E+03    0.36182E-06   -0.83844E-07  8703   0.255E-03
  42 F= -.67144307E+03 E0= -.67102794E+03  d E =-.520925E-02  mag=    80.0274
       N       E                     dE             d eps       ncg     rms          rms(c)
DAV:   1    -0.671445365667E+03   -0.22913E-02   -0.66167E-02 27520   0.279E-01    0.142E-01
RMM:   2    -0.671445582777E+03   -0.21711E-03   -0.15793E-03 22597   0.546E-02    0.903E-02
RMM:   3    -0.671445685249E+03   -0.10247E-03   -0.22668E-04 16327   0.232E-02    0.753E-02
RMM:   4    -0.671445670509E+03    0.14740E-04   -0.75869E-05 14726   0.161E-02    0.426E-02
RMM:   5    -0.671445676489E+03   -0.59796E-05   -0.26277E-05 13475   0.844E-03    0.301E-02
RMM:   6    -0.671445677273E+03   -0.78371E-06   -0.13154E-05 12947   0.611E-03    0.232E-02
RMM:   7    -0.671445678193E+03   -0.92015E-06   -0.61301E-06 12289   0.441E-03    0.186E-02
RMM:   8    -0.671445676751E+03    0.14412E-05   -0.23246E-06 10934   0.315E-03
  43 F= -.67144568E+03 E0= -.67103054E+03  d E =-.260274E-02  mag=    80.0278
       N       E                     dE             d eps       ncg     rms          rms(c)
DAV:   1    -0.671446069921E+03   -0.39173E-03   -0.27790E-02 27120   0.181E-01    0.920E-02
RMM:   2    -0.671446155331E+03   -0.85410E-04   -0.66833E-04 19515   0.356E-02    0.593E-02
RMM:   3    -0.671446201326E+03   -0.45996E-04   -0.96699E-05 14988   0.156E-02    0.500E-02
RMM:   4    -0.671446193486E+03    0.78399E-05   -0.32120E-05 13831   0.105E-02    0.268E-02
RMM:   5    -0.671446194925E+03   -0.14389E-05   -0.10544E-05 12405   0.556E-03    0.184E-02
RMM:   6    -0.671446194895E+03    0.30734E-07   -0.55768E-06 12066   0.415E-03    0.108E-02
RMM:   7    -0.671446195038E+03   -0.14296E-06   -0.20492E-06 10033   0.299E-03    0.853E-03
RMM:   8    -0.671446193712E+03    0.13253E-05   -0.45894E-07  7177   0.243E-03
  44 F= -.67144619E+03 E0= -.67103107E+03  d E =-.311970E-02  mag=    80.0281
       N       E                     dE             d eps       ncg     rms          rms(c)
DAV:   1    -0.671449966834E+03   -0.37718E-02   -0.75197E-02 26624   0.286E-01    0.138E-01
RMM:   2    -0.671450188264E+03   -0.22143E-03   -0.18837E-03 22461   0.553E-02    0.900E-02
RMM:   3    -0.671450273903E+03   -0.85639E-04   -0.25504E-04 16476   0.236E-02    0.779E-02
RMM:   4    -0.671450256162E+03    0.17741E-04   -0.81672E-05 14670   0.163E-02    0.435E-02
RMM:   5    -0.671450257977E+03   -0.18156E-05   -0.27115E-05 13343   0.861E-03    0.284E-02
RMM:   6    -0.671450255641E+03    0.23362E-05   -0.12428E-05 12748   0.592E-03    0.173E-02
RMM:   7    -0.671450257176E+03   -0.15344E-05   -0.55343E-06 12184   0.420E-03    0.157E-02
RMM:   8    -0.671450256590E+03    0.58580E-06   -0.25821E-06 11158   0.335E-03
  45 F= -.67145026E+03 E0= -.67103514E+03  d E =-.406288E-02  mag=    80.0285
       N       E                     dE             d eps       ncg     rms          rms(c)
DAV:   1    -0.671468523584E+03   -0.18266E-01   -0.67522E-01 25456   0.858E-01    0.415E-01
RMM:   2    -0.671470688447E+03   -0.21649E-02   -0.16718E-02 24267   0.165E-01    0.269E-01
RMM:   3    -0.671471326723E+03   -0.63828E-03   -0.23001E-03 23460   0.695E-02    0.223E-01
RMM:   4    -0.671471145627E+03    0.18110E-03   -0.59942E-04 20594   0.414E-02    0.130E-01
RMM:   5    -0.671471127873E+03    0.17754E-04   -0.22657E-04 17040   0.237E-02    0.107E-01
RMM:   6    -0.671471086756E+03    0.41117E-04   -0.10157E-04 14945   0.164E-02    0.801E-02
RMM:   7    -0.671471070478E+03    0.16278E-04   -0.62795E-05 14550   0.126E-02    0.460E-02
RMM:   8    -0.671471073551E+03   -0.30724E-05   -0.26782E-05 13817   0.863E-03
  46 F= -.67147107E+03 E0= -.67105596E+03  d E =-.248798E-01  mag=    80.0291
       N       E                     dE             d eps       ncg     rms          rms(c)
DAV:   1    -0.671431014249E+03    0.40056E-01   -0.26984E+00 25520   0.171E+00    0.827E-01
RMM:   2    -0.671440098295E+03   -0.90840E-02   -0.66398E-02 24321   0.330E-01    0.539E-01
RMM:   3    -0.671442333529E+03   -0.22352E-02   -0.93965E-03 24568   0.140E-01    0.435E-01
RMM:   4    -0.671441653477E+03    0.68005E-03   -0.23763E-03 23032   0.836E-02    0.242E-01
RMM:   5    -0.671441507594E+03    0.14588E-03   -0.89116E-04 21527   0.464E-02    0.157E-01
RMM:   6    -0.671441420852E+03    0.86742E-04   -0.38612E-04 19439   0.292E-02    0.955E-02
RMM:   7    -0.671441490733E+03   -0.69880E-04   -0.19126E-04 16512   0.221E-02    0.111E-01
RMM:   8    -0.671441457994E+03    0.32738E-04   -0.86434E-05 14862   0.159E-02
  47 F= -.67144146E+03 E0= -.67102630E+03  d E =0.473572E-02  mag=    80.0299
       N       E                     dE             d eps       ncg     rms          rms(c)
DAV:   1    -0.671471554324E+03   -0.30064E-01   -0.13679E+00 26576   0.122E+00    0.586E-01
RMM:   2    -0.671476023993E+03   -0.44697E-02   -0.32641E-02 24320   0.234E-01    0.393E-01
RMM:   3    -0.671477218182E+03   -0.11942E-02   -0.47004E-03 24121   0.103E-01    0.333E-01
RMM:   4    -0.671476881112E+03    0.33707E-03   -0.12955E-03 21873   0.621E-02    0.170E-01
RMM:   5    -0.671476858595E+03    0.22517E-04   -0.46572E-04 19885   0.334E-02    0.116E-01
RMM:   6    -0.671476849989E+03    0.86054E-05   -0.20413E-04 16684   0.218E-02    0.713E-02
RMM:   7    -0.671476911967E+03   -0.61977E-04   -0.99456E-05 15040   0.167E-02    0.732E-02
RMM:   8    -0.671476939758E+03   -0.27791E-04   -0.45098E-05 14177   0.117E-02
  48 F= -.67147694E+03 E0= -.67106190E+03  d E =-.307460E-01  mag=    80.0306
       N       E                     dE             d eps       ncg     rms          rms(c)
DAV:   1    -0.671478253356E+03   -0.13414E-02   -0.16419E-02 26576   0.131E-01    0.680E-02
RMM:   2    -0.671478340984E+03   -0.87628E-04   -0.40453E-04 17075   0.258E-02    0.755E-02
RMM:   3    -0.671478372688E+03   -0.31705E-04   -0.92277E-05 14794   0.160E-02    0.728E-02
RMM:   4    -0.671478360684E+03    0.12005E-04   -0.21877E-05 13332   0.886E-03    0.213E-02
RMM:   5    -0.671478375044E+03   -0.14361E-04   -0.53221E-06 11773   0.389E-03    0.195E-02
RMM:   6    -0.671478389257E+03   -0.14213E-04   -0.33253E-06 11304   0.366E-03    0.117E-02
RMM:   7    -0.671478399484E+03   -0.10227E-04   -0.12618E-06  8515   0.256E-03    0.541E-03
RMM:   8    -0.671478404282E+03   -0.47977E-05   -0.31047E-07  6117   0.224E-03
  49 F= -.67147840E+03 E0= -.67106331E+03  d E =-.146452E-02  mag=    80.0312
       N       E                     dE             d eps       ncg     rms          rms(c)
DAV:   1    -0.671478702774E+03   -0.30329E-03   -0.11508E-02 26528   0.108E-01    0.536E-02
RMM:   2    -0.671478735411E+03   -0.32637E-04   -0.26446E-04 16014   0.198E-02    0.322E-02
RMM:   3    -0.671478754045E+03   -0.18634E-04   -0.34399E-05 14301   0.886E-03    0.241E-02
RMM:   4    -0.671478756668E+03   -0.26226E-05   -0.91802E-06 12201   0.541E-03    0.186E-02
RMM:   5    -0.671478761814E+03   -0.51465E-05   -0.32331E-06 11417   0.351E-03    0.124E-02
RMM:   6    -0.671478765251E+03   -0.34370E-05   -0.87151E-07  7867   0.247E-03    0.843E-03
RMM:   7    -0.671478765927E+03   -0.67567E-06   -0.33100E-07  6536   0.225E-03    0.660E-03
RMM:   8    -0.671478764480E+03    0.14463E-05   -0.91040E-08  5364   0.210E-03
  50 F= -.67147876E+03 E0= -.67106367E+03  d E =-.182472E-02  mag=    80.0318
       N       E                     dE             d eps       ncg     rms          rms(c)
DAV:   1    -0.671480600397E+03   -0.18345E-02   -0.21304E-03 26032   0.557E-02    0.183E-02
RMM:   2    -0.671480608157E+03   -0.77602E-05   -0.57316E-05 14713   0.110E-02    0.162E-02
RMM:   3    -0.671480613598E+03   -0.54408E-05   -0.88611E-06 12759   0.542E-03    0.136E-02
RMM:   4    -0.671480614517E+03   -0.91922E-06   -0.20269E-06  9733   0.305E-03    0.751E-03
RMM:   5    -0.671480614706E+03   -0.18952E-06   -0.38642E-07  6222   0.214E-03    0.474E-03
RMM:   6    -0.671480613907E+03    0.79954E-06   -0.66967E-08  5288   0.198E-03    0.393E-03
RMM:   7    -0.671480612954E+03    0.95274E-06   -0.84233E-09  4983   0.197E-03    0.340E-03
RMM:   8    -0.671480612414E+03    0.53970E-06   -0.22131E-08  5012   0.200E-03
  51 F= -.67148061E+03 E0= -.67106552E+03  d E =-.184793E-02  mag=    80.0324
       N       E                     dE             d eps       ncg     rms          rms(c)
DAV:   1    -0.671485117860E+03   -0.45049E-02   -0.19084E-02 27120   0.167E-01    0.533E-02
RMM:   2    -0.671485173512E+03   -0.55652E-04   -0.49106E-04 18180   0.323E-02    0.373E-02
RMM:   3    -0.671485203411E+03   -0.29900E-04   -0.77590E-05 14966   0.142E-02    0.340E-02
RMM:   4    -0.671485204502E+03   -0.10910E-05   -0.20217E-05 13192   0.817E-03    0.206E-02
RMM:   5    -0.671485207507E+03   -0.30044E-05   -0.71619E-06 12179   0.449E-03    0.149E-02
RMM:   6    -0.671485206891E+03    0.61560E-06   -0.31703E-06 10853   0.324E-03    0.133E-02
RMM:   7    -0.671485204947E+03    0.19446E-05   -0.14002E-06  9276   0.274E-03    0.759E-03
RMM:   8    -0.671485205041E+03   -0.94064E-07   -0.12663E-07  5825   0.217E-03
  52 F= -.67148521E+03 E0= -.67107012E+03  d E =-.644056E-02  mag=    80.0329
       N       E                     dE             d eps       ncg     rms          rms(c)
DAV:   1    -0.671489201733E+03   -0.39968E-02   -0.76441E-02 26928   0.334E-01    0.106E-01
RMM:   2    -0.671489384233E+03   -0.18250E-03   -0.19433E-03 22842   0.644E-02    0.733E-02
RMM:   3    -0.671489472885E+03   -0.88652E-04   -0.31181E-04 17186   0.265E-02    0.676E-02
RMM:   4    -0.671489471593E+03    0.12917E-05   -0.81375E-05 14749   0.163E-02    0.419E-02
RMM:   5    -0.671489480567E+03   -0.89742E-05   -0.28910E-05 13652   0.861E-03    0.313E-02
RMM:   6    -0.671489480924E+03   -0.35716E-06   -0.13447E-05 12627   0.605E-03    0.266E-02
RMM:   7    -0.671489477287E+03    0.36377E-05   -0.73463E-06 12308   0.474E-03    0.139E-02
RMM:   8    -0.671489479102E+03   -0.18156E-05   -0.28367E-06 10874   0.325E-03
  53 F= -.67148948E+03 E0= -.67107440E+03  d E =-.107146E-01  mag=    80.0334
       N       E                     dE             d eps       ncg     rms          rms(c)
DAV:   1    -0.671489533673E+03   -0.56386E-04   -0.11937E-03 25664   0.420E-02    0.140E-02
RMM:   2    -0.671489542027E+03   -0.83544E-05   -0.33834E-05 14428   0.861E-03    0.123E-02
RMM:   3    -0.671489545743E+03   -0.37155E-05   -0.53498E-06 12202   0.441E-03    0.124E-02
RMM:   4    -0.671489546473E+03   -0.73016E-06   -0.87504E-07  7839   0.250E-03    0.512E-03
RMM:   5    -0.671489548240E+03   -0.17672E-05   -0.13583E-07  5441   0.210E-03    0.533E-03
RMM:   6    -0.671489549717E+03   -0.14775E-05   -0.57673E-08  5105   0.199E-03    0.385E-03
RMM:   7    -0.671489551837E+03   -0.21197E-05   -0.87059E-08  5286   0.203E-03    0.271E-03
RMM:   8    -0.671489553903E+03   -0.20657E-05   -0.39441E-08  5141   0.205E-03
  54 F= -.67148955E+03 E0= -.67107445E+03  d E =-.107894E-01  mag=    80.0339
       N       E                     dE             d eps       ncg     rms          rms(c)
DAV:   1    -0.671490761908E+03   -0.12101E-02   -0.48705E-03 26992   0.817E-02    0.331E-02
RMM:   2    -0.671490782219E+03   -0.20311E-04   -0.12609E-04 15076   0.162E-02    0.247E-02
RMM:   3    -0.671490790664E+03   -0.84452E-05   -0.20299E-05 14088   0.796E-03    0.305E-02
RMM:   4    -0.671490785776E+03    0.48885E-05   -0.51086E-06 12011   0.438E-03    0.107E-02
RMM:   5    -0.671490784220E+03    0.15553E-05   -0.12350E-06  8533   0.256E-03    0.103E-02
RMM:   6    -0.671490781736E+03    0.24843E-05   -0.57862E-07  7669   0.241E-03    0.549E-03
RMM:   7    -0.671490781377E+03    0.35902E-06   -0.17400E-07  5831   0.218E-03    0.341E-03
RMM:   8    -0.671490782407E+03   -0.10300E-05   -0.13615E-07  5614   0.214E-03
  55 F= -.67149078E+03 E0= -.67107570E+03  d E =-.122850E-02  mag=    80.0344
       N       E                     dE             d eps       ncg     rms          rms(c)
DAV:   1    -0.671492301494E+03   -0.15201E-02   -0.43563E-02 27360   0.244E-01    0.986E-02
RMM:   2    -0.671492443486E+03   -0.14199E-03   -0.11032E-03 22517   0.479E-02    0.691E-02
RMM:   3    -0.671492511977E+03   -0.68491E-04   -0.17341E-04 15595   0.207E-02    0.866E-02
RMM:   4    -0.671492469824E+03    0.42152E-04   -0.52481E-05 14584   0.136E-02    0.317E-02
RMM:   5    -0.671492457586E+03    0.12238E-04   -0.18327E-05 13514   0.677E-03    0.300E-02
RMM:   6    -0.671492440659E+03    0.16928E-04   -0.96266E-06 12438   0.585E-03    0.167E-02
RMM:   7    -0.671492432386E+03    0.82729E-05   -0.56036E-06 12249   0.404E-03    0.116E-02
RMM:   8    -0.671492430612E+03    0.17732E-05   -0.18718E-06 10345   0.301E-03
  56 F= -.67149243E+03 E0= -.67107738E+03  d E =-.287671E-02  mag=    80.0349
       N       E                     dE             d eps       ncg     rms          rms(c)
DAV:   1    -0.671493190994E+03   -0.75861E-03   -0.58501E-03 26848   0.909E-02    0.438E-02
RMM:   2    -0.671493212457E+03   -0.21462E-04   -0.14865E-04 15533   0.195E-02    0.350E-02
RMM:   3    -0.671493220825E+03   -0.83679E-05   -0.28885E-05 14419   0.984E-03    0.328E-02
RMM:   4    -0.671493216145E+03    0.46799E-05   -0.85389E-06 12344   0.567E-03    0.133E-02
RMM:   5    -0.671493215308E+03    0.83726E-06   -0.24932E-06 10470   0.302E-03    0.136E-02
RMM:   6    -0.671493212756E+03    0.25514E-05   -0.88407E-07  8538   0.259E-03    0.815E-03
RMM:   7    -0.671493210584E+03    0.21723E-05   -0.40730E-07  6466   0.230E-03    0.398E-03
RMM:   8    -0.671493208579E+03    0.20051E-05   -0.97751E-08  5356   0.219E-03
  57 F= -.67149321E+03 E0= -.67107815E+03  d E =-.777966E-03  mag=    80.0354
       N       E                     dE             d eps       ncg     rms          rms(c)
DAV:   1    -0.671494192336E+03   -0.98175E-03   -0.52649E-02 27280   0.272E-01    0.130E-01
RMM:   2    -0.671494412939E+03   -0.22060E-03   -0.12829E-03 23724   0.577E-02    0.100E-01
RMM:   3    -0.671494494825E+03   -0.81887E-04   -0.23545E-04 16824   0.246E-02    0.977E-02
RMM:   4    -0.671494452350E+03    0.42475E-04   -0.75122E-05 14782   0.166E-02    0.431E-02
RMM:   5    -0.671494450234E+03    0.21160E-05   -0.27507E-05 13766   0.825E-03    0.373E-02
RMM:   6    -0.671494437943E+03    0.12291E-04   -0.14039E-05 13384   0.679E-03    0.228E-02
RMM:   7    -0.671494429093E+03    0.88499E-05   -0.87673E-06 12720   0.497E-03    0.128E-02
RMM:   8    -0.671494419976E+03    0.91167E-05   -0.27762E-06 11271   0.343E-03
  58 F= -.67149442E+03 E0= -.67107934E+03  d E =-.198936E-02  mag=    80.0360
       N       E                     dE             d eps       ncg     rms          rms(c)
DAV:   1    -0.671495094887E+03   -0.66579E-03   -0.43955E-03 27312   0.752E-02    0.416E-02
RMM:   2    -0.671495113669E+03   -0.18782E-04   -0.98494E-05 15122   0.154E-02    0.300E-02
RMM:   3    -0.671495118919E+03   -0.52499E-05   -0.17911E-05 14105   0.780E-03    0.252E-02
RMM:   4    -0.671495114800E+03    0.41188E-05   -0.53167E-06 11923   0.464E-03    0.122E-02
RMM:   5    -0.671495110226E+03    0.45737E-05   -0.12481E-06  8592   0.261E-03    0.120E-02
RMM:   6    -0.671495104512E+03    0.57141E-05   -0.49717E-07  7260   0.243E-03    0.723E-03
RMM:   7    -0.671495100697E+03    0.38152E-05   -0.26832E-07  5956   0.226E-03    0.382E-03
RMM:   8    -0.671495098537E+03    0.21597E-05   -0.12741E-07  5255   0.219E-03
  59 F= -.67149510E+03 E0= -.67108001E+03  d E =-.678561E-03  mag=    80.0366
       N       E                     dE             d eps       ncg     rms          rms(c)
DAV:   1    -0.671496564434E+03   -0.14637E-02   -0.39603E-02 26864   0.225E-01    0.123E-01
RMM:   2    -0.671496762126E+03   -0.19769E-03   -0.83517E-04 22538   0.453E-02    0.823E-02
RMM:   3    -0.671496817380E+03   -0.55254E-04   -0.13382E-04 15463   0.189E-02    0.609E-02
RMM:   4    -0.671496804091E+03    0.13290E-04   -0.46420E-05 14478   0.130E-02    0.418E-02
RMM:   5    -0.671496794336E+03    0.97542E-05   -0.18529E-05 13571   0.700E-03    0.327E-02
RMM:   6    -0.671496778782E+03    0.15554E-04   -0.95638E-06 13157   0.550E-03    0.198E-02
RMM:   7    -0.671496770012E+03    0.87707E-05   -0.57570E-06 12382   0.426E-03    0.111E-02
RMM:   8    -0.671496764393E+03    0.56191E-05   -0.15762E-06 10079   0.289E-03
  60 F= -.67149676E+03 E0= -.67108165E+03  d E =-.234442E-02  mag=    80.0373
       N       E                     dE             d eps       ncg     rms          rms(c)
DAV:   1    -0.671497244351E+03   -0.47434E-03   -0.15831E-01 26096   0.450E-01    0.246E-01
RMM:   2    -0.671498030504E+03   -0.78615E-03   -0.33237E-03 24202   0.907E-02    0.163E-01
RMM:   3    -0.671498225245E+03   -0.19474E-03   -0.53097E-04 21107   0.376E-02    0.111E-01
RMM:   4    -0.671498183413E+03    0.41832E-04   -0.16322E-04 16112   0.229E-02    0.800E-02
RMM:   5    -0.671498157830E+03    0.25583E-04   -0.74784E-05 14680   0.148E-02    0.660E-02
RMM:   6    -0.671498113881E+03    0.43949E-04   -0.36917E-05 14348   0.101E-02    0.416E-02
RMM:   7    -0.671498088727E+03    0.25155E-04   -0.21463E-05 13914   0.780E-03    0.214E-02
RMM:   8    -0.671498073600E+03    0.15127E-04   -0.71293E-06 12819   0.499E-03
  61 F= -.67149807E+03 E0= -.67108291E+03  d E =-.365362E-02  mag=    80.0382
       N       E                     dE             d eps       ncg     rms          rms(c)
DAV:   1    -0.671498662360E+03   -0.57363E-03   -0.60766E-03 27424   0.860E-02    0.508E-02
RMM:   2    -0.671498679262E+03   -0.16902E-04   -0.12704E-04 15525   0.173E-02    0.365E-02
RMM:   3    -0.671498683157E+03   -0.38957E-05   -0.24700E-05 14287   0.897E-03    0.334E-02
RMM:   4    -0.671498674567E+03    0.85905E-05   -0.77052E-06 12416   0.549E-03    0.154E-02
RMM:   5    -0.671498667505E+03    0.70618E-05   -0.23402E-06 10362   0.298E-03    0.151E-02
RMM:   6    -0.671498657838E+03    0.96671E-05   -0.13747E-06  9785   0.281E-03    0.795E-03
RMM:   7    -0.671498650292E+03    0.75460E-05   -0.44769E-07  6759   0.234E-03    0.466E-03
RMM:   8    -0.671498647380E+03    0.29118E-05   -0.11394E-07  5540   0.211E-03
  62 F= -.67149865E+03 E0= -.67108347E+03  d E =-.573780E-03  mag=    80.0391
       N       E                     dE             d eps       ncg     rms          rms(c)
DAV:   1    -0.671499889325E+03   -0.12390E-02   -0.54712E-02 26784   0.257E-01    0.150E-01
RMM:   2    -0.671500167038E+03   -0.27771E-03   -0.10724E-03 22893   0.506E-02    0.988E-02
RMM:   3    -0.671500238033E+03   -0.70995E-04   -0.17143E-04 16036   0.217E-02    0.741E-02
RMM:   4    -0.671500218672E+03    0.19360E-04   -0.62088E-05 14627   0.152E-02    0.484E-02
RMM:   5    -0.671500209646E+03    0.90264E-05   -0.25431E-05 13889   0.815E-03    0.388E-02
RMM:   6    -0.671500196265E+03    0.13381E-04   -0.13464E-05 13609   0.639E-03    0.243E-02
RMM:   7    -0.671500189399E+03    0.68662E-05   -0.80063E-06 12615   0.493E-03    0.125E-02
RMM:   8    -0.671500184993E+03    0.44061E-05   -0.23575E-06 11083   0.322E-03
  63 F= -.67150018E+03 E0= -.67108500E+03  d E =-.211139E-02  mag=    80.0400
       N       E                     dE             d eps       ncg     rms          rms(c)
DAV:   1    -0.671500264646E+03   -0.75247E-04   -0.21881E-01 26048   0.513E-01    0.300E-01
RMM:   2    -0.671501395220E+03   -0.11306E-02   -0.42711E-03 24171   0.101E-01    0.194E-01
RMM:   3    -0.671501650530E+03   -0.25531E-03   -0.65822E-04 21909   0.427E-02    0.127E-01
RMM:   4    -0.671501597959E+03    0.52571E-04   -0.21509E-04 16995   0.263E-02    0.910E-02
RMM:   5    -0.671501578344E+03    0.19615E-04   -0.98111E-05 14941   0.170E-02    0.739E-02
RMM:   6    -0.671501547029E+03    0.31315E-04   -0.52238E-05 14518   0.118E-02    0.532E-02
RMM:   7    -0.671501524915E+03    0.22114E-04   -0.28359E-05 14186   0.902E-03    0.241E-02
RMM:   8    -0.671501514273E+03    0.10642E-04   -0.92098E-06 13097   0.552E-03
  64 F= -.67150151E+03 E0= -.67108631E+03  d E =-.344067E-02  mag=    80.0411
       N       E                     dE             d eps       ncg     rms          rms(c)
DAV:   1    -0.671502671960E+03   -0.11470E-02   -0.80101E-03 27376   0.108E-01    0.433E-02
RMM:   2    -0.671502698022E+03   -0.26062E-04   -0.18095E-04 15776   0.217E-02    0.385E-02
RMM:   3    -0.671502710057E+03   -0.12035E-04   -0.36739E-05 14293   0.107E-02    0.439E-02
RMM:   4    -0.671502696179E+03    0.13878E-04   -0.96852E-06 13002   0.600E-03    0.157E-02
RMM:   5    -0.671502692457E+03    0.37220E-05   -0.37750E-06 11418   0.349E-03    0.152E-02
RMM:   6    -0.671502686072E+03    0.63851E-05   -0.20346E-06 10545   0.312E-03    0.792E-03
RMM:   7    -0.671502682664E+03    0.34077E-05   -0.29539E-07  6411   0.219E-03    0.582E-03
RMM:   8    -0.671502682102E+03    0.56252E-06   -0.89149E-08  5817   0.198E-03
  65 F= -.67150268E+03 E0= -.67108750E+03  d E =-.116783E-02  mag=    80.0422
       N       E                     dE             d eps       ncg     rms          rms(c)
DAV:   1    -0.671503593963E+03   -0.91130E-03   -0.43602E-02 27024   0.251E-01    0.987E-02
RMM:   2    -0.671503751654E+03   -0.15769E-03   -0.94336E-04 22816   0.499E-02    0.700E-02
RMM:   3    -0.671503803668E+03   -0.52014E-04   -0.17873E-04 15875   0.215E-02    0.729E-02
RMM:   4    -0.671503787932E+03    0.15736E-04   -0.55641E-05 14344   0.144E-02    0.276E-02
RMM:   5    -0.671503791599E+03   -0.36666E-05   -0.20713E-05 13387   0.697E-03    0.273E-02
RMM:   6    -0.671503792948E+03   -0.13490E-05   -0.10041E-05 12627   0.551E-03    0.177E-02
RMM:   7    -0.671503796689E+03   -0.37411E-05   -0.49435E-06 11847   0.413E-03    0.150E-02
RMM:   8    -0.671503800381E+03   -0.36927E-05   -0.15546E-06  9624   0.286E-03
  66 F= -.67150380E+03 E0= -.67108865E+03  d E =-.228611E-02  mag=    80.0432
       N       E                     dE             d eps       ncg     rms          rms(c)
DAV:   1    -0.671504626125E+03   -0.82944E-03   -0.97627E-03 27616   0.114E-01    0.549E-02
RMM:   2    -0.671504686323E+03   -0.60199E-04   -0.23338E-04 16021   0.236E-02    0.451E-02
RMM:   3    -0.671504716429E+03   -0.30105E-04   -0.45121E-05 14606   0.120E-02    0.544E-02
RMM:   4    -0.671504701862E+03    0.14567E-04   -0.13407E-05 13432   0.704E-03    0.176E-02
RMM:   5    -0.671504703984E+03   -0.21220E-05   -0.47316E-06 11841   0.367E-03    0.153E-02
RMM:   6    -0.671504703063E+03    0.92154E-06   -0.28170E-06 11373   0.340E-03    0.993E-03
RMM:   7    -0.671504703010E+03    0.53085E-07   -0.79404E-07  7912   0.248E-03    0.602E-03
RMM:   8    -0.671504704576E+03   -0.15665E-05   -0.85028E-08  5788   0.215E-03
  67 F= -.67150470E+03 E0= -.67108956E+03  d E =-.904195E-03  mag=    80.0442
       N       E                     dE             d eps       ncg     rms          rms(c)
DAV:   1    -0.671505204097E+03   -0.50109E-03   -0.29910E-02 27504   0.200E-01    0.952E-02
RMM:   2    -0.671505343593E+03   -0.13950E-03   -0.69801E-04 21800   0.410E-02    0.686E-02
RMM:   3    -0.671505408014E+03   -0.64421E-04   -0.12683E-04 15152   0.186E-02    0.759E-02
RMM:   4    -0.671505384084E+03    0.23930E-04   -0.43093E-05 14400   0.127E-02    0.310E-02
RMM:   5    -0.671505384820E+03   -0.73621E-06   -0.15575E-05 13259   0.600E-03    0.252E-02
RMM:   6    -0.671505377925E+03    0.68950E-05   -0.80582E-06 12502   0.514E-03    0.171E-02
RMM:   7    -0.671505375604E+03    0.23213E-05   -0.41488E-06 11925   0.378E-03    0.106E-02
RMM:   8    -0.671505376835E+03   -0.12312E-05   -0.11754E-06  9246   0.269E-03
  68 F= -.67150538E+03 E0= -.67109023E+03  d E =-.157645E-02  mag=    80.0452
       N       E                     dE             d eps       ncg     rms          rms(c)
DAV:   1    -0.671506273825E+03   -0.89822E-03   -0.21561E-02 27440   0.166E-01    0.797E-02
RMM:   2    -0.671506350360E+03   -0.76535E-04   -0.47033E-04 18925   0.338E-02    0.541E-02
RMM:   3    -0.671506375489E+03   -0.25129E-04   -0.85962E-05 14925   0.154E-02    0.477E-02
RMM:   4    -0.671506368299E+03    0.71898E-05   -0.27840E-05 13876   0.100E-02    0.249E-02
RMM:   5    -0.671506371890E+03   -0.35907E-05   -0.10292E-05 12635   0.530E-03    0.206E-02
RMM:   6    -0.671506374050E+03   -0.21602E-05   -0.44292E-06 11698   0.391E-03    0.153E-02
RMM:   7    -0.671506376056E+03   -0.20061E-05   -0.21894E-06 10630   0.302E-03    0.957E-03
RMM:   8    -0.671506377393E+03   -0.13374E-05   -0.26590E-07  6346   0.226E-03
  69 F= -.67150638E+03 E0= -.67109123E+03  d E =-.100056E-02  mag=    80.0461
       N       E                     dE             d eps       ncg     rms          rms(c)
DAV:   1    -0.671506612079E+03   -0.23602E-03   -0.20604E-02 27280   0.162E-01    0.777E-02
RMM:   2    -0.671506689100E+03   -0.77020E-04   -0.45014E-04 18748   0.330E-02    0.554E-02
RMM:   3    -0.671506720903E+03   -0.31803E-04   -0.84131E-05 14872   0.152E-02    0.580E-02
RMM:   4    -0.671506705675E+03    0.15228E-04   -0.25780E-05 13962   0.965E-03    0.269E-02
RMM:   5    -0.671506708245E+03   -0.25700E-05   -0.96216E-06 12638   0.491E-03    0.207E-02
RMM:   6    -0.671506710575E+03   -0.23306E-05   -0.46034E-06 11947   0.412E-03    0.137E-02
RMM:   7    -0.671506713320E+03   -0.27441E-05   -0.25989E-06 10906   0.319E-03    0.832E-03
RMM:   8    -0.671506715531E+03   -0.22110E-05   -0.46028E-07  6971   0.236E-03
  70 F= -.67150672E+03 E0= -.67109159E+03  d E =-.133870E-02  mag=    80.0471
       N       E                     dE             d eps       ncg     rms          rms(c)
DAV:   1    -0.671507559427E+03   -0.84611E-03   -0.17323E-02 27184   0.141E-01    0.794E-02
RMM:   2    -0.671507641885E+03   -0.82459E-04   -0.33266E-04 17659   0.283E-02    0.506E-02
RMM:   3    -0.671507664238E+03   -0.22352E-04   -0.59474E-05 14650   0.130E-02    0.412E-02
RMM:   4    -0.671507659216E+03    0.50212E-05   -0.19135E-05 13628   0.839E-03    0.215E-02
RMM:   5    -0.671507662069E+03   -0.28526E-05   -0.76828E-06 12345   0.465E-03    0.170E-02
RMM:   6    -0.671507666983E+03   -0.49137E-05   -0.37513E-06 11569   0.357E-03    0.966E-03
RMM:   7    -0.671507671355E+03   -0.43726E-05   -0.72601E-07  7482   0.249E-03    0.948E-03
RMM:   8    -0.671507674612E+03   -0.32564E-05   -0.92274E-08  5597   0.222E-03
  71 F= -.67150767E+03 E0= -.67109256E+03  d E =-.959081E-03  mag=    80.0479
       N       E                     dE             d eps       ncg     rms          rms(c)
DAV:   1    -0.671508936802E+03   -0.12654E-02   -0.15606E-01 25184   0.423E-01    0.238E-01
RMM:   2    -0.671509658741E+03   -0.72194E-03   -0.29284E-03 24053   0.842E-02    0.152E-01
RMM:   3    -0.671509845820E+03   -0.18708E-03   -0.52438E-04 20730   0.363E-02    0.121E-01
RMM:   4    -0.671509790949E+03    0.54871E-04   -0.16398E-04 15848   0.231E-02    0.656E-02
RMM:   5    -0.671509790807E+03    0.14110E-06   -0.71961E-05 14647   0.141E-02    0.515E-02
RMM:   6    -0.671509789054E+03    0.17537E-05   -0.35346E-05 14309   0.974E-03    0.373E-02
RMM:   7    -0.671509793999E+03   -0.49449E-05   -0.16409E-05 13570   0.684E-03    0.288E-02
RMM:   8    -0.671509796129E+03   -0.21299E-05   -0.59904E-06 12574   0.453E-03
  72 F= -.67150980E+03 E0= -.67109470E+03  d E =-.308060E-02  mag=    80.0488
       N       E                     dE             d eps       ncg     rms          rms(c)
DAV:   1    -0.671506722031E+03    0.30720E-02   -0.62461E-01 24880   0.847E-01    0.476E-01
RMM:   2    -0.671509652448E+03   -0.29304E-02   -0.11731E-02 24304   0.169E-01    0.310E-01
RMM:   3    -0.671510381036E+03   -0.72859E-03   -0.21539E-03 24117   0.748E-02    0.253E-01
RMM:   4    -0.671510147416E+03    0.23362E-03   -0.69640E-04 21388   0.458E-02    0.123E-01
RMM:   5    -0.671510159947E+03   -0.12530E-04   -0.30207E-04 18130   0.257E-02    0.103E-01
RMM:   6    -0.671510141432E+03    0.18515E-04   -0.13250E-04 15321   0.182E-02    0.854E-02
RMM:   7    -0.671510131415E+03    0.10017E-04   -0.69277E-05 14737   0.137E-02    0.508E-02
RMM:   8    -0.671510131217E+03    0.19791E-06   -0.23586E-05 14284   0.851E-03
  73 F= -.67151013E+03 E0= -.67109510E+03  d E =-.341569E-02  mag=    80.0496
       N       E                     dE             d eps       ncg     rms          rms(c)
DAV:   1    -0.671509991020E+03    0.14039E-03   -0.12695E-01 27616   0.382E-01    0.213E-01
RMM:   2    -0.671510586491E+03   -0.59547E-03   -0.23539E-03 23955   0.759E-02    0.137E-01
RMM:   3    -0.671510756640E+03   -0.17015E-03   -0.42343E-04 19634   0.326E-02    0.115E-01
RMM:   4    -0.671510712320E+03    0.44320E-04   -0.12995E-04 15180   0.212E-02    0.672E-02
RMM:   5    -0.671510719775E+03   -0.74548E-05   -0.57277E-05 14405   0.123E-02    0.565E-02
RMM:   6    -0.671510714521E+03    0.52541E-05   -0.27922E-05 14080   0.894E-03    0.372E-02
RMM:   7    -0.671510714804E+03   -0.28359E-06   -0.16315E-05 13189   0.683E-03    0.189E-02
RMM:   8    -0.671510717414E+03   -0.26096E-05   -0.50868E-06 12369   0.433E-03
  74 F= -.67151072E+03 E0= -.67109565E+03  d E =-.400188E-02  mag=    80.0503
       N       E                     dE             d eps       ncg     rms          rms(c)
DAV:   1    -0.671511579634E+03   -0.86483E-03   -0.22275E-02 27648   0.158E-01    0.883E-02
RMM:   2    -0.671511693005E+03   -0.11337E-03   -0.41134E-04 18363   0.318E-02    0.563E-02
RMM:   3    -0.671511734036E+03   -0.41032E-04   -0.71739E-05 14838   0.141E-02    0.506E-02
RMM:   4    -0.671511729378E+03    0.46585E-05   -0.23478E-05 14084   0.921E-03    0.281E-02
RMM:   5    -0.671511742225E+03   -0.12848E-04   -0.10350E-05 12501   0.501E-03    0.241E-02
RMM:   6    -0.671511753333E+03   -0.11107E-04   -0.50547E-06 11959   0.419E-03    0.152E-02
RMM:   7    -0.671511762802E+03   -0.94688E-05   -0.27685E-06 11065   0.323E-03    0.772E-03
RMM:   8    -0.671511768157E+03   -0.53551E-05   -0.35043E-07  6602   0.226E-03
  75 F= -.67151177E+03 E0= -.67109670E+03  d E =-.105074E-02  mag=    80.0511
       N       E                     dE             d eps       ncg     rms          rms(c)
DAV:   1    -0.671512260392E+03   -0.49759E-03   -0.20002E-01 25488   0.473E-01    0.266E-01
RMM:   2    -0.671513208571E+03   -0.94818E-03   -0.37088E-03 24105   0.956E-02    0.171E-01
RMM:   3    -0.671513465012E+03   -0.25644E-03   -0.66928E-04 21392   0.413E-02    0.143E-01
RMM:   4    -0.671513407107E+03    0.57905E-04   -0.21908E-04 16681   0.264E-02    0.704E-02
RMM:   5    -0.671513434945E+03   -0.27838E-04   -0.95552E-05 15007   0.156E-02    0.580E-02
RMM:   6    -0.671513450319E+03   -0.15374E-04   -0.46811E-05 14441   0.112E-02    0.454E-02
RMM:   7    -0.671513459067E+03   -0.87479E-05   -0.22196E-05 13776   0.800E-03    0.307E-02
RMM:   8    -0.671513459787E+03   -0.72038E-06   -0.75004E-06 12804   0.489E-03
  76 F= -.67151346E+03 E0= -.67109840E+03  d E =-.274237E-02  mag=    80.0517
       N       E                     dE             d eps       ncg     rms          rms(c)
DAV:   1    -0.671513448935E+03    0.10132E-04   -0.11378E-02 27168   0.113E-01    0.641E-02
RMM:   2    -0.671513510458E+03   -0.61523E-04   -0.22280E-04 16372   0.233E-02    0.442E-02
RMM:   3    -0.671513531933E+03   -0.21475E-04   -0.44046E-05 14516   0.116E-02    0.415E-02
RMM:   4    -0.671513530520E+03    0.14133E-05   -0.14791E-05 13050   0.733E-03    0.158E-02
RMM:   5    -0.671513541661E+03   -0.11141E-04   -0.51398E-06 11617   0.378E-03    0.151E-02
RMM:   6    -0.671513551970E+03   -0.10308E-04   -0.25755E-06 10559   0.325E-03    0.111E-02
RMM:   7    -0.671513557360E+03   -0.53900E-05   -0.72956E-07  7532   0.249E-03    0.701E-03
[...]
RMM:   8    -0.671519516464E+03   -0.15297E-05   -0.40779E-07  6779   0.226E-03
  82 F= -.67151952E+03 E0= -.67110421E+03  d E =-.108092E-02  mag=    80.0550
       N       E                     dE             d eps       ncg     rms          rms(c)
DAV:   1    -0.671519591990E+03   -0.77055E-04   -0.23250E-02 27456   0.166E-01    0.884E-02
RMM:   2    -0.671519690259E+03   -0.98269E-04   -0.42235E-04 18584   0.330E-02    0.526E-02
RMM:   3    -0.671519731312E+03   -0.41053E-04   -0.66456E-05 14868   0.144E-02    0.504E-02
RMM:   4    -0.671519724359E+03    0.69528E-05   -0.22310E-05 14207   0.900E-03    0.280E-02
RMM:   5    -0.671519724718E+03   -0.35856E-06   -0.76334E-06 12658   0.479E-03    0.180E-02
RMM:   6    -0.671519726266E+03   -0.15479E-05   -0.46117E-06 11944   0.416E-03    0.135E-02
RMM:   7    -0.671519727795E+03   -0.15297E-05   -0.18919E-06 10909   0.300E-03    0.552E-03
RMM:   8    -0.671519728670E+03   -0.87451E-06   -0.62411E-08  5614   0.200E-03
  83 F= -.67151973E+03 E0= -.67110439E+03  d E =-.129313E-02  mag=    80.0555
       N       E                     dE             d eps       ncg     rms          rms(c)
DAV:   1    -0.671520459733E+03   -0.73194E-03   -0.47265E-02 27744   0.233E-01    0.130E-01
RMM:   2    -0.671520680320E+03   -0.22059E-03   -0.85687E-04 22124   0.468E-02    0.803E-02
RMM:   3    -0.671520760706E+03   -0.80386E-04   -0.14531E-04 15629   0.203E-02    0.744E-02
RMM:   4    -0.671520746265E+03    0.14441E-04   -0.55323E-05 14610   0.142E-02    0.393E-02
RMM:   5    -0.671520754731E+03   -0.84662E-05   -0.20127E-05 13743   0.709E-03    0.356E-02
RMM:   6    -0.671520756118E+03   -0.13872E-05   -0.10644E-05 12969   0.584E-03    0.183E-02
RMM:   7    -0.671520760187E+03   -0.40689E-05   -0.59832E-06 12272   0.415E-03    0.117E-02
RMM:   8    -0.671520762394E+03   -0.22068E-05   -0.14268E-06  9324   0.282E-03
  84 F= -.67152076E+03 E0= -.67110538E+03  d E =-.103372E-02  mag=    80.0559
       N       E                     dE             d eps       ncg     rms          rms(c)
DAV:   1    -0.671520656493E+03    0.10369E-03   -0.11410E-01 27728   0.363E-01    0.203E-01
RMM:   2    -0.671521185782E+03   -0.52929E-03   -0.20634E-03 23890   0.725E-02    0.124E-01
RMM:   3    -0.671521360068E+03   -0.17429E-03   -0.35043E-04 18241   0.313E-02    0.108E-01
RMM:   4    -0.671521325597E+03    0.34472E-04   -0.12611E-04 15321   0.210E-02    0.609E-02
RMM:   5    -0.671521333668E+03   -0.80713E-05   -0.48504E-05 14551   0.112E-02    0.567E-02
RMM:   6    -0.671521325259E+03    0.84089E-05   -0.25343E-05 13999   0.876E-03    0.288E-02
RMM:   7    -0.671521328019E+03   -0.27600E-05   -0.14274E-05 13164   0.607E-03    0.176E-02
RMM:   8    -0.671521328178E+03   -0.15926E-06   -0.41877E-06 11861   0.399E-03
  85 F= -.67152133E+03 E0= -.67110588E+03  d E =-.159951E-02  mag=    80.0562
       N       E                     dE             d eps       ncg     rms          rms(c)
DAV:   1    -0.671521645115E+03   -0.31710E-03   -0.71668E-02 27792   0.295E-01    0.158E-01
RMM:   2    -0.671521941567E+03   -0.29645E-03   -0.14101E-03 23458   0.591E-02    0.999E-02
RMM:   3    -0.671522071662E+03   -0.13010E-03   -0.24189E-04 16709   0.258E-02    0.928E-02
RMM:   4    -0.671522046277E+03    0.25386E-04   -0.85973E-05 14856   0.178E-02    0.479E-02
RMM:   5    -0.671522054426E+03   -0.81495E-05   -0.32834E-05 14208   0.908E-03    0.456E-02
RMM:   6    -0.671522046307E+03    0.81193E-05   -0.16267E-05 13654   0.717E-03    0.232E-02
RMM:   7    -0.671522042633E+03    0.36741E-05   -0.88626E-06 12763   0.501E-03    0.147E-02
RMM:   8    -0.671522038047E+03    0.45863E-05   -0.28295E-06 11387   0.339E-03
  86 F= -.67152204E+03 E0= -.67110657E+03  d E =-.709869E-03  mag=    80.0565
       N       E                     dE             d eps       ncg     rms          rms(c)
DAV:   1    -0.671522036931E+03    0.57025E-05   -0.19224E-04 22752   0.159E-02    0.103E-02
RMM:   2    -0.671522033016E+03    0.39148E-05   -0.81593E-06 13367   0.515E-03    0.143E-02
RMM:   3    -0.671522032112E+03    0.90385E-06   -0.17066E-06  9890   0.281E-03    0.101E-02
RMM:   4    -0.671522029614E+03    0.24983E-05   -0.46506E-08  5367   0.193E-03    0.402E-03
RMM:   5    -0.671522028440E+03    0.11739E-05   -0.27350E-08  5223   0.194E-03    0.289E-03
RMM:   6    -0.671522025418E+03    0.30221E-05   -0.28921E-08  5180   0.190E-03    0.258E-03
RMM:   7    -0.671522022525E+03    0.28927E-05   -0.54194E-08  5393   0.199E-03    0.185E-03
RMM:   8    -0.671522020756E+03    0.17690E-05   -0.32648E-08  5255   0.198E-03
  87 F= -.67152202E+03 E0= -.67110657E+03  d E =-.692578E-03  mag=    80.0568
       N       E                     dE             d eps       ncg     rms          rms(c)
DAV:   1    -0.671522365210E+03   -0.34269E-03   -0.10184E-02 27232   0.123E-01    0.561E-02
RMM:   2    -0.671522390822E+03   -0.25612E-04   -0.24317E-04 16547   0.252E-02    0.390E-02
RMM:   3    -0.671522407520E+03   -0.16698E-04   -0.41268E-05 14507   0.120E-02    0.332E-02
RMM:   4    -0.671522401233E+03    0.62874E-05   -0.13262E-05 13562   0.722E-03    0.180E-02
RMM:   5    -0.671522395639E+03    0.55935E-05   -0.42424E-06 11877   0.383E-03    0.124E-02
RMM:   6    -0.671522389316E+03    0.63227E-05   -0.20017E-06 10298   0.302E-03    0.101E-02
RMM:   7    -0.671522385298E+03    0.40182E-05   -0.75183E-07  8017   0.255E-03    0.670E-03
RMM:   8    -0.671522382462E+03    0.28359E-05   -0.46546E-08  5285   0.218E-03
  88 F= -.67152238E+03 E0= -.67110694E+03  d E =-.361707E-03  mag=    80.0570
       N       E                     dE             d eps       ncg     rms          rms(c)
DAV:   1    -0.671522454641E+03   -0.69343E-04   -0.80431E-03 27504   0.109E-01    0.498E-02
RMM:   2    -0.671522474653E+03   -0.20012E-04   -0.19597E-04 15867   0.225E-02    0.352E-02
RMM:   3    -0.671522487144E+03   -0.12491E-04   -0.32664E-05 14466   0.107E-02    0.293E-02
RMM:   4    -0.671522481774E+03    0.53700E-05   -0.10008E-05 13304   0.628E-03    0.170E-02
RMM:   5    -0.671522477680E+03    0.40932E-05   -0.32240E-06 11745   0.338E-03    0.132E-02
RMM:   6    -0.671522472284E+03    0.53961E-05   -0.11526E-06  8964   0.267E-03    0.101E-02
RMM:   7    -0.671522468258E+03    0.40261E-05   -0.46243E-07  7137   0.243E-03    0.482E-03
RMM:   8    -0.671522465916E+03    0.23418E-05   -0.55065E-08  5238   0.221E-03
  89 F= -.67152247E+03 E0= -.67110704E+03  d E =-.445161E-03  mag=    80.0573
       N       E                     dE             d eps       ncg     rms          rms(c)
DAV:   1    -0.671522713844E+03   -0.24559E-03   -0.45880E-03 27664   0.813E-02    0.404E-02
RMM:   2    -0.671522730020E+03   -0.16176E-04   -0.11433E-04 15072   0.170E-02    0.287E-02
RMM:   3    -0.671522737280E+03   -0.72601E-05   -0.20390E-05 14315   0.857E-03    0.255E-02
RMM:   4    -0.671522733782E+03    0.34976E-05   -0.63215E-06 12509   0.510E-03    0.113E-02
RMM:   5    -0.671522730606E+03    0.31767E-05   -0.15429E-06  9850   0.276E-03    0.760E-03
RMM:   6    -0.671522727584E+03    0.30221E-05   -0.35608E-07  6563   0.233E-03    0.539E-03
RMM:   7    -0.671522727014E+03    0.56950E-06   -0.10430E-07  5522   0.223E-03    0.510E-03
RMM:   8    -0.671522726850E+03    0.16391E-06   -0.61790E-08  5142   0.217E-03
  90 F= -.67152273E+03 E0= -.67110731E+03  d E =-.260934E-03  mag=    80.0575
       N       E                     dE             d eps       ncg     rms          rms(c)
DAV:   1    -0.671522853327E+03   -0.12631E-03   -0.22139E-02 27104   0.178E-01    0.884E-02
RMM:   2    -0.671522938989E+03   -0.85662E-04   -0.53271E-04 21093   0.371E-02    0.626E-02
RMM:   3    -0.671522976841E+03   -0.37853E-04   -0.98183E-05 14809   0.174E-02    0.586E-02
RMM:   4    -0.671522963451E+03    0.13390E-04   -0.35640E-05 14319   0.121E-02    0.265E-02
RMM:   5    -0.671522960628E+03    0.28228E-05   -0.10927E-05 13356   0.538E-03    0.228E-02
RMM:   6    -0.671522953782E+03    0.68466E-05   -0.55231E-06 12511   0.435E-03    0.193E-02
RMM:   7    -0.671522949504E+03    0.42780E-05   -0.32085E-06 11874   0.332E-03    0.933E-03
RMM:   8    -0.671522948801E+03    0.70315E-06   -0.55654E-07  7538   0.243E-03
  91 F= -.67152295E+03 E0= -.67110757E+03  d E =-.482884E-03  mag=    80.0577
       N       E                     dE             d eps       ncg     rms          rms(c)
DAV:   1    -0.671523150066E+03   -0.20056E-03   -0.50603E-03 27712   0.875E-02    0.407E-02
RMM:   2    -0.671523167678E+03   -0.17612E-04   -0.12969E-04 15216   0.181E-02    0.302E-02
RMM:   3    -0.671523177711E+03   -0.10034E-04   -0.24090E-05 14397   0.937E-03    0.282E-02
RMM:   4    -0.671523175922E+03    0.17895E-05   -0.74957E-06 12933   0.554E-03    0.126E-02
RMM:   5    -0.671523179084E+03   -0.31618E-05   -0.21742E-06 10791   0.294E-03    0.106E-02
RMM:   6    -0.671523181628E+03   -0.25439E-05   -0.68097E-07  7783   0.248E-03    0.887E-03
RMM:   7    -0.671523184813E+03   -0.31856E-05   -0.16705E-07  5966   0.225E-03    0.480E-03
RMM:   8    -0.671523187848E+03   -0.30347E-05   -0.58569E-08  5300   0.217E-03
  92 F= -.67152319E+03 E0= -.67110784E+03  d E =-.239047E-03  mag=    80.0579
       N       E                     dE             d eps       ncg     rms          rms(c)
DAV:   1    -0.671523263128E+03   -0.78314E-04   -0.12354E-02 27520   0.137E-01    0.636E-02
RMM:   2    -0.671523310069E+03   -0.46942E-04   -0.31082E-04 17612   0.282E-02    0.492E-02
RMM:   3    -0.671523333777E+03   -0.23707E-04   -0.61542E-05 14532   0.145E-02    0.467E-02
RMM:   4    -0.671523327980E+03    0.57966E-05   -0.20360E-05 14073   0.901E-03    0.193E-02
RMM:   5    -0.671523333651E+03   -0.56713E-05   -0.61965E-06 12461   0.427E-03    0.162E-02
RMM:   6    -0.671523337591E+03   -0.39395E-05   -0.30972E-06 11625   0.343E-03    0.145E-02
RMM:   7    -0.671523341787E+03   -0.41956E-05   -0.13123E-06  9455   0.271E-03    0.788E-03
RMM:   8    -0.671523346201E+03   -0.44145E-05   -0.13339E-07  5827   0.222E-03
  93 F= -.67152335E+03 E0= -.67110803E+03  d E =-.397400E-03  mag=    80.0581
       N       E                     dE             d eps       ncg     rms          rms(c)
DAV:   1    -0.671523526174E+03   -0.18439E-03   -0.64634E-03 27760   0.102E-01    0.440E-02
RMM:   2    -0.671523556217E+03   -0.30043E-04   -0.16846E-04 15613   0.209E-02    0.320E-02
RMM:   3    -0.671523569808E+03   -0.13591E-04   -0.28028E-05 14465   0.100E-02    0.278E-02
RMM:   4    -0.671523570315E+03   -0.50711E-06   -0.84776E-06 13368   0.588E-03    0.146E-02
RMM:   5    -0.671523576590E+03   -0.62753E-05   -0.30130E-06 11767   0.330E-03    0.962E-03
RMM:   6    -0.671523582863E+03   -0.62729E-05   -0.98468E-07  8599   0.256E-03    0.557E-03
RMM:   7    -0.671523588808E+03   -0.59446E-05   -0.22428E-07  6273   0.233E-03    0.425E-03
RMM:   8    -0.671523592074E+03   -0.32666E-05   -0.31467E-08  5296   0.218E-03
  94 F= -.67152359E+03 E0= -.67110829E+03  d E =-.245873E-03  mag=    80.0583
       N       E                     dE             d eps       ncg     rms          rms(c)
DAV:   1    -0.671523628062E+03   -0.39254E-04   -0.65395E-03 27568   0.102E-01    0.442E-02
RMM:   2    -0.671523657410E+03   -0.29349E-04   -0.17058E-04 15641   0.210E-02    0.321E-02
RMM:   3    -0.671523670925E+03   -0.13515E-04   -0.28640E-05 14485   0.101E-02    0.281E-02
RMM:   4    -0.671523671130E+03   -0.20443E-06   -0.86948E-06 13395   0.595E-03    0.148E-02
RMM:   5    -0.671523677080E+03   -0.59502E-05   -0.30810E-06 11724   0.333E-03    0.996E-03
RMM:   6    -0.671523682965E+03   -0.58855E-05   -0.11178E-06  8782   0.262E-03    0.588E-03
RMM:   7    -0.671523688504E+03   -0.55381E-05   -0.32391E-07  6610   0.238E-03    0.432E-03
RMM:   8    -0.671523691863E+03   -0.33593E-05   -0.55539E-08  5398   0.217E-03
  95 F= -.67152369E+03 E0= -.67110841E+03  d E =-.345662E-03  mag=    80.0584
       N       E                     dE             d eps       ncg     rms          rms(c)
DAV:   1    -0.671523827808E+03   -0.13930E-03   -0.80140E-03 27280   0.111E-01    0.510E-02
RMM:   2    -0.671523861918E+03   -0.34110E-04   -0.20882E-04 16006   0.229E-02    0.385E-02
RMM:   3    -0.671523876662E+03   -0.14744E-04   -0.37963E-05 14456   0.115E-02    0.379E-02
RMM:   4    -0.671523872686E+03    0.39763E-05   -0.11806E-05 13799   0.696E-03    0.171E-02
RMM:   5    -0.671523876518E+03   -0.38315E-05   -0.39915E-06 11994   0.350E-03    0.173E-02
RMM:   6    -0.671523879332E+03   -0.28145E-05   -0.20108E-06 10764   0.304E-03    0.106E-02
RMM:   7    -0.671523883292E+03   -0.39604E-05   -0.46815E-07  7124   0.241E-03    0.518E-03
RMM:   8    -0.671523887145E+03   -0.38524E-05   -0.59048E-08  5358   0.219E-03
  96 F= -.67152389E+03 E0= -.67110861E+03  d E =-.195282E-03  mag=    80.0585
       N       E                     dE             d eps       ncg     rms          rms(c)
DAV:   1    -0.671523900239E+03   -0.16947E-04   -0.28380E-03 27136   0.661E-02    0.306E-02
RMM:   2    -0.671523914498E+03   -0.14259E-04   -0.77294E-05 14862   0.138E-02    0.238E-02
RMM:   3    -0.671523920669E+03   -0.61709E-05   -0.13689E-05 14294   0.702E-03    0.218E-02
RMM:   4    -0.671523920452E+03    0.21700E-06   -0.40962E-06 12178   0.422E-03    0.980E-03
RMM:   5    -0.671523923878E+03   -0.34259E-05   -0.42376E-07  7149   0.234E-03    0.692E-03
RMM:   6    -0.671523928002E+03   -0.41244E-05   -0.14153E-07  5677   0.214E-03    0.663E-03
RMM:   7    -0.671523930534E+03   -0.25318E-05   -0.32605E-08  5101   0.212E-03    0.433E-03
RMM:   8    -0.671523933494E+03   -0.29593E-05   -0.81364E-08  5262   0.216E-03
  97 F= -.67152393E+03 E0= -.67110865E+03  d E =-.241631E-03  mag=    80.0587
       N       E                     dE             d eps       ncg     rms          rms(c)
DAV:   1    -0.671524043827E+03   -0.11329E-03   -0.65784E-03 27472   0.991E-02    0.462E-02
RMM:   2    -0.671524072472E+03   -0.28646E-04   -0.16665E-04 15647   0.202E-02    0.328E-02
RMM:   3    -0.671524084447E+03   -0.11975E-04   -0.28707E-05 14417   0.997E-03    0.318E-02
RMM:   4    -0.671524082262E+03    0.21858E-05   -0.86757E-06 13371   0.603E-03    0.144E-02
RMM:   5    -0.671524086170E+03   -0.39088E-05   -0.30817E-06 11674   0.325E-03    0.132E-02
RMM:   6    -0.671524089161E+03   -0.29909E-05   -0.12678E-06  9355   0.271E-03    0.982E-03
RMM:   7    -0.671524091655E+03   -0.24936E-05   -0.26886E-07  6484   0.232E-03    0.594E-03
RMM:   8    -0.671524094088E+03   -0.24326E-05   -0.26713E-08  5151   0.215E-03
  98 F= -.67152409E+03 E0= -.67110883E+03  d E =-.160594E-03  mag=    80.0588
       N       E                     dE             d eps       ncg     rms          rms(c)
DAV:   1    -0.671524107521E+03   -0.15866E-04   -0.18449E-03 26896   0.526E-02    0.247E-02
RMM:   2    -0.671524117501E+03   -0.99796E-05   -0.49838E-05 14698   0.111E-02    0.189E-02
RMM:   3    -0.671524122006E+03   -0.45048E-05   -0.85198E-06 13842   0.562E-03    0.176E-02
RMM:   4    -0.671524122125E+03   -0.11874E-06   -0.25213E-06 11685   0.346E-03    0.812E-03
RMM:   5    -0.671524125181E+03   -0.30566E-05   -0.77757E-08  5630   0.207E-03    0.666E-03
RMM:   6    -0.671524127922E+03   -0.27413E-05   -0.22909E-08  5135   0.195E-03    0.697E-03
RMM:   7    -0.671524130104E+03   -0.21812E-05   -0.17132E-08  5002   0.190E-03    0.306E-03
RMM:   8    -0.671524132804E+03   -0.26999E-05   -0.39353E-08  5227   0.206E-03
  99 F= -.67152413E+03 E0= -.67110887E+03  d E =-.199310E-03  mag=    80.0590
       N       E                     dE             d eps       ncg     rms          rms(c)
DAV:   1    -0.671524211533E+03   -0.81430E-04   -0.77380E-03 27152   0.107E-01    0.496E-02
RMM:   2    -0.671524244061E+03   -0.32528E-04   -0.19647E-04 15914   0.218E-02    0.364E-02
RMM:   3    -0.671524255586E+03   -0.11525E-04   -0.34305E-05 14456   0.108E-02    0.362E-02
RMM:   4    -0.671524251350E+03    0.42366E-05   -0.10854E-05 13499   0.662E-03    0.157E-02
RMM:   5    -0.671524254414E+03   -0.30641E-05   -0.38647E-06 11691   0.354E-03    0.137E-02
RMM:   6    -0.671524256625E+03   -0.22110E-05   -0.17076E-06 10060   0.290E-03    0.953E-03
RMM:   7    -0.671524258636E+03   -0.20112E-05   -0.37197E-07  6937   0.239E-03    0.678E-03
RMM:   8    -0.671524260447E+03   -0.18110E-05   -0.46492E-08  5197   0.215E-03
 100 F= -.67152426E+03 E0= -.67110902E+03  d E =-.127643E-03  mag=    80.0592
       N       E                     dE             d eps       ncg     rms          rms(c)
DAV:   1    -0.671524262721E+03   -0.40852E-05   -0.26325E-04 24656   0.202E-02    0.971E-03
RMM:   2    -0.671524266292E+03   -0.35712E-05   -0.10173E-05 13871   0.542E-03    0.100E-02
RMM:   3    -0.671524267476E+03   -0.11832E-05   -0.15702E-06 10021   0.287E-03    0.679E-03
RMM:   4    -0.671524268474E+03   -0.99838E-06   -0.90426E-08  5426   0.205E-03    0.264E-03
RMM:   5    -0.671524270447E+03   -0.19725E-05   -0.45954E-09  4440   0.187E-03    0.222E-03
RMM:   6    -0.671524273067E+03   -0.26203E-05   -0.42231E-09  4599   0.188E-03    0.259E-03
RMM:   7    -0.671524275063E+03   -0.19958E-05   -0.46252E-09  4596   0.191E-03    0.137E-03
RMM:   8    -0.671524276564E+03   -0.15018E-05   -0.10969E-09  4533   0.192E-03
 101 F= -.67152428E+03 E0= -.67110904E+03  d E =-.143761E-03  mag=    80.0593
       N       E                     dE             d eps       ncg     rms          rms(c)
DAV:   1    -0.671524345719E+03   -0.70657E-04   -0.70532E-03 26000   0.102E-01    0.474E-02
RMM:   2    -0.671524375077E+03   -0.29358E-04   -0.17656E-04 15706   0.208E-02    0.330E-02
RMM:   3    -0.671524385729E+03   -0.10652E-04   -0.28459E-05 14509   0.996E-03    0.310E-02
RMM:   4    -0.671524383394E+03    0.23353E-05   -0.89687E-06 13459   0.607E-03    0.162E-02
RMM:   5    -0.671524386374E+03   -0.29802E-05   -0.33445E-06 11798   0.336E-03    0.136E-02
RMM:   6    -0.671524388296E+03   -0.19213E-05   -0.12638E-06  9376   0.270E-03    0.974E-03
RMM:   7    -0.671524389899E+03   -0.16037E-05   -0.30272E-07  6524   0.233E-03    0.643E-03
RMM:   8    -0.671524391490E+03   -0.15907E-05   -0.26015E-08  5162   0.212E-03
 102 F= -.67152439E+03 E0= -.67110915E+03  d E =-.114926E-03  mag=    80.0595
       N       E                     dE             d eps       ncg     rms          rms(c)
DAV:   1    -0.671524392418E+03   -0.25183E-05   -0.24594E-03 27168   0.601E-02    0.282E-02
RMM:   2    -0.671524403616E+03   -0.11198E-04   -0.65104E-05 14828   0.125E-02    0.196E-02
RMM:   3    -0.671524407792E+03   -0.41761E-05   -0.98602E-06 14275   0.592E-03    0.172E-02
RMM:   4    -0.671524407524E+03    0.26776E-06   -0.28610E-06 11877   0.356E-03    0.950E-03
RMM:   5    -0.671524409638E+03   -0.21141E-05   -0.25918E-07  6777   0.226E-03    0.658E-03
RMM:   6    -0.671524411825E+03   -0.21872E-05   -0.50765E-08  5321   0.201E-03    0.649E-03
RMM:   7    -0.671524413225E+03   -0.13993E-05   -0.20197E-08  5035   0.199E-03    0.414E-03
RMM:   8    -0.671524414752E+03   -0.15269E-05   -0.41334E-08  5068   0.207E-03
 103 F= -.67152441E+03 E0= -.67110918E+03  d E =-.138187E-03  mag=    80.0596
       N       E                     dE             d eps       ncg     rms          rms(c)
DAV:   1    -0.671524456037E+03   -0.42812E-04   -0.67493E-03 27440   0.989E-02    0.461E-02
RMM:   2    -0.671524483981E+03   -0.27943E-04   -0.17432E-04 15659   0.201E-02    0.320E-02
RMM:   3    -0.671524493587E+03   -0.96061E-05   -0.28310E-05 14483   0.974E-03    0.319E-02
RMM:   4    -0.671524490246E+03    0.33411E-05   -0.92470E-06 13408   0.607E-03    0.154E-02
RMM:   5    -0.671524491198E+03   -0.95228E-06   -0.33031E-06 11309   0.337E-03    0.121E-02
RMM:   6    -0.671524491178E+03    0.19558E-07   -0.14965E-06  9552   0.281E-03    0.768E-03
RMM:   7    -0.671524491547E+03   -0.36834E-06   -0.36892E-07  6815   0.238E-03    0.574E-03
RMM:   8    -0.671524492060E+03   -0.51316E-06   -0.33478E-08  5102   0.209E-03
 104 F= -.67152449E+03 E0= -.67110925E+03  d E =-.773082E-04  mag=    80.0598
