       N       E                     dE             d eps       ncg     rms          rms(c)
DAV:   1     0.759627210975E+04    0.75963E+04   -0.29776E+05 15104   0.126E+03
DAV:   2     0.595213805419E+03   -0.70011E+04   -0.63138E+04 16048   0.373E+02
DAV:   3    -0.762956741026E+03   -0.13582E+04   -0.13071E+04 18544   0.165E+02
DAV:   4    -0.836780124614E+03   -0.73823E+02   -0.72030E+02 20256   0.432E+01
DAV:   5    -0.838447586072E+03   -0.16675E+01   -0.16464E+01 19328   0.607E+00    0.188E+02
RMM:   6    -0.681218162677E+03    0.15723E+03   -0.60576E+02 14901   0.391E+01    0.158E+02
RMM:   7    -0.160117167971E+04   -0.91995E+03   -0.44370E+02 16764   0.263E+01    0.401E+02
RMM:   8    -0.133589598062E+04    0.26528E+03   -0.99968E+01 18853   0.106E+01    0.354E+02
RMM:   9    -0.132997481681E+04    0.59212E+01   -0.71350E+01 15541   0.121E+01    0.345E+02
RMM:  10    -0.828444097130E+03    0.50153E+03   -0.30300E+02 19987   0.215E+01    0.263E+02
RMM:  11    -0.918225278627E+03   -0.89781E+02   -0.51425E+01 16966   0.841E+00    0.244E+02
RMM:  12    -0.871288415926E+03    0.46937E+02   -0.11640E+02 18695   0.142E+01    0.232E+02
RMM:  13    -0.126065712416E+04   -0.38937E+03   -0.17063E+02 20011   0.180E+01    0.278E+02
RMM:  14    -0.109616217378E+04    0.16449E+03   -0.15566E+01 16339   0.513E+00    0.241E+02
RMM:  15    -0.105922026457E+04    0.36942E+02   -0.15810E+01 16118   0.594E+00    0.233E+02
RMM:  16    -0.647374851680E+03    0.41185E+03   -0.77375E+01 20280   0.107E+01    0.125E+02
RMM:  17    -0.640206854757E+03    0.71680E+01   -0.78758E+00 15137   0.455E+00    0.111E+02
RMM:  18    -0.634082957863E+03    0.61239E+01   -0.29161E+00 15848   0.273E+00    0.104E+02
RMM:  19    -0.632621347778E+03    0.14616E+01   -0.12835E+00 15892   0.174E+00    0.998E+01
RMM:  20    -0.632607607650E+03    0.13740E-01   -0.57383E-01 16749   0.101E+00    0.954E+01
RMM:  21    -0.633460323052E+03   -0.85272E+00   -0.81099E-01 16112   0.140E+00    0.845E+01
RMM:  22    -0.635001484654E+03   -0.15412E+01   -0.12845E+00 18171   0.165E+00    0.710E+01
RMM:  23    -0.636219383408E+03   -0.12179E+01   -0.96205E-01 17366   0.148E+00    0.587E+01
RMM:  24    -0.639323457766E+03   -0.31041E+01   -0.63203E-01 15816   0.131E+00    0.504E+01
RMM:  25    -0.645138829816E+03   -0.58154E+01   -0.14343E+00 18740   0.185E+00    0.417E+01
RMM:  26    -0.660540739425E+03   -0.15402E+02   -0.55781E+00 22252   0.352E+00    0.269E+01
RMM:  27    -0.669226813408E+03   -0.86861E+01   -0.52754E+00 21888   0.325E+00    0.329E+01
RMM:  28    -0.669422602323E+03   -0.19579E+00   -0.76910E-01 16168   0.126E+00    0.329E+01
RMM:  29    -0.670077800270E+03   -0.65520E+00   -0.55957E-01 16240   0.112E+00    0.296E+01
RMM:  30    -0.674416412274E+03   -0.43386E+01   -0.22243E+00 19529   0.201E+00    0.234E+01
RMM:  31    -0.680229442704E+03   -0.58130E+01   -0.20382E+00 20422   0.217E+00    0.141E+01
RMM:  32    -0.681483017612E+03   -0.12536E+01   -0.67129E-01 18141   0.123E+00    0.118E+01
RMM:  33    -0.678296676019E+03    0.31863E+01   -0.10400E+00 19509   0.151E+00    0.195E+01
RMM:  34    -0.678285522948E+03    0.11153E-01   -0.85622E-01 18875   0.134E+00    0.275E+01
RMM:  35    -0.681273714744E+03   -0.29882E+01   -0.65446E-01 17892   0.112E+00    0.260E+01
RMM:  36    -0.684681957046E+03   -0.34082E+01   -0.69259E-01 18199   0.115E+00    0.252E+01
RMM:  37    -0.689962922654E+03   -0.52810E+01   -0.90559E-01 18845   0.129E+00    0.204E+01
RMM:  38    -0.694220176796E+03   -0.42573E+01   -0.78885E-01 19072   0.124E+00    0.174E+01
RMM:  39    -0.696182312198E+03   -0.19621E+01   -0.17812E-01 15473   0.639E-01    0.167E+01
RMM:  40    -0.696291398779E+03   -0.10909E+00   -0.11252E-01 15307   0.584E-01    0.162E+01
RMM:  41    -0.696163581242E+03    0.12782E+00   -0.56798E-02 15088   0.364E-01    0.159E+01
RMM:  42    -0.696149312825E+03    0.14268E-01   -0.39153E-02 15195   0.306E-01    0.147E+01
RMM:  43    -0.697021483412E+03   -0.87217E+00   -0.26659E-01 19947   0.688E-01    0.133E+01
RMM:  44    -0.697400174114E+03   -0.37869E+00   -0.23869E-01 19940   0.626E-01    0.135E+01
RMM:  45    -0.696583400455E+03    0.81677E+00   -0.11029E-01 17795   0.446E-01    0.127E+01
RMM:  46    -0.696797986409E+03   -0.21459E+00   -0.10634E-01 18398   0.446E-01    0.986E+00
RMM:  47    -0.699689275408E+03   -0.28913E+01   -0.12453E-01 18731   0.455E-01    0.857E+00
RMM:  48    -0.700856422283E+03   -0.11671E+01   -0.22507E-01 20267   0.592E-01    0.657E+00
RMM:  49    -0.701469027554E+03   -0.61261E+00   -0.24088E-01 20083   0.545E-01    0.710E+00
RMM:  50    -0.701436408073E+03    0.32619E-01   -0.21862E-01 20095   0.550E-01    0.818E+00
RMM:  51    -0.701098980972E+03    0.33743E+00   -0.26582E-01 20410   0.680E-01    0.743E+00
RMM:  52    -0.702187470006E+03   -0.10885E+01   -0.85956E-02 17525   0.410E-01    0.533E+00
RMM:  53    -0.702568946155E+03   -0.38148E+00   -0.45439E-02 15974   0.284E-01    0.358E+00
RMM:  54    -0.702689853469E+03   -0.12091E+00   -0.49740E-02 17019   0.272E-01    0.226E+00
RMM:  55    -0.702686357780E+03    0.34957E-02   -0.29755E-02 16155   0.221E-01    0.177E+00
RMM:  56    -0.702951497595E+03   -0.26514E+00   -0.15083E-02 15759   0.193E-01    0.248E+00
RMM:  57    -0.703053783474E+03   -0.10229E+00   -0.13515E-02 15700   0.178E-01    0.140E+00
RMM:  58    -0.703298110408E+03   -0.24433E+00   -0.86185E-03 15666   0.131E-01    0.113E+00
RMM:  59    -0.703480368124E+03   -0.18226E+00   -0.27388E-03 14612   0.862E-02    0.922E-01
RMM:  60    -0.703579782403E+03   -0.99414E-01   -0.34202E-03 15282   0.825E-02    0.802E-01
RMM:  61    -0.703647325146E+03   -0.67543E-01   -0.46755E-03 16874   0.103E-01    0.726E-01
RMM:  62    -0.703719862339E+03   -0.72537E-01   -0.25681E-03 15350   0.739E-02    0.507E-01
RMM:  63    -0.703875784574E+03   -0.15592E+00   -0.33306E-03 15751   0.688E-02    0.487E-01
RMM:  64    -0.704018403269E+03   -0.14262E+00   -0.17782E-03 14748   0.531E-02    0.386E-01
RMM:  65    -0.704164292158E+03   -0.14589E+00   -0.13141E-03 14393   0.474E-02    0.271E-01
RMM:  66    -0.704251779492E+03   -0.87487E-01   -0.60778E-04 12771   0.364E-02    0.333E-01
RMM:  67    -0.704295658119E+03   -0.43879E-01   -0.20246E-04  9752   0.236E-02    0.281E-01
RMM:  68    -0.704355222978E+03   -0.59565E-01   -0.20477E-04  9638   0.208E-02    0.209E-01
RMM:  69    -0.704394727772E+03   -0.39505E-01   -0.11850E-04  9043   0.180E-02    0.168E-01
RMM:  70    -0.704419468794E+03   -0.24741E-01   -0.68829E-05  8889   0.141E-02    0.106E-01
RMM:  71    -0.704427151168E+03   -0.76824E-02   -0.39224E-05  8762   0.108E-02    0.743E-02
RMM:  72    -0.704428691428E+03   -0.15403E-02   -0.17488E-05  7778   0.757E-03    0.385E-02
RMM:  73    -0.704430004620E+03   -0.13132E-02   -0.11982E-05  7938   0.573E-03    0.240E-02
RMM:  74    -0.704430446753E+03   -0.44213E-03   -0.58244E-06  6334   0.424E-03    0.154E-02
RMM:  75    -0.704430594761E+03   -0.14801E-03   -0.28003E-06  4954   0.342E-03    0.101E-02
RMM:  76    -0.704430658606E+03   -0.63845E-04   -0.16105E-06  3912   0.314E-03
   1 F= -.70443066E+03 E0= -.70381598E+03  d E =-.704431E+03  mag=     1.9508
       N       E                     dE             d eps       ncg     rms          rms(c)
DAV:   1    -0.657261113024E+03    0.47169E+02   -0.40319E+03 15552   0.849E+01    0.208E+01
RMM:   2    -0.699894235639E+03   -0.42633E+02   -0.31727E+02 15291   0.198E+01    0.555E+01
RMM:   3    -0.709967379893E+03   -0.10073E+02   -0.54280E+01 15733   0.839E+00    0.461E+01
RMM:   4    -0.693327158490E+03    0.16640E+02   -0.56405E+00 15142   0.405E+00    0.323E+01
RMM:   5    -0.690921086673E+03    0.24061E+01   -0.20314E+00 15072   0.238E+00    0.317E+01
RMM:   6    -0.689914083673E+03    0.10070E+01   -0.12007E+00 15366   0.156E+00    0.271E+01
RMM:   7    -0.688051578143E+03    0.18625E+01   -0.46953E-01 15130   0.116E+00    0.210E+01
RMM:   8    -0.689109144067E+03   -0.10576E+01   -0.65618E-01 16091   0.864E-01    0.255E+01
RMM:   9    -0.690452995045E+03   -0.13439E+01   -0.71481E-01 17717   0.110E+00    0.259E+01
RMM:  10    -0.687041552518E+03    0.34114E+01   -0.25153E+00 19805   0.173E+00    0.121E+01
RMM:  11    -0.686414627110E+03    0.62693E+00   -0.10413E-01 14942   0.579E-01    0.805E+00
RMM:  12    -0.686362403759E+03    0.52223E-01   -0.29111E-02 15110   0.330E-01    0.795E+00
RMM:  13    -0.686244446717E+03    0.11796E+00   -0.70909E-02 15997   0.335E-01    0.650E+00
RMM:  14    -0.686239291691E+03    0.51550E-02   -0.98584E-02 17267   0.353E-01    0.515E+00
RMM:  15    -0.686244582311E+03   -0.52906E-02   -0.27591E-02 15605   0.210E-01    0.421E+00
RMM:  16    -0.686032981861E+03    0.21160E+00   -0.37758E-02 16479   0.232E-01    0.332E+00
RMM:  17    -0.685823400186E+03    0.20958E+00   -0.54438E-02 19132   0.294E-01    0.251E+00
RMM:  18    -0.685793537110E+03    0.29863E-01   -0.14829E-02 16468   0.178E-01    0.205E+00
RMM:  19    -0.685805295443E+03   -0.11758E-01   -0.92955E-03 15940   0.136E-01    0.178E+00
RMM:  20    -0.685879970438E+03   -0.74675E-01   -0.40050E-02 19510   0.247E-01    0.187E+00
RMM:  21    -0.685886976522E+03   -0.70061E-02   -0.41402E-03 15914   0.895E-02    0.164E+00
RMM:  22    -0.685895641959E+03   -0.86654E-02   -0.19945E-03 14582   0.654E-02    0.177E+00
RMM:  23    -0.685895054363E+03    0.58760E-03   -0.15492E-02 20547   0.153E-01    0.150E+00
RMM:  24    -0.685878134837E+03    0.16920E-01   -0.71855E-03 17868   0.102E-01    0.940E-01
RMM:  25    -0.685899817588E+03   -0.21683E-01   -0.27643E-03 15832   0.809E-02    0.720E-01
RMM:  26    -0.685924984382E+03   -0.25167E-01   -0.98431E-04 13758   0.513E-02    0.578E-01
RMM:  27    -0.685968888467E+03   -0.43904E-01   -0.12928E-03 13972   0.481E-02    0.409E-01
RMM:  28    -0.685999707809E+03   -0.30819E-01   -0.67012E-04 12842   0.393E-02    0.323E-01
RMM:  29    -0.686020930031E+03   -0.21222E-01   -0.61844E-04 12554   0.375E-02    0.246E-01
RMM:  30    -0.686040045894E+03   -0.19116E-01   -0.32127E-04 10525   0.269E-02    0.231E-01
RMM:  31    -0.686068378917E+03   -0.28333E-01   -0.73214E-04 11808   0.331E-02    0.225E-01
RMM:  32    -0.686103507933E+03   -0.35129E-01   -0.11349E-03 12789   0.359E-02    0.311E-01
RMM:  33    -0.686127688109E+03   -0.24180E-01   -0.63938E-04 11054   0.288E-02    0.337E-01
RMM:  34    -0.686154814464E+03   -0.27126E-01   -0.81959E-04 11071   0.264E-02    0.344E-01
RMM:  35    -0.686177874842E+03   -0.23060E-01   -0.38443E-04 10052   0.201E-02    0.278E-01
RMM:  36    -0.686204478621E+03   -0.26604E-01   -0.33464E-04  9854   0.203E-02    0.161E-01
RMM:  37    -0.686220774813E+03   -0.16296E-01   -0.10411E-04  8950   0.160E-02    0.103E-01
RMM:  38    -0.686235309150E+03   -0.14534E-01   -0.78023E-05  8756   0.138E-02    0.896E-02
RMM:  39    -0.686265126940E+03   -0.29818E-01   -0.16182E-04  9305   0.163E-02    0.157E-01
RMM:  40    -0.686283639316E+03   -0.18512E-01   -0.89375E-05  8907   0.138E-02    0.167E-01
RMM:  41    -0.686292943440E+03   -0.93041E-02   -0.42860E-05  8085   0.959E-03    0.152E-01
RMM:  42    -0.686305819394E+03   -0.12876E-01   -0.70354E-05  8639   0.884E-03    0.116E-01
RMM:  43    -0.686315343087E+03   -0.95237E-02   -0.57759E-05  8248   0.837E-03    0.796E-02
RMM:  44    -0.686324316878E+03   -0.89738E-02   -0.87553E-05  8903   0.101E-02    0.282E-02
RMM:  45    -0.686327218624E+03   -0.29017E-02   -0.37871E-05  7468   0.802E-03    0.251E-02
RMM:  46    -0.686328122340E+03   -0.90372E-03   -0.15340E-05  5950   0.561E-03    0.201E-02
RMM:  47    -0.686328969795E+03   -0.84745E-03   -0.10062E-05  5448   0.461E-03    0.210E-02
RMM:  48    -0.686329804692E+03   -0.83490E-03   -0.10339E-05  5291   0.426E-03    0.100E-02
RMM:  49    -0.686330311918E+03   -0.50723E-03   -0.65023E-06  4815   0.395E-03    0.832E-03
RMM:  50    -0.686330671111E+03   -0.35919E-03   -0.40711E-06  4023   0.350E-03    0.673E-03
RMM:  51    -0.686331112818E+03   -0.44171E-03   -0.45884E-06  4131   0.345E-03    0.553E-03
RMM:  52    -0.686331332799E+03   -0.21998E-03   -0.25676E-06  3571   0.323E-03    0.436E-03
RMM:  53    -0.686331644611E+03   -0.31181E-03   -0.37867E-06  3921   0.325E-03    0.387E-03
RMM:  54    -0.686331813168E+03   -0.16856E-03   -0.21672E-06  3407   0.311E-03    0.332E-03
RMM:  55    -0.686331912800E+03   -0.99632E-04   -0.13768E-06  2984   0.298E-03
   2 F= -.68633191E+03 E0= -.68571455E+03  d E =0.180987E+02  mag=     0.0002
       N       E                     dE             d eps       ncg     rms          rms(c)
DAV:   1    -0.694515689124E+03   -0.81839E+01   -0.28592E+03 14944   0.631E+01    0.247E+01
RMM:   2    -0.785389070725E+03   -0.90873E+02   -0.27833E+02 15052   0.157E+01    0.156E+02
RMM:   3    -0.753702340998E+03    0.31687E+02   -0.55625E+01 16138   0.740E+00    0.692E+01
RMM:   4    -0.720686878085E+03    0.33015E+02   -0.10760E+01 14995   0.426E+00    0.397E+01
RMM:   5    -0.719093495603E+03    0.15934E+01   -0.46061E+00 15097   0.359E+00    0.377E+01
RMM:   6    -0.711200942921E+03    0.78926E+01   -0.19660E+00 15491   0.192E+00    0.228E+01
RMM:   7    -0.710127299342E+03    0.10736E+01   -0.12494E+00 16058   0.143E+00    0.221E+01
RMM:   8    -0.708470029911E+03    0.16573E+01   -0.69154E-01 15909   0.113E+00    0.183E+01
RMM:   9    -0.707285985124E+03    0.11840E+01   -0.67381E-01 16648   0.109E+00    0.153E+01
RMM:  10    -0.706808703795E+03    0.47728E+00   -0.24004E+00 19172   0.156E+00    0.107E+01
RMM:  11    -0.706505844582E+03    0.30286E+00   -0.21927E-01 15265   0.722E-01    0.102E+01
RMM:  12    -0.706348603373E+03    0.15724E+00   -0.99163E-02 15236   0.513E-01    0.923E+00
RMM:  13    -0.706305359990E+03    0.43243E-01   -0.93305E-02 15763   0.421E-01    0.808E+00
RMM:  14    -0.706298871800E+03    0.64882E-02   -0.16846E-02 15316   0.225E-01    0.894E+00
RMM:  15    -0.706277948250E+03    0.20924E-01   -0.13376E-02 15357   0.173E-01    0.785E+00
RMM:  16    -0.706265499330E+03    0.12449E-01   -0.86625E-03 15681   0.124E-01    0.780E+00
RMM:  17    -0.706258499817E+03    0.69995E-02   -0.84990E-03 15974   0.115E-01    0.790E+00
RMM:  18    -0.706253564825E+03    0.49350E-02   -0.23171E-03 14635   0.835E-02    0.762E+00
RMM:  19    -0.706248338582E+03    0.52262E-02   -0.16619E-03 14292   0.641E-02    0.718E+00
RMM:  20    -0.706246217583E+03    0.21210E-02   -0.13535E-03 14361   0.547E-02    0.686E+00
RMM:  21    -0.706245951641E+03    0.26594E-03   -0.32460E-04 10862   0.309E-02    0.683E+00
RMM:  22    -0.706246166608E+03   -0.21497E-03   -0.14393E-04  9288   0.200E-02    0.689E+00
RMM:  23    -0.706246212044E+03   -0.45436E-04   -0.10517E-04  9103   0.166E-02
   3 F= -.70624621E+03 E0= -.70560494E+03  d E =-.181555E+01  mag=    -0.0016
       N       E                     dE             d eps       ncg     rms          rms(c)
DAV:   1    -0.706259090746E+03   -0.12924E-01   -0.35839E-01 15408   0.807E-01    0.691E+00
RMM:   2    -0.706574748773E+03   -0.31566E+00   -0.18573E-01 14897   0.610E-01    0.862E+00
RMM:   3    -0.707773694489E+03   -0.11989E+01   -0.14486E-01 14854   0.611E-01    0.152E+01
RMM:   4    -0.709153043905E+03   -0.13793E+01   -0.55930E-01 18128   0.105E+00    0.206E+01
RMM:   5    -0.706956587598E+03    0.21965E+01   -0.36524E-01 17160   0.924E-01    0.102E+01
RMM:   6    -0.706302788975E+03    0.65380E+00   -0.13942E-01 15657   0.614E-01    0.316E+00
RMM:   7    -0.706256854109E+03    0.45935E-01   -0.75087E-02 15131   0.392E-01    0.238E+00
RMM:   8    -0.706242273919E+03    0.14580E-01   -0.18003E-02 14896   0.268E-01    0.160E+00
RMM:   9    -0.706239519002E+03    0.27549E-02   -0.66689E-03 15892   0.113E-01    0.133E+00
RMM:  10    -0.706236996971E+03    0.25220E-02   -0.16586E-03 14285   0.633E-02    0.113E+00
RMM:  11    -0.706235763635E+03    0.12333E-02   -0.80538E-04 13582   0.435E-02    0.104E+00
RMM:  12    -0.706233767077E+03    0.19966E-02   -0.10006E-03 14389   0.467E-02    0.799E-01
RMM:  13    -0.706231323460E+03    0.24436E-02   -0.17906E-03 15942   0.574E-02    0.381E-01
RMM:  14    -0.706230855667E+03    0.46779E-03   -0.27554E-04 10462   0.304E-02    0.311E-01
RMM:  15    -0.706231112556E+03   -0.25689E-03   -0.74629E-05  8948   0.168E-02    0.335E-01
RMM:  16    -0.706231150900E+03   -0.38344E-04   -0.20303E-05  8473   0.884E-03
   4 F= -.70623115E+03 E0= -.70559341E+03  d E =-.180049E+01  mag=    -0.0078
       N       E                     dE             d eps       ncg     rms          rms(c)
DAV:   1    -0.705910706992E+03    0.32041E+00   -0.62691E+01 15040   0.106E+01    0.420E+00
RMM:   2    -0.712397894570E+03   -0.64872E+01   -0.33033E+00 14942   0.246E+00    0.308E+01
RMM:   3    -0.707298530502E+03    0.50994E+01   -0.51456E-01 15029   0.136E+00    0.129E+01
RMM:   4    -0.707520052976E+03   -0.22152E+00   -0.18739E-01 14860   0.806E-01    0.153E+01
RMM:   5    -0.706221308809E+03    0.12987E+01   -0.30439E-01 15708   0.680E-01    0.801E+00
RMM:   6    -0.706031433517E+03    0.18988E+00   -0.13380E-01 16153   0.492E-01    0.554E+00
RMM:   7    -0.706044728364E+03   -0.13295E-01   -0.67837E-02 16193   0.308E-01    0.454E+00
RMM:   8    -0.706001083125E+03    0.43645E-01   -0.29840E-02 15541   0.259E-01    0.283E+00
RMM:   9    -0.705959857507E+03    0.41226E-01   -0.27908E-02 15785   0.216E-01    0.200E+00
RMM:  10    -0.705965389473E+03   -0.55320E-02   -0.55777E-03 14972   0.137E-01    0.227E+00
RMM:  11    -0.705959386061E+03    0.60034E-02   -0.26315E-03 14460   0.849E-02    0.181E+00
RMM:  12    -0.705955951147E+03    0.34349E-02   -0.27267E-03 14660   0.714E-02    0.140E+00
RMM:  13    -0.705953958014E+03    0.19931E-02   -0.73810E-04 12819   0.457E-02    0.135E+00
RMM:  14    -0.705958014506E+03   -0.40565E-02   -0.63912E-04 12146   0.374E-02    0.143E+00
RMM:  15    -0.705961620708E+03   -0.36062E-02   -0.10041E-03 12635   0.378E-02    0.149E+00
RMM:  16    -0.705961793365E+03   -0.17266E-03   -0.12100E-03 14209   0.469E-02    0.142E+00
RMM:  17    -0.705956964699E+03    0.48287E-02   -0.11989E-03 14181   0.463E-02    0.111E+00
RMM:  18    -0.705952396186E+03    0.45685E-02   -0.20411E-03 15492   0.515E-02    0.676E-01
RMM:  19    -0.705951295814E+03    0.11004E-02   -0.14349E-03 14467   0.463E-02    0.438E-01
RMM:  20    -0.705951391271E+03   -0.95457E-04   -0.27665E-04 10166   0.289E-02
   5 F= -.70595139E+03 E0= -.70530491E+03  d E =-.152073E+01  mag=    -0.0102
       N       E                     dE             d eps       ncg     rms          rms(c)
DAV:   1    -0.706257857509E+03   -0.30656E+00   -0.31830E+01 14992   0.764E+00    0.251E+00
RMM:   2    -0.710077221137E+03   -0.38194E+01   -0.11453E+00 14877   0.147E+00    0.248E+01
RMM:   3    -0.706458781338E+03    0.36184E+01   -0.20663E-01 14868   0.927E-01    0.698E+00
RMM:   4    -0.706470423827E+03   -0.11642E-01   -0.61254E-02 14990   0.461E-01    0.743E+00
RMM:   5    -0.706476757163E+03   -0.63333E-02   -0.15977E-02 15663   0.191E-01    0.722E+00
RMM:   6    -0.706436748023E+03    0.40009E-01   -0.50021E-03 15304   0.104E-01    0.660E+00
RMM:   7    -0.706319391937E+03    0.11736E+00   -0.23645E-02 18800   0.195E-01    0.360E+00
RMM:   8    -0.706311310236E+03    0.80817E-02   -0.26127E-02 18644   0.192E-01    0.308E+00
RMM:   9    -0.706290138420E+03    0.21172E-01   -0.19192E-02 18536   0.180E-01    0.182E+00
RMM:  10    -0.706291897876E+03   -0.17595E-02   -0.22527E-03 14367   0.810E-02    0.185E+00
RMM:  11    -0.706282650605E+03    0.92473E-02   -0.19587E-03 14503   0.631E-02    0.157E+00
RMM:  12    -0.706282800687E+03   -0.15008E-03   -0.33903E-04 10844   0.309E-02    0.159E+00
RMM:  13    -0.706272589055E+03    0.10212E-01   -0.11116E-03 14565   0.482E-02    0.119E+00
RMM:  14    -0.706274865136E+03   -0.22761E-02   -0.53442E-04 11384   0.368E-02    0.118E+00
RMM:  15    -0.706275051557E+03   -0.18642E-03   -0.90762E-05  8941   0.195E-02    0.118E+00
RMM:  16    -0.706265720549E+03    0.93310E-02   -0.54996E-03 16887   0.976E-02    0.113E+00
RMM:  17    -0.706267337146E+03   -0.16166E-02   -0.32488E-03 16845   0.740E-02    0.137E+00
RMM:  18    -0.706270135271E+03   -0.27981E-02   -0.50134E-03 18954   0.968E-02    0.155E+00
RMM:  19    -0.706272278636E+03   -0.21434E-02   -0.11845E-03 13627   0.461E-02    0.156E+00
RMM:  20    -0.706274214057E+03   -0.19354E-02   -0.29377E-04 10060   0.286E-02    0.153E+00
RMM:  21    -0.706274740585E+03   -0.52653E-03   -0.64565E-05  8810   0.151E-02    0.152E+00
RMM:  22    -0.706273750646E+03    0.98994E-03   -0.27220E-05  8290   0.994E-03    0.155E+00
RMM:  23    -0.706277843096E+03   -0.40925E-02   -0.19763E-04  9197   0.183E-02    0.148E+00
RMM:  24    -0.706288739484E+03   -0.10896E-01   -0.26525E-03 15269   0.600E-02    0.131E+00
RMM:  25    -0.706292888198E+03   -0.41487E-02   -0.81274E-04 12372   0.368E-02    0.125E+00
RMM:  26    -0.706296091910E+03   -0.32037E-02   -0.61171E-04 11498   0.329E-02    0.117E+00
RMM:  27    -0.706298265259E+03   -0.21733E-02   -0.39422E-04 10622   0.319E-02    0.962E-01
RMM:  28    -0.706302397241E+03   -0.41320E-02   -0.59214E-04 12163   0.352E-02    0.754E-01
RMM:  29    -0.706306141458E+03   -0.37442E-02   -0.72569E-04 12030   0.370E-02    0.712E-01
RMM:  30    -0.706307840617E+03   -0.16992E-02   -0.63091E-04 12263   0.381E-02    0.491E-01
RMM:  31    -0.706307934098E+03   -0.93481E-04   -0.35508E-04 10457   0.320E-02
   6 F= -.70630793E+03 E0= -.70569644E+03  d E =-.187728E+01  mag=    -0.0112
       N       E                     dE             d eps       ncg     rms          rms(c)
DAV:   1    -0.706310585072E+03   -0.27445E-02   -0.43099E-01 15536   0.906E-01    0.376E-01
RMM:   2    -0.706317330834E+03   -0.67458E-02   -0.14878E-02 14645   0.179E-01    0.133E+00
RMM:   3    -0.706312825852E+03    0.45050E-02   -0.19346E-03 13696   0.857E-02    0.535E-01
RMM:   4    -0.706329646042E+03   -0.16820E-01   -0.15828E-03 13978   0.598E-02    0.181E+00
RMM:   5    -0.706316655539E+03    0.12991E-01   -0.88416E-04 12801   0.573E-02    0.104E+00
RMM:   6    -0.706312956387E+03    0.36992E-02   -0.98451E-04 13536   0.432E-02    0.634E-01
RMM:   7    -0.706311529825E+03    0.14266E-02   -0.43265E-04 11793   0.352E-02    0.193E-01
RMM:   8    -0.706311842463E+03   -0.31264E-03   -0.15878E-04  8966   0.239E-02    0.204E-01
RMM:   9    -0.706312213118E+03   -0.37065E-03   -0.52358E-05  8431   0.161E-02    0.228E-01
RMM:  10    -0.706312406409E+03   -0.19329E-03   -0.41261E-05  8213   0.103E-02    0.147E-01
RMM:  11    -0.706312494375E+03   -0.87966E-04   -0.27264E-05  7760   0.965E-03
   7 F= -.70631249E+03 E0= -.70570259E+03  d E =-.188184E+01  mag=    -0.0081
       N       E                     dE             d eps       ncg     rms          rms(c)
DAV:   1    -0.694235051584E+03    0.12077E+02   -0.88099E+02 14848   0.424E+01    0.108E+01
RMM:   2    -0.711404546885E+03   -0.17169E+02   -0.29345E+01 14848   0.782E+00    0.464E+01
RMM:   3    -0.699309186509E+03    0.12095E+02   -0.50936E+00 14979   0.356E+00    0.245E+01
RMM:   4    -0.696309576955E+03    0.29996E+01   -0.10632E+00 15112   0.196E+00    0.105E+01
RMM:   5    -0.695703423785E+03    0.60615E+00   -0.33245E-01 15009   0.106E+00    0.751E+00
RMM:   6    -0.695482862359E+03    0.22056E+00   -0.43521E-01 15586   0.951E-01    0.587E+00
RMM:   7    -0.695448391084E+03    0.34471E-01   -0.16157E-01 14998   0.721E-01    0.514E+00
RMM:   8    -0.695443272467E+03    0.51186E-02   -0.97722E-02 15078   0.534E-01    0.292E+00
RMM:   9    -0.695443380370E+03   -0.10790E-03   -0.80037E-02 15488   0.422E-01    0.280E+00
RMM:  10    -0.695427534710E+03    0.15846E-01   -0.41781E-02 15336   0.347E-01    0.897E-01
RMM:  11    -0.695432573870E+03   -0.50392E-02   -0.11147E-02 15961   0.158E-01    0.434E-01
RMM:  12    -0.695439423445E+03   -0.68496E-02   -0.27466E-03 14770   0.805E-02    0.610E-01
RMM:  13    -0.695442527638E+03   -0.31042E-02   -0.12623E-03 13717   0.538E-02    0.351E-01
RMM:  14    -0.695446034564E+03   -0.35069E-02   -0.13399E-03 13957   0.465E-02    0.233E-01
RMM:  15    -0.695447129317E+03   -0.10948E-02   -0.89290E-04 13316   0.384E-02    0.268E-01
RMM:  16    -0.695446784483E+03    0.34483E-03   -0.33623E-04 11090   0.286E-02    0.197E-01
RMM:  17    -0.695446551111E+03    0.23337E-03   -0.20147E-04  9749   0.209E-02    0.184E-01
RMM:  18    -0.695446518781E+03    0.32330E-04   -0.49914E-05  8552   0.131E-02
   8 F= -.69544652E+03 E0= -.69480947E+03  d E =0.108660E+02  mag=    -0.0057
       N       E                     dE             d eps       ncg     rms          rms(c)
DAV:   1    -0.706859423808E+03   -0.11413E+02   -0.60603E+02 14960   0.342E+01    0.186E+01
RMM:   2    -0.758843414654E+03   -0.51984E+02   -0.56885E+01 15186   0.814E+00    0.829E+01
RMM:   3    -0.718950699106E+03    0.39893E+02   -0.97176E+00 15046   0.493E+00    0.297E+01
RMM:   4    -0.716167273317E+03    0.27834E+01   -0.31731E+00 14848   0.304E+00    0.310E+01
RMM:   5    -0.708719934420E+03    0.74473E+01   -0.27876E+00 15327   0.233E+00    0.143E+01
RMM:   6    -0.707865992270E+03    0.85394E+00   -0.97515E-01 15278   0.149E+00    0.102E+01
RMM:   7    -0.707024240310E+03    0.84175E+00   -0.78459E-01 16174   0.107E+00    0.725E+00
RMM:   8    -0.706746312940E+03    0.27793E+00   -0.18918E-01 16449   0.608E-01    0.532E+00
RMM:   9    -0.706479250773E+03    0.26706E+00   -0.28522E-01 16526   0.581E-01    0.429E+00
RMM:  10    -0.706417082839E+03    0.62168E-01   -0.11550E-01 15714   0.517E-01    0.203E+00
RMM:  11    -0.706444069928E+03   -0.26987E-01   -0.76731E-02 15637   0.430E-01    0.321E+00
RMM:  12    -0.706432152067E+03    0.11918E-01   -0.27328E-02 14938   0.279E-01    0.260E+00
RMM:  13    -0.706416020136E+03    0.16132E-01   -0.11536E-02 15242   0.180E-01    0.166E+00
RMM:  14    -0.706404451860E+03    0.11568E-01   -0.52114E-03 14867   0.119E-01    0.960E-01
RMM:  15    -0.706400552988E+03    0.38989E-02   -0.28786E-03 14709   0.791E-02    0.762E-01
RMM:  16    -0.706400617239E+03   -0.64250E-04   -0.82468E-04 13131   0.390E-02
   9 F= -.70640062E+03 E0= -.70576241E+03  d E =-.881229E-01  mag=    -0.0048
       N       E                     dE             d eps       ncg     rms          rms(c)
DAV:   1    -0.706471118790E+03   -0.70566E-01   -0.22458E+00 15664   0.215E+00    0.126E+00
RMM:   2    -0.706530194619E+03   -0.59076E-01   -0.10455E-01 14910   0.477E-01    0.314E+00
RMM:   3    -0.706565441867E+03   -0.35247E-01   -0.28268E-02 14852   0.310E-01    0.426E+00
RMM:   4    -0.706474951760E+03    0.90490E-01   -0.75078E-03 14850   0.174E-01    0.129E+00
RMM:   5    -0.706472568943E+03    0.23828E-02   -0.39697E-03 14535   0.977E-02    0.129E+00
RMM:   6    -0.706469071329E+03    0.34976E-02   -0.20394E-03 13978   0.641E-02    0.122E+00
RMM:   7    -0.706465407535E+03    0.36638E-02   -0.11673E-03 13083   0.477E-02    0.114E+00
RMM:   8    -0.706465963401E+03   -0.55587E-03   -0.21088E-04  9875   0.262E-02    0.116E+00
RMM:   9    -0.706465178813E+03    0.78459E-03   -0.11436E-04  9011   0.161E-02    0.116E+00
RMM:  10    -0.706467769021E+03   -0.25902E-02   -0.51984E-04 10671   0.307E-02    0.123E+00
RMM:  11    -0.706471551488E+03   -0.37825E-02   -0.73384E-03 18239   0.106E-01    0.132E+00
RMM:  12    -0.706467181538E+03    0.43699E-02   -0.14954E-02 21018   0.143E-01    0.106E+00
RMM:  13    -0.706470220286E+03   -0.30387E-02   -0.24553E-03 15198   0.895E-02    0.496E-01
RMM:  14    -0.706470734394E+03   -0.51411E-03   -0.44542E-04 11507   0.369E-02    0.373E-01
RMM:  15    -0.706471826362E+03   -0.10920E-02   -0.35283E-04 10270   0.286E-02    0.410E-01
RMM:  16    -0.706471606749E+03    0.21961E-03   -0.10894E-04  8965   0.185E-02    0.339E-01
RMM:  17    -0.706471071060E+03    0.53569E-03   -0.91113E-05  8671   0.144E-02    0.255E-01
RMM:  18    -0.706471429566E+03   -0.35851E-03   -0.47318E-05  8104   0.121E-02    0.253E-01
RMM:  19    -0.706471599195E+03   -0.16963E-03   -0.12631E-04  8777   0.147E-02    0.228E-01
RMM:  20    -0.706471455876E+03    0.14332E-03   -0.22352E-04  9340   0.191E-02    0.145E-01
RMM:  21    -0.706471776719E+03   -0.32084E-03   -0.62507E-05  8381   0.144E-02    0.108E-01
RMM:  22    -0.706472096854E+03   -0.32014E-03   -0.45131E-05  8171   0.112E-02    0.698E-02
RMM:  23    -0.706472362606E+03   -0.26575E-03   -0.30829E-05  7876   0.900E-03    0.400E-02
RMM:  24    -0.706472491730E+03   -0.12912E-03   -0.18597E-05  7082   0.691E-03    0.274E-02
RMM:  25    -0.706472518949E+03   -0.27219E-04   -0.76798E-06  5494   0.456E-03
  10 F= -.70647252E+03 E0= -.70583082E+03  d E =-.160025E+00  mag=     0.0004
       N       E                     dE             d eps       ncg     rms          rms(c)
DAV:   1    -0.706457304379E+03    0.15187E-01   -0.25645E+00 15344   0.227E+00    0.104E+00
RMM:   2    -0.706812306090E+03   -0.35500E+00   -0.13781E-01 14919   0.511E-01    0.703E+00
RMM:   3    -0.706511844515E+03    0.30046E+00   -0.31953E-02 14848   0.341E-01    0.281E+00
RMM:   4    -0.706462052997E+03    0.49792E-01   -0.14000E-02 14905   0.210E-01    0.977E-01
RMM:   5    -0.706457457465E+03    0.45955E-02   -0.56298E-03 14834   0.115E-01    0.333E-01
RMM:   6    -0.706457674604E+03   -0.21714E-03   -0.21345E-03 14583   0.609E-02    0.353E-01
RMM:   7    -0.706457154898E+03    0.51971E-03   -0.62957E-04 12752   0.411E-02    0.180E-01
RMM:   8    -0.706457299852E+03   -0.14495E-03   -0.68032E-04 12496   0.372E-02    0.203E-01
RMM:   9    -0.706457179706E+03    0.12015E-03   -0.22711E-04  9899   0.284E-02    0.147E-01
RMM:  10    -0.706457113280E+03    0.66426E-04   -0.72696E-05  8510   0.167E-02
  11 F= -.70645711E+03 E0= -.70581595E+03  d E =-.144619E+00  mag=     0.0010
       N       E                     dE             d eps       ncg     rms          rms(c)
DAV:   1    -0.706483106538E+03   -0.25927E-01   -0.98009E-01 15344   0.140E+00    0.624E-01
RMM:   2    -0.706669828198E+03   -0.18672E+00   -0.48289E-02 14892   0.299E-01    0.601E+00
RMM:   3    -0.706493893532E+03    0.17593E+00   -0.14527E-02 14848   0.238E-01    0.162E+00
RMM:   4    -0.706483918443E+03    0.99751E-02   -0.54919E-03 14532   0.139E-01    0.510E-01
RMM:   5    -0.706483011632E+03    0.90681E-03   -0.17498E-03 13561   0.701E-02    0.241E-01
RMM:   6    -0.706482990674E+03    0.20958E-04   -0.49421E-04 11757   0.352E-02    0.264E-01
RMM:   7    -0.706482570805E+03    0.41987E-03   -0.27836E-04 10030   0.280E-02    0.171E-01
RMM:   8    -0.706482485632E+03    0.85173E-04   -0.23996E-04  9603   0.228E-02
  12 F= -.70648249E+03 E0= -.70584090E+03  d E =-.169991E+00  mag=     0.0039
       N       E                     dE             d eps       ncg     rms          rms(c)
DAV:   1    -0.704711752136E+03    0.17708E+01   -0.22506E+02 14848   0.216E+01    0.614E+00
RMM:   2    -0.715751896862E+03   -0.11040E+02   -0.84543E+00 14876   0.478E+00    0.441E+01
RMM:   3    -0.708017237482E+03    0.77347E+01   -0.16684E+00 15860   0.223E+00    0.229E+01
RMM:   4    -0.709882858417E+03   -0.18656E+01   -0.50280E-01 15106   0.122E+00    0.300E+01
RMM:   5    -0.705865131381E+03    0.40177E+01   -0.49595E-01 15288   0.994E-01    0.155E+01
RMM:   6    -0.705203691425E+03    0.66144E+00   -0.35444E-01 15954   0.830E-01    0.114E+01
RMM:   7    -0.705335343809E+03   -0.13165E+00   -0.32018E-01 16484   0.716E-01    0.111E+01
RMM:   8    -0.705420974066E+03   -0.85630E-01   -0.22106E-01 16598   0.628E-01    0.836E+00
RMM:   9    -0.705175248862E+03    0.24573E+00   -0.47601E-02 14946   0.382E-01    0.619E+00
RMM:  10    -0.705124458841E+03    0.50790E-01   -0.88617E-02 16276   0.345E-01    0.712E+00
RMM:  11    -0.705114038382E+03    0.10420E-01   -0.42052E-02 16096   0.301E-01    0.660E+00
RMM:  12    -0.705021809404E+03    0.92229E-01   -0.23679E-02 15682   0.246E-01    0.344E+00
RMM:  13    -0.705046615645E+03   -0.24806E-01   -0.10102E-02 15169   0.164E-01    0.383E+00
RMM:  14    -0.705039686767E+03    0.69289E-02   -0.28524E-03 15579   0.903E-02    0.374E+00
RMM:  15    -0.705040315706E+03   -0.62894E-03   -0.62438E-04 12094   0.359E-02    0.378E+00
RMM:  16    -0.705041259668E+03   -0.94396E-03   -0.82143E-05  9056   0.167E-02    0.381E+00
RMM:  17    -0.705040399472E+03    0.86020E-03   -0.17889E-04  9454   0.196E-02    0.379E+00
RMM:  18    -0.705039941021E+03    0.45845E-03   -0.23387E-04  9883   0.231E-02    0.379E+00
RMM:  19    -0.705019658863E+03    0.20282E-01   -0.33064E-03 16515   0.756E-02    0.333E+00
RMM:  20    -0.705005311010E+03    0.14348E-01   -0.24474E-03 16777   0.630E-02    0.291E+00
RMM:  21    -0.704989186473E+03    0.16125E-01   -0.28023E-03 18240   0.705E-02    0.236E+00
RMM:  22    -0.704978285242E+03    0.10901E-01   -0.21074E-03 16277   0.610E-02    0.187E+00
RMM:  23    -0.704973377423E+03    0.49078E-02   -0.78133E-04 13055   0.398E-02    0.159E+00
RMM:  24    -0.704970503405E+03    0.28740E-02   -0.34273E-04 10598   0.275E-02    0.141E+00
RMM:  25    -0.704969895440E+03    0.60797E-03   -0.80461E-05  8936   0.181E-02    0.136E+00
RMM:  26    -0.704970159667E+03   -0.26423E-03   -0.25507E-05  8621   0.106E-02    0.137E+00
RMM:  27    -0.704970171024E+03   -0.11356E-04   -0.90379E-06  7460   0.582E-03
  13 F= -.70497017E+03 E0= -.70430928E+03  d E =0.151231E+01  mag=    -0.0015
       N       E                     dE             d eps       ncg     rms          rms(c)
DAV:   1    -0.706396473878E+03   -0.14263E+01   -0.15121E+02 15088   0.176E+01    0.516E+00
RMM:   2    -0.708873962310E+03   -0.24775E+01   -0.38874E+00 14849   0.352E+00    0.225E+01
RMM:   3    -0.707508982167E+03    0.13650E+01   -0.86216E-01 16840   0.148E+00    0.153E+01
RMM:   4    -0.710146079825E+03   -0.26371E+01   -0.33351E-01 14976   0.886E-01    0.262E+01
RMM:   5    -0.707045613767E+03    0.31005E+01   -0.24171E-01 15367   0.859E-01    0.117E+01
RMM:   6    -0.706703306311E+03    0.34231E+00   -0.19275E-01 15522   0.674E-01    0.609E+00
RMM:   7    -0.706748568401E+03   -0.45262E-01   -0.85141E-02 15074   0.492E-01    0.664E+00
RMM:   8    -0.706754126424E+03   -0.55580E-02   -0.57408E-02 15734   0.353E-01    0.653E+00
RMM:   9    -0.706716795710E+03    0.37331E-01   -0.39519E-02 15881   0.295E-01    0.534E+00
RMM:  10    -0.706642512309E+03    0.74283E-01   -0.14560E-02 15122   0.206E-01    0.384E+00
RMM:  11    -0.706591346287E+03    0.51166E-01   -0.12714E-02 15385   0.163E-01    0.293E+00
RMM:  12    -0.706559826750E+03    0.31520E-01   -0.13353E-02 16232   0.168E-01    0.239E+00
RMM:  13    -0.706536116278E+03    0.23710E-01   -0.10842E-02 16191   0.151E-01    0.197E+00
RMM:  14    -0.706545994297E+03   -0.98780E-02   -0.29439E-03 14624   0.914E-02    0.162E+00
RMM:  15    -0.706557420318E+03   -0.11426E-01   -0.18780E-03 14193   0.587E-02    0.150E+00
RMM:  16    -0.706567465909E+03   -0.10046E-01   -0.12343E-03 13666   0.446E-02    0.147E+00
RMM:  17    -0.706579876212E+03   -0.12410E-01   -0.14135E-03 13786   0.453E-02    0.145E+00
RMM:  18    -0.706589491152E+03   -0.96149E-02   -0.34418E-03 16435   0.699E-02    0.131E+00
RMM:  19    -0.706591797805E+03   -0.23067E-02   -0.32634E-03 16990   0.718E-02    0.118E+00
RMM:  20    -0.706593094812E+03   -0.12970E-02   -0.42036E-03 18234   0.817E-02    0.893E-01
RMM:  21    -0.706601978389E+03   -0.88836E-02   -0.22353E-03 16653   0.619E-02    0.607E-01
RMM:  22    -0.706617202162E+03   -0.15224E-01   -0.18740E-03 14851   0.542E-02    0.631E-01
RMM:  23    -0.706628719131E+03   -0.11517E-01   -0.15073E-03 14582   0.480E-02    0.605E-01
RMM:  24    -0.706642270181E+03   -0.13551E-01   -0.23560E-03 15976   0.549E-02    0.399E-01
RMM:  25    -0.706645166987E+03   -0.28968E-02   -0.38770E-04 11128   0.296E-02    0.279E-01
RMM:  26    -0.706647643297E+03   -0.24763E-02   -0.26481E-04 10141   0.248E-02    0.184E-01
RMM:  27    -0.706649679900E+03   -0.20366E-02   -0.12961E-04  9011   0.192E-02    0.139E-01
RMM:  28    -0.706650378457E+03   -0.69856E-03   -0.65413E-05  8704   0.142E-02    0.104E-01
RMM:  29    -0.706650727356E+03   -0.34890E-03   -0.56562E-05  8621   0.123E-02    0.616E-02
RMM:  30    -0.706651104775E+03   -0.37742E-03   -0.34190E-05  8311   0.100E-02    0.385E-02
RMM:  31    -0.706651445663E+03   -0.34089E-03   -0.14894E-05  7693   0.719E-03    0.354E-02
RMM:  32    -0.706651717357E+03   -0.27169E-03   -0.14527E-05  7260   0.565E-03    0.289E-02
RMM:  33    -0.706651574688E+03    0.14267E-03   -0.87114E-06  6836   0.506E-03    0.243E-02
RMM:  34    -0.706651377610E+03    0.19708E-03   -0.57735E-06  5515   0.407E-03    0.245E-02
RMM:  35    -0.706651294724E+03    0.82885E-04   -0.38538E-06  5183   0.371E-03
  14 F= -.70665129E+03 E0= -.70603762E+03  d E =-.168809E+00  mag=    -0.0412
       N       E                     dE             d eps       ncg     rms          rms(c)
DAV:   1    -0.705970517316E+03    0.68086E+00   -0.64711E+01 15200   0.114E+01    0.389E+00
RMM:   2    -0.708666702056E+03   -0.26962E+01   -0.26199E+00 14891   0.248E+00    0.225E+01
RMM:   3    -0.706520300782E+03    0.21464E+01   -0.44963E-01 15443   0.121E+00    0.113E+01
RMM:   4    -0.707265000552E+03   -0.74470E+00   -0.15616E-01 14951   0.701E-01    0.154E+01
RMM:   5    -0.706212232964E+03    0.10528E+01   -0.29242E-01 16191   0.716E-01    0.723E+00
RMM:   6    -0.706020283124E+03    0.19195E+00   -0.10349E-01 15462   0.494E-01    0.382E+00
RMM:   7    -0.706033776020E+03   -0.13493E-01   -0.48191E-02 16247   0.306E-01    0.309E+00
RMM:   8    -0.706039909078E+03   -0.61331E-02   -0.25528E-02 15142   0.259E-01    0.305E+00
RMM:   9    -0.706004347700E+03    0.35561E-01   -0.15617E-02 15427   0.211E-01    0.188E+00
RMM:  10    -0.706003512482E+03    0.83522E-03   -0.57617E-03 15302   0.117E-01    0.163E+00
RMM:  11    -0.706003047038E+03    0.46544E-03   -0.16019E-03 14169   0.765E-02    0.133E+00
RMM:  12    -0.706001558326E+03    0.14887E-02   -0.11940E-03 14271   0.510E-02    0.109E+00
RMM:  13    -0.705999562394E+03    0.19959E-02   -0.13389E-03 14758   0.516E-02    0.740E-01
RMM:  14    -0.705998789164E+03    0.77323E-03   -0.12809E-03 14355   0.459E-02    0.601E-01
RMM:  15    -0.705998645902E+03    0.14326E-03   -0.77170E-04 13215   0.390E-02    0.423E-01
RMM:  16    -0.705998564126E+03    0.81776E-04   -0.29379E-04 10678   0.279E-02
  15 F= -.70599856E+03 E0= -.70538201E+03  d E =0.652731E+00  mag=    -0.0254
       N       E                     dE             d eps       ncg     rms          rms(c)
DAV:   1    -0.706614167603E+03   -0.61552E+00   -0.27617E+01 15232   0.744E+00    0.299E+00
RMM:   2    -0.708255280902E+03   -0.16411E+01   -0.10166E+00 14857   0.158E+00    0.187E+01
RMM:   3    -0.706697939874E+03    0.15573E+01   -0.16896E-01 15043   0.806E-01    0.580E+00
RMM:   4    -0.707251794333E+03   -0.55385E+00   -0.72204E-02 14898   0.480E-01    0.110E+01
RMM:   5    -0.706881059209E+03    0.37074E+00   -0.39073E-02 14990   0.380E-01    0.758E+00
RMM:   6    -0.706848055949E+03    0.33003E-01   -0.19200E-02 15187   0.210E-01    0.700E+00
RMM:   7    -0.706811703608E+03    0.36352E-01   -0.39839E-02 16469   0.241E-01    0.637E+00
RMM:   8    -0.706529173689E+03    0.28253E+00   -0.13367E-01 20324   0.420E-01    0.501E+00
RMM:   9    -0.706475944538E+03    0.53229E-01   -0.15459E-02 16124   0.184E-01    0.371E+00
RMM:  10    -0.706493217993E+03   -0.17273E-01   -0.94889E-03 15445   0.144E-01    0.269E+00
RMM:  11    -0.706560239194E+03   -0.67021E-01   -0.19499E-02 17307   0.172E-01    0.187E+00
RMM:  12    -0.706610355094E+03   -0.50116E-01   -0.15735E-02 16967   0.152E-01    0.146E+00
RMM:  13    -0.706611647833E+03   -0.12927E-02   -0.20768E-03 14481   0.803E-02    0.111E+00
RMM:  14    -0.706614917631E+03   -0.32698E-02   -0.13634E-03 14363   0.555E-02    0.955E-01
RMM:  15    -0.706619718562E+03   -0.48009E-02   -0.15790E-03 14576   0.558E-02    0.842E-01
RMM:  16    -0.706621528831E+03   -0.18103E-02   -0.83741E-04 13251   0.423E-02    0.752E-01
RMM:  17    -0.706622639121E+03   -0.11103E-02   -0.10943E-03 13290   0.457E-02    0.592E-01
RMM:  18    -0.706623170943E+03   -0.53182E-03   -0.43191E-04 11507   0.322E-02    0.488E-01
RMM:  19    -0.706624077939E+03   -0.90700E-03   -0.50334E-04 11515   0.318E-02    0.376E-01
RMM:  20    -0.706625233458E+03   -0.11555E-02   -0.41477E-04 10812   0.292E-02    0.281E-01
RMM:  21    -0.706626297269E+03   -0.10638E-02   -0.37549E-04 10359   0.278E-02    0.193E-01
RMM:  22    -0.706627868444E+03   -0.15712E-02   -0.66206E-04 11869   0.348E-02    0.895E-02
RMM:  23    -0.706628588119E+03   -0.71967E-03   -0.20584E-04  9270   0.229E-02    0.477E-02
RMM:  24    -0.706628813875E+03   -0.22576E-03   -0.67267E-05  8426   0.153E-02    0.402E-02
RMM:  25    -0.706628887300E+03   -0.73425E-04   -0.42136E-05  8011   0.113E-02
  16 F= -.70662889E+03 E0= -.70601425E+03  d E =0.224074E-01  mag=    -0.0106
       N       E                     dE             d eps       ncg     rms          rms(c)
DAV:   1    -0.706710663297E+03   -0.81849E-01   -0.24784E+00 15504   0.224E+00    0.903E-01
RMM:   2    -0.706832356053E+03   -0.12169E+00   -0.95552E-02 14872   0.458E-01    0.507E+00
RMM:   3    -0.706717174295E+03    0.11518E+00   -0.14943E-02 14895   0.248E-01    0.164E+00
RMM:   4    -0.706761641760E+03   -0.44467E-01   -0.66110E-03 14813   0.148E-01    0.305E+00
RMM:   5    -0.706733150443E+03    0.28491E-01   -0.47486E-03 14866   0.128E-01    0.224E+00
RMM:   6    -0.706720653400E+03    0.12497E-01   -0.36876E-03 15033   0.968E-02    0.163E+00
RMM:   7    -0.706710739602E+03    0.99138E-02   -0.47770E-03 16064   0.941E-02    0.745E-01
RMM:   8    -0.706708597332E+03    0.21423E-02   -0.13271E-03 14299   0.542E-02    0.453E-01
RMM:   9    -0.706709431164E+03   -0.83383E-03   -0.38431E-04 11577   0.350E-02    0.372E-01
RMM:  10    -0.706710745029E+03   -0.13139E-02   -0.39273E-04 10805   0.290E-02    0.260E-01
RMM:  11    -0.706711303319E+03   -0.55829E-03   -0.38113E-04 10538   0.270E-02    0.143E-01
RMM:  12    -0.706711542478E+03   -0.23916E-03   -0.97256E-05  8629   0.168E-02    0.129E-01
RMM:  13    -0.706711546142E+03   -0.36639E-05   -0.34955E-05  8070   0.113E-02
  17 F= -.70671155E+03 E0= -.70609780E+03  d E =-.602514E-01  mag=    -0.0074
       N       E                     dE             d eps       ncg     rms          rms(c)
DAV:   1    -0.706711679716E+03   -0.13724E-03   -0.10754E-02 15504   0.149E-01    0.807E-02
RMM:   2    -0.706716038695E+03   -0.43590E-02   -0.71172E-04 12937   0.384E-02    0.874E-01
RMM:   3    -0.706711711813E+03    0.43269E-02   -0.24848E-04  9636   0.345E-02    0.182E-01
RMM:   4    -0.706711779111E+03   -0.67297E-04   -0.57786E-05  8102   0.174E-02    0.144E-01
RMM:   5    -0.706711800865E+03   -0.21755E-04   -0.30006E-05  7612   0.906E-03    0.146E-01
RMM:   6    -0.706711722001E+03    0.78865E-04   -0.34900E-05  7694   0.936E-03    0.926E-02
RMM:   7    -0.706711706646E+03    0.15355E-04   -0.15555E-05  7187   0.779E-03    0.307E-02
RMM:   8    -0.706711749821E+03   -0.43175E-04   -0.99359E-06  6736   0.523E-03
  18 F= -.70671175E+03 E0= -.70609761E+03  d E =-.604551E-01  mag=    -0.0061
       N       E                     dE             d eps       ncg     rms          rms(c)
DAV:   1    -0.706586177309E+03    0.12553E+00   -0.11566E+01 15328   0.497E+00    0.121E+00
RMM:   2    -0.706644813546E+03   -0.58636E-01   -0.29816E-01 14859   0.984E-01    0.292E+00
RMM:   3    -0.706719457970E+03   -0.74644E-01   -0.66646E-02 15677   0.420E-01    0.435E+00
RMM:   4    -0.706610056888E+03    0.10940E+00   -0.16959E-02 14935   0.256E-01    0.102E+00
RMM:   5    -0.706612733762E+03   -0.26769E-02   -0.68779E-03 14913   0.154E-01    0.123E+00
RMM:   6    -0.706612356976E+03    0.37679E-03   -0.51158E-03 15137   0.116E-01    0.125E+00
RMM:   7    -0.706611235029E+03    0.11219E-02   -0.25751E-03 14612   0.881E-02    0.118E+00
RMM:   8    -0.706609008327E+03    0.22267E-02   -0.16704E-03 14425   0.656E-02    0.856E-01
RMM:   9    -0.706604811035E+03    0.41973E-02   -0.96982E-04 13828   0.551E-02    0.318E-01
RMM:  10    -0.706604493556E+03    0.31748E-03   -0.46695E-04 12152   0.373E-02    0.135E-01
RMM:  11    -0.706604493604E+03   -0.47934E-07   -0.18728E-04  9503   0.232E-02
  19 F= -.70660449E+03 E0= -.70599091E+03  d E =0.107256E+00  mag=    -0.0061
       N       E                     dE             d eps       ncg     rms          rms(c)
DAV:   1    -0.706735405238E+03   -0.13091E+00   -0.58332E+00 15456   0.351E+00    0.916E-01
RMM:   2    -0.706750875186E+03   -0.15470E-01   -0.14659E-01 14860   0.700E-01    0.148E+00
RMM:   3    -0.706752789158E+03   -0.19140E-02   -0.28454E-02 15781   0.286E-01    0.140E+00
RMM:   4    -0.706758418658E+03   -0.56295E-02   -0.70419E-03 15221   0.151E-01    0.142E+00
RMM:   5    -0.706751888834E+03    0.65298E-02   -0.35582E-03 14900   0.102E-01    0.118E+00
RMM:   6    -0.706748172750E+03    0.37161E-02   -0.19324E-03 14456   0.818E-02    0.863E-01
RMM:   7    -0.706746005065E+03    0.21677E-02   -0.15217E-03 14440   0.671E-02    0.627E-01
RMM:   8    -0.706745490487E+03    0.51458E-03   -0.85346E-04 13711   0.484E-02    0.433E-01
RMM:   9    -0.706744561391E+03    0.92910E-03   -0.42362E-04 12152   0.376E-02    0.162E-01
RMM:  10    -0.706744585193E+03   -0.23802E-04   -0.16041E-04  9052   0.232E-02
  20 F= -.70674459E+03 E0= -.70613046E+03  d E =-.328354E-01  mag=    -0.0046
       N       E                     dE             d eps       ncg     rms          rms(c)
DAV:   1    -0.706744726080E+03   -0.16469E-03   -0.14141E-02 15600   0.178E-01    0.108E-01
RMM:   2    -0.706750480578E+03   -0.57545E-02   -0.83656E-04 13813   0.474E-02    0.943E-01
RMM:   3    -0.706744892415E+03    0.55882E-02   -0.37149E-04 11299   0.405E-02    0.270E-01
RMM:   4    -0.706744755136E+03    0.13728E-03   -0.10269E-04  8319   0.228E-02    0.996E-02
RMM:   5    -0.706744719469E+03    0.35666E-04   -0.26906E-05  8000   0.119E-02    0.417E-02
RMM:   6    -0.706744735173E+03   -0.15704E-04   -0.14058E-05  7458   0.713E-03    0.349E-02
RMM:   7    -0.706744748698E+03   -0.13525E-04   -0.68150E-06  6723   0.531E-03    0.177E-02
RMM:   8    -0.706744763438E+03   -0.14740E-04   -0.41526E-06  5782   0.404E-03
  21 F= -.70674476E+03 E0= -.70613074E+03  d E =-.330136E-01  mag=    -0.0041
       N       E                     dE             d eps       ncg     rms          rms(c)
DAV:   1    -0.706722503088E+03    0.22246E-01   -0.29162E+00 15472   0.236E+00    0.502E-01
RMM:   2    -0.706732949300E+03   -0.10446E-01   -0.58650E-02 14855   0.458E-01    0.117E+00
RMM:   3    -0.706735422512E+03   -0.24732E-02   -0.14588E-02 16584   0.187E-01    0.114E+00
RMM:   4    -0.706736804771E+03   -0.13823E-02   -0.39297E-03 14768   0.110E-01    0.131E+00
RMM:   5    -0.706731104834E+03    0.56999E-02   -0.12848E-03 13903   0.725E-02    0.870E-01
RMM:   6    -0.706727087397E+03    0.40174E-02   -0.99807E-04 13688   0.503E-02    0.396E-01
RMM:   7    -0.706726701950E+03    0.38545E-03   -0.10247E-03 14388   0.512E-02    0.248E-01
RMM:   8    -0.706726695416E+03    0.65342E-05   -0.33781E-04 11547   0.315E-02
  22 F= -.70672670E+03 E0= -.70611328E+03  d E =0.180680E-01  mag=    -0.0024
       N       E                     dE             d eps       ncg     rms          rms(c)
DAV:   1    -0.706755022365E+03   -0.28320E-01   -0.12245E+00 15680   0.153E+00    0.400E-01
RMM:   2    -0.706769765839E+03   -0.14743E-01   -0.27202E-02 14866   0.305E-01    0.147E+00
RMM:   3    -0.706760128995E+03    0.96368E-02   -0.67362E-03 15935   0.136E-01    0.825E-01
RMM:   4    -0.706762089602E+03   -0.19606E-02   -0.22081E-03 14575   0.851E-02    0.991E-01
RMM:   5    -0.706757649262E+03    0.44403E-02   -0.78322E-04 13137   0.575E-02    0.483E-01
RMM:   6    -0.706756448238E+03    0.12010E-02   -0.33420E-04 11184   0.297E-02    0.245E-01
RMM:   7    -0.706756359613E+03    0.88625E-04   -0.38723E-04 11171   0.320E-02    0.196E-01
RMM:   8    -0.706756396987E+03   -0.37375E-04   -0.25633E-04 10076   0.269E-02
  23 F= -.70675640E+03 E0= -.70614278E+03  d E =-.116335E-01  mag=    -0.0022
       N       E                     dE             d eps       ncg     rms          rms(c)
DAV:   1    -0.706759137839E+03   -0.27782E-02   -0.13138E+00 15376   0.150E+00    0.736E-01
RMM:   2    -0.707010285694E+03   -0.25115E+00   -0.68221E-02 14901   0.384E-01    0.677E+00
RMM:   3    -0.706760852280E+03    0.24943E+00   -0.14301E-02 14852   0.255E-01    0.148E+00
RMM:   4    -0.706780898701E+03   -0.20046E-01   -0.48280E-03 14698   0.131E-01    0.212E+00
RMM:   5    -0.706764916068E+03    0.15983E-01   -0.40305E-03 14762   0.100E-01    0.137E+00
RMM:   6    -0.706759800036E+03    0.51160E-02   -0.24669E-03 14858   0.762E-02    0.857E-01
RMM:   7    -0.706757586554E+03    0.22135E-02   -0.12891E-03 14150   0.556E-02    0.399E-01
RMM:   8    -0.706757435848E+03    0.15071E-03   -0.46959E-04 12422   0.370E-02    0.357E-01
RMM:   9    -0.706757756422E+03   -0.32057E-03   -0.14879E-04  9121   0.223E-02    0.406E-01
RMM:  10    -0.706757555985E+03    0.20044E-03   -0.68333E-05  8481   0.151E-02    0.313E-01
RMM:  11    -0.706757254657E+03    0.30133E-03   -0.59116E-05  8423   0.134E-02    0.169E-01
RMM:  12    -0.706757226040E+03    0.28617E-04   -0.40441E-05  8301   0.115E-02
  24 F= -.70675723E+03 E0= -.70614353E+03  d E =-.829053E-03  mag=    -0.0017
       N       E                     dE             d eps       ncg     rms          rms(c)
DAV:   1    -0.706763673489E+03   -0.64188E-02   -0.31467E-01 15408   0.733E-01    0.335E-01
RMM:   2    -0.706807092476E+03   -0.43419E-01   -0.13604E-02 14898   0.178E-01    0.285E+00
RMM:   3    -0.706762793142E+03    0.44299E-01   -0.30388E-03 14622   0.118E-01    0.580E-01
RMM:   4    -0.706767825337E+03   -0.50322E-02   -0.10589E-03 13644   0.627E-02    0.930E-01
RMM:   5    -0.706765515854E+03    0.23095E-02   -0.60781E-04 12378   0.446E-02    0.703E-01
RMM:   6    -0.706764172980E+03    0.13429E-02   -0.44937E-04 11501   0.342E-02    0.483E-01
RMM:   7    -0.706763524186E+03    0.64879E-03   -0.41539E-04 11107   0.311E-02    0.213E-01
RMM:   8    -0.706763492575E+03    0.31610E-04   -0.10972E-04  8577   0.194E-02
  25 F= -.70676349E+03 E0= -.70614987E+03  d E =-.709559E-02  mag=    -0.0014
       N       E                     dE             d eps       ncg     rms          rms(c)
DAV:   1    -0.706767257636E+03   -0.37335E-02   -0.81769E-01 15488   0.114E+00    0.381E-01
RMM:   2    -0.706822182613E+03   -0.54925E-01   -0.21541E-02 14868   0.257E-01    0.319E+00
RMM:   3    -0.706770692416E+03    0.51490E-01   -0.43960E-03 14957   0.137E-01    0.106E+00
RMM:   4    -0.706775362390E+03   -0.46700E-02   -0.13479E-03 14730   0.647E-02    0.126E+00
RMM:   5    -0.706768822965E+03    0.65394E-02   -0.17494E-03 14605   0.623E-02    0.709E-01
RMM:   6    -0.706767882075E+03    0.94089E-03   -0.12536E-03 14732   0.578E-02    0.383E-01
RMM:   7    -0.706767573906E+03    0.30817E-03   -0.57838E-04 12973   0.396E-02    0.154E-01
RMM:   8    -0.706767659486E+03   -0.85580E-04   -0.23067E-04  9923   0.268E-02
  26 F= -.70676766E+03 E0= -.70615348E+03  d E =-.416691E-02  mag=    -0.0015
       N       E                     dE             d eps       ncg     rms          rms(c)
DAV:   1    -0.706768945475E+03   -0.13716E-02   -0.86936E-02 15600   0.371E-01    0.228E-01
RMM:   2    -0.706807156317E+03   -0.38211E-01   -0.51623E-03 14810   0.110E-01    0.254E+00
RMM:   3    -0.706767931502E+03    0.39225E-01   -0.18103E-03 14340   0.951E-02    0.367E-01
RMM:   4    -0.706768959893E+03   -0.10284E-02   -0.43209E-04 11656   0.434E-02    0.307E-01
RMM:   5    -0.706768918371E+03    0.41521E-04   -0.26462E-04  9953   0.277E-02    0.270E-01
RMM:   6    -0.706768700786E+03    0.21759E-03   -0.15466E-04  8636   0.230E-02    0.163E-01
RMM:   7    -0.706768648850E+03    0.51935E-04   -0.70420E-05  8138   0.152E-02    0.882E-02
RMM:   8    -0.706768633300E+03    0.15550E-04   -0.41522E-05  7819   0.111E-02
  27 F= -.70676863E+03 E0= -.70615460E+03  d E =-.514072E-02  mag=    -0.0013
       N       E                     dE             d eps       ncg     rms          rms(c)
DAV:   1    -0.706770773297E+03   -0.21244E-02   -0.50057E-01 15520   0.874E-01    0.246E-01
RMM:   2    -0.706772262872E+03   -0.14896E-02   -0.10029E-02 14858   0.194E-01    0.503E-01
RMM:   3    -0.706772673102E+03   -0.41023E-03   -0.24464E-03 15849   0.835E-02    0.461E-01
RMM:   4    -0.706774569138E+03   -0.18960E-02   -0.90568E-04 14163   0.472E-02    0.721E-01
RMM:   5    -0.706771559569E+03    0.30096E-02   -0.40373E-04 11856   0.395E-02    0.287E-01
RMM:   6    -0.706771367769E+03    0.19180E-03   -0.32551E-04 10775   0.295E-02    0.162E-01
RMM:   7    -0.706771354980E+03    0.12790E-04   -0.22288E-04  9614   0.249E-02    0.124E-01
RMM:   8    -0.706771371550E+03   -0.16570E-04   -0.87874E-05  8330   0.172E-02
  28 F= -.70677137E+03 E0= -.70615721E+03  d E =-.273825E-02  mag=    -0.0008
       N       E                     dE             d eps       ncg     rms          rms(c)
DAV:   1    -0.706771736315E+03   -0.38134E-03   -0.29516E-02 15568   0.214E-01    0.827E-02
RMM:   2    -0.706773041982E+03   -0.13057E-02   -0.84080E-04 13694   0.528E-02    0.465E-01
RMM:   3    -0.706771726220E+03    0.13158E-02   -0.21130E-04  9198   0.272E-02    0.131E-01
RMM:   4    -0.706771854054E+03   -0.12783E-03   -0.83354E-05  8074   0.194E-02    0.147E-01
RMM:   5    -0.706771751902E+03    0.10215E-03   -0.39349E-05  7820   0.126E-02    0.804E-02
RMM:   6    -0.706771734792E+03    0.17110E-04   -0.21915E-05  7557   0.903E-03    0.498E-02
RMM:   7    -0.706771734719E+03    0.73618E-07   -0.10557E-05  7046   0.641E-03    0.203E-02
RMM:   8    -0.706771742495E+03   -0.77762E-05   -0.10611E-05  7119   0.538E-03
  29 F= -.70677174E+03 E0= -.70615776E+03  d E =-.310919E-02  mag=    -0.0006
       N       E                     dE             d eps       ncg     rms          rms(c)
DAV:   1    -0.706772007777E+03   -0.27306E-03   -0.35551E-01 15328   0.752E-01    0.306E-01
RMM:   2    -0.706784924641E+03   -0.12917E-01   -0.11432E-02 14863   0.197E-01    0.164E+00
RMM:   3    -0.706772815434E+03    0.12109E-01   -0.24780E-03 15020   0.930E-02    0.517E-01
RMM:   4    -0.706777742716E+03   -0.49273E-02   -0.10470E-03 14019   0.563E-02    0.100E+00
RMM:   5    -0.706773725244E+03    0.40175E-02   -0.62576E-04 12738   0.454E-02    0.621E-01
RMM:   6    -0.706772639420E+03    0.10858E-02   -0.48661E-04 11810   0.356E-02    0.386E-01
RMM:   7    -0.706772118307E+03    0.52111E-03   -0.32392E-04 10857   0.301E-02    0.125E-01
RMM:   8    -0.706772174883E+03   -0.56576E-04   -0.10997E-04  8515   0.200E-02
  30 F= -.70677217E+03 E0= -.70615816E+03  d E =-.432388E-03  mag=    -0.0009
       N       E                     dE             d eps       ncg     rms          rms(c)
DAV:   1    -0.706773270376E+03   -0.11521E-02   -0.72562E-02 15648   0.340E-01    0.223E-01
RMM:   2    -0.706812199894E+03   -0.38930E-01   -0.51859E-03 14735   0.113E-01    0.254E+00
RMM:   3    -0.706772092280E+03    0.40108E-01   -0.17300E-03 14378   0.938E-02    0.300E-01
RMM:   4    -0.706773373507E+03   -0.12812E-02   -0.43475E-04 11680   0.423E-02    0.311E-01
RMM:   5    -0.706773243000E+03    0.13051E-03   -0.21935E-04  9256   0.267E-02    0.239E-01
RMM:   6    -0.706773162170E+03    0.80830E-04   -0.98316E-05  8264   0.188E-02    0.182E-01
RMM:   7    -0.706773109205E+03    0.52965E-04   -0.47657E-05  7885   0.125E-02    0.116E-01
RMM:   8    -0.706773054845E+03    0.54360E-04   -0.34568E-05  7781   0.970E-03
  31 F= -.70677305E+03 E0= -.70615912E+03  d E =-.131235E-02  mag=    -0.0007
       N       E                     dE             d eps       ncg     rms          rms(c)
DAV:   1    -0.706773634251E+03   -0.52505E-03   -0.12610E-01 15536   0.457E-01    0.176E-01
RMM:   2    -0.706781486029E+03   -0.78518E-02   -0.36088E-03 14780   0.112E-01    0.124E+00
RMM:   3    -0.706774108958E+03    0.73771E-02   -0.75441E-04 13230   0.552E-02    0.472E-01
RMM:   4    -0.706775717107E+03   -0.16081E-02   -0.26615E-04 10225   0.290E-02    0.643E-01
RMM:   5    -0.706773904888E+03    0.18122E-02   -0.31048E-04 10269   0.301E-02    0.337E-01
RMM:   6    -0.706773799045E+03    0.10584E-03   -0.24702E-04  9757   0.276E-02    0.200E-01
RMM:   7    -0.706773698503E+03    0.10054E-03   -0.82017E-05  8232   0.181E-02    0.998E-02
RMM:   8    -0.706773703653E+03   -0.51503E-05   -0.33459E-05  7935   0.113E-02
  32 F= -.70677370E+03 E0= -.70615954E+03  d E =-.648809E-03  mag=    -0.0006
       N       E                     dE             d eps       ncg     rms          rms(c)
DAV:   1    -0.706774035159E+03   -0.33666E-03   -0.17712E-02 15536   0.171E-01    0.131E-01
RMM:   2    -0.706791272046E+03   -0.17237E-01   -0.16972E-03 14373   0.612E-02    0.168E+00
RMM:   3    -0.706773478834E+03    0.17793E-01   -0.69552E-04 13229   0.601E-02    0.172E-01
RMM:   4    -0.706773937284E+03   -0.45845E-03   -0.15197E-04  8571   0.258E-02    0.150E-01
RMM:   5    -0.706774029791E+03   -0.92507E-04   -0.67958E-05  8098   0.155E-02    0.145E-01
RMM:   6    -0.706773938975E+03    0.90816E-04   -0.28038E-05  7644   0.974E-03    0.754E-02
RMM:   7    -0.706773935697E+03    0.32782E-05   -0.14672E-05  7331   0.704E-03    0.324E-02
RMM:   8    -0.706773944694E+03   -0.89970E-05   -0.65736E-06  6445   0.509E-03
  33 F= -.70677394E+03 E0= -.70615984E+03  d E =-.889849E-03  mag=    -0.0005
       N       E                     dE             d eps       ncg     rms          rms(c)
DAV:   1    -0.706774643661E+03   -0.70796E-03   -0.53460E-02 15616   0.301E-01    0.985E-02
RMM:   2    -0.706777221172E+03   -0.25775E-02   -0.12198E-03 14516   0.678E-02    0.676E-01
RMM:   3    -0.706774636245E+03    0.25849E-02   -0.29644E-04 10618   0.336E-02    0.190E-01
RMM:   4    -0.706774958285E+03   -0.32204E-03   -0.97940E-05  8247   0.204E-02    0.246E-01
RMM:   5    -0.706774743642E+03    0.21464E-03   -0.61239E-05  8106   0.152E-02    0.157E-01
RMM:   6    -0.706774713484E+03    0.30157E-04   -0.53308E-05  8038   0.135E-02    0.934E-02
RMM:   7    -0.706774679993E+03    0.33492E-04   -0.21214E-05  7781   0.966E-03    0.334E-02
RMM:   8    -0.706774699558E+03   -0.19566E-04   -0.11813E-05  7063   0.613E-03
  34 F= -.70677470E+03 E0= -.70616041E+03  d E =-.754865E-03  mag=    -0.0004
       N       E                     dE             d eps       ncg     rms          rms(c)
DAV:   1    -0.706774690160E+03   -0.10167E-04   -0.11155E-04  9840   0.189E-02    0.258E-02
RMM:   2    -0.706774749994E+03   -0.59835E-04   -0.40733E-05  7749   0.140E-02    0.100E-01
RMM:   3    -0.706774764440E+03   -0.14445E-04   -0.17480E-05  7482   0.850E-03    0.111E-01
RMM:   4    -0.706774686469E+03    0.77971E-04   -0.65115E-06  6689   0.577E-03    0.244E-02
RMM:   5    -0.706774691640E+03   -0.51713E-05   -0.11627E-06  3671   0.319E-03    0.137E-02
RMM:   6    -0.706774693550E+03   -0.19102E-05   -0.11539E-07  1902   0.260E-03    0.111E-02
RMM:   7    -0.706774692756E+03    0.79488E-06   -0.12341E-07  1717   0.255E-03    0.519E-03
RMM:   8    -0.706774693261E+03   -0.50507E-06   -0.18940E-08  1271   0.243E-03
  35 F= -.70677469E+03 E0= -.70616047E+03  d E =-.748567E-03  mag=    -0.0003
       N       E                     dE             d eps       ncg     rms          rms(c)
DAV:   1    -0.706775186563E+03   -0.49381E-03   -0.43246E-02 15472   0.265E-01    0.825E-02
RMM:   2    -0.706776126972E+03   -0.94041E-03   -0.87623E-04 14158   0.592E-02    0.424E-01
RMM:   3    -0.706775246565E+03    0.88041E-03   -0.22609E-04  9228   0.268E-02    0.166E-01
RMM:   4    -0.706775560751E+03   -0.31419E-03   -0.67382E-05  8108   0.176E-02    0.260E-01
RMM:   5    -0.706775307378E+03    0.25337E-03   -0.41330E-05  8004   0.124E-02    0.168E-01
RMM:   6    -0.706775259365E+03    0.48013E-04   -0.41607E-05  7906   0.118E-02    0.111E-01
RMM:   7    -0.706775228117E+03    0.31248E-04   -0.21986E-05  7632   0.940E-03    0.488E-02
RMM:   8    -0.706775231653E+03   -0.35356E-05   -0.97157E-06  6870   0.581E-03
  36 F= -.70677523E+03 E0= -.70616088E+03  d E =-.538392E-03  mag=    -0.0004
       N       E                     dE             d eps       ncg     rms          rms(c)
DAV:   1    -0.706775249422E+03   -0.21305E-04   -0.96642E-04 14592   0.412E-02    0.426E-02
RMM:   2    -0.706776605862E+03   -0.13564E-02   -0.11658E-04  8489   0.154E-02    0.459E-01
RMM:   3    -0.706775178019E+03    0.14278E-02   -0.99005E-05  7996   0.210E-02    0.845E-02
RMM:   4    -0.706775279184E+03   -0.10116E-03   -0.24776E-05  7824   0.107E-02    0.718E-02
RMM:   5    -0.706775250925E+03    0.28259E-04   -0.47421E-06  6547   0.536E-03    0.453E-02
RMM:   6    -0.706775250288E+03    0.63706E-06   -0.72309E-07  3117   0.287E-03    0.354E-02
RMM:   7    -0.706775244033E+03    0.62547E-05   -0.14884E-07  2074   0.260E-03    0.918E-03
RMM:   8    -0.706775246915E+03   -0.28823E-05   -0.36240E-08  1492   0.242E-03
  37 F= -.70677525E+03 E0= -.70616088E+03  d E =-.553655E-03  mag=    -0.0004
       N       E                     dE             d eps       ncg     rms          rms(c)
DAV:   1    -0.706775838410E+03   -0.59438E-03   -0.26972E-02 15440   0.196E-01    0.632E-02
RMM:   2    -0.706776028446E+03   -0.19004E-03   -0.50764E-04 12401   0.458E-02    0.194E-01
RMM:   3    -0.706775897323E+03    0.13112E-03   -0.12652E-04  8340   0.198E-02    0.103E-01
RMM:   4    -0.706776041219E+03   -0.14390E-03   -0.40381E-05  7921   0.128E-02    0.189E-01
RMM:   5    -0.706775913911E+03    0.12731E-03   -0.21333E-05  7901   0.945E-03    0.125E-01
RMM:   6    -0.706775890593E+03    0.23319E-04   -0.30033E-05  7893   0.944E-03    0.934E-02
RMM:   7    -0.706775873492E+03    0.17101E-04   -0.21177E-05  7587   0.899E-03    0.514E-02
RMM:   8    -0.706775865425E+03    0.80665E-05   -0.67337E-06  6761   0.541E-03
  38 F= -.70677587E+03 E0= -.70616141E+03  d E =-.618510E-03  mag=    -0.0004
       N       E                     dE             d eps       ncg     rms          rms(c)
DAV:   1    -0.706776027264E+03   -0.15377E-03   -0.40331E-02 15504   0.241E-01    0.832E-02
RMM:   2    -0.706776508359E+03   -0.48110E-03   -0.73430E-04 13757   0.549E-02    0.258E-01
RMM:   3    -0.706776365408E+03    0.14295E-03   -0.23459E-04  9393   0.253E-02    0.254E-01
RMM:   4    -0.706776209982E+03    0.15543E-03   -0.53685E-05  8075   0.173E-02    0.173E-01
RMM:   5    -0.706776118155E+03    0.91827E-04   -0.39014E-05  7880   0.106E-02    0.125E-01
RMM:   6    -0.706776106995E+03    0.11160E-04   -0.29146E-05  7836   0.109E-02    0.797E-02
RMM:   7    -0.706776107401E+03   -0.40574E-06   -0.30847E-05  7860   0.984E-03    0.752E-02
RMM:   8    -0.706776096025E+03    0.11376E-04   -0.11328E-05  7124   0.699E-03
  39 F= -.70677610E+03 E0= -.70616156E+03  d E =-.849110E-03  mag=    -0.0004
       N       E                     dE             d eps       ncg     rms          rms(c)
DAV:   1    -0.706776557560E+03   -0.45016E-03   -0.17932E-02 15424   0.161E-01    0.901E-02
RMM:   2    -0.706780208992E+03   -0.36514E-02   -0.54496E-04 12914   0.407E-02    0.737E-01
RMM:   3    -0.706776563816E+03    0.36452E-02   -0.24689E-04  9721   0.320E-02    0.202E-01
RMM:   4    -0.706776690441E+03   -0.12662E-03   -0.70836E-05  8093   0.193E-02    0.139E-01
RMM:   5    -0.706776570127E+03    0.12031E-03   -0.20971E-05  7848   0.102E-02    0.701E-02
RMM:   6    -0.706776592160E+03   -0.22033E-04   -0.16839E-05  7315   0.820E-03    0.650E-02
RMM:   7    -0.706776578231E+03    0.13929E-04   -0.11743E-05  7326   0.692E-03    0.466E-02
RMM:   8    -0.706776571233E+03    0.69980E-05   -0.48334E-06  6328   0.468E-03
  40 F= -.70677657E+03 E0= -.70616193E+03  d E =-.475208E-03  mag=    -0.0004
       N       E                     dE             d eps       ncg     rms          rms(c)
DAV:   1    -0.706776762065E+03   -0.18383E-03   -0.51329E-02 15424   0.272E-01    0.943E-02
RMM:   2    -0.706778001804E+03   -0.12397E-02   -0.97889E-04 14144   0.622E-02    0.439E-01
RMM:   3    -0.706776972958E+03    0.10288E-02   -0.28923E-04 10210   0.300E-02    0.223E-01
RMM:   4    -0.706776848407E+03    0.12455E-03   -0.74729E-05  8187   0.193E-02    0.102E-01
RMM:   5    -0.706776910743E+03   -0.62336E-04   -0.41455E-05  7981   0.117E-02    0.139E-01
RMM:   6    -0.706776902341E+03    0.84014E-05   -0.37896E-05  7955   0.118E-02    0.122E-01
RMM:   7    -0.706776843083E+03    0.59259E-04   -0.47177E-05  7946   0.122E-02    0.770E-02
RMM:   8    -0.706776832798E+03    0.10285E-04   -0.18283E-05  7369   0.879E-03
  41 F= -.70677683E+03 E0= -.70616212E+03  d E =-.736773E-03  mag=    -0.0006
       N       E                     dE             d eps       ncg     rms          rms(c)
DAV:   1    -0.706777129064E+03   -0.28598E-03   -0.92400E-03 15600   0.125E-01    0.671E-02
RMM:   2    -0.706779684185E+03   -0.25551E-02   -0.34071E-04 11246   0.315E-02    0.622E-01
RMM:   3    -0.706777083224E+03    0.26010E-02   -0.17184E-04  8648   0.275E-02    0.148E-01
RMM:   4    -0.706777219126E+03   -0.13590E-03   -0.49461E-05  8002   0.161E-02    0.111E-01
RMM:   5    -0.706777136755E+03    0.82371E-04   -0.12205E-05  7658   0.808E-03    0.566E-02
RMM:   6    -0.706777135180E+03    0.15755E-05   -0.52470E-06  6504   0.512E-03    0.233E-02
RMM:   7    -0.706777142696E+03   -0.75163E-05   -0.40487E-06  5889   0.406E-03    0.364E-02
RMM:   8    -0.706777137485E+03    0.52111E-05   -0.14556E-06  4296   0.355E-03
  42 F= -.70677714E+03 E0= -.70616233E+03  d E =-.304687E-03  mag=    -0.0007
       N       E                     dE             d eps       ncg     rms          rms(c)
DAV:   1    -0.706777216782E+03   -0.74086E-04   -0.71393E-03 15616   0.110E-01    0.330E-02
RMM:   2    -0.706777303593E+03   -0.86811E-04   -0.14490E-04  8194   0.243E-02    0.125E-01
RMM:   3    -0.706777250165E+03    0.53429E-04   -0.34817E-05  7925   0.128E-02    0.809E-02
RMM:   4    -0.706777223240E+03    0.26925E-04   -0.90190E-06  7297   0.648E-03    0.309E-02
RMM:   5    -0.706777234448E+03   -0.11208E-04   -0.40944E-06  6076   0.434E-03    0.467E-02
RMM:   6    -0.706777229986E+03    0.44612E-05   -0.36387E-06  5916   0.418E-03    0.363E-02
RMM:   7    -0.706777228670E+03    0.13161E-05   -0.60488E-06  7013   0.465E-03    0.240E-02
RMM:   8    -0.706777229297E+03   -0.62625E-06   -0.12399E-06  3915   0.329E-03
  43 F= -.70677723E+03 E0= -.70616240E+03  d E =-.396499E-03  mag=    -0.0007
       N       E                     dE             d eps       ncg     rms          rms(c)
DAV:   1    -0.706777467950E+03   -0.23928E-03   -0.57340E-03 15552   0.101E-01    0.310E-02
RMM:   2    -0.706777617348E+03   -0.14940E-03   -0.12478E-04  8127   0.222E-02    0.145E-01
RMM:   3    -0.706777526791E+03    0.90557E-04   -0.37691E-05  7966   0.129E-02    0.112E-01
RMM:   4    -0.706777491058E+03    0.35733E-04   -0.10291E-05  7334   0.726E-03    0.658E-02
RMM:   5    -0.706777486002E+03    0.50554E-05   -0.26257E-06  5640   0.395E-03    0.608E-02
RMM:   6    -0.706777480747E+03    0.52553E-05   -0.23394E-06  4765   0.366E-03    0.465E-02
RMM:   7    -0.706777477560E+03    0.31875E-05   -0.32131E-06  5792   0.386E-03    0.287E-02
RMM:   8    -0.706777476706E+03    0.85388E-06   -0.14874E-06  3783   0.324E-03
  44 F= -.70677748E+03 E0= -.70616258E+03  d E =-.247409E-03  mag=    -0.0007
       N       E                     dE             d eps       ncg     rms          rms(c)
DAV:   1    -0.706777538540E+03   -0.60980E-04   -0.43470E-03 15472   0.881E-02    0.294E-02
RMM:   2    -0.706777691454E+03   -0.15291E-03   -0.97437E-05  8012   0.196E-02    0.146E-01
RMM:   3    -0.706777589406E+03    0.10205E-03   -0.33032E-05  7946   0.119E-02    0.108E-01
RMM:   4    -0.706777561106E+03    0.28299E-04   -0.93744E-06  7269   0.694E-03    0.649E-02
RMM:   5    -0.706777554308E+03    0.67980E-05   -0.22627E-06  5247   0.380E-03    0.596E-02
RMM:   6    -0.706777547469E+03    0.68391E-05   -0.13238E-06  3853   0.331E-03    0.422E-02
RMM:   7    -0.706777543867E+03    0.36020E-05   -0.12487E-06  3858   0.328E-03    0.213E-02
RMM:   8    -0.706777544831E+03   -0.96386E-06   -0.15205E-06  3789   0.323E-03
  45 F= -.70677754E+03 E0= -.70616260E+03  d E =-.315534E-03  mag=    -0.0007
       N       E                     dE             d eps       ncg     rms          rms(c)
DAV:   1    -0.706777711210E+03   -0.16734E-03   -0.42498E-03 15360   0.884E-02    0.224E-02
RMM:   2    -0.706777761985E+03   -0.50775E-04   -0.80398E-05  7895   0.178E-02    0.894E-02
RMM:   3    -0.706777722225E+03    0.39760E-04   -0.18848E-05  7868   0.964E-03    0.529E-02
RMM:   4    -0.706777716644E+03    0.55810E-05   -0.49946E-06  6687   0.494E-03    0.166E-02
RMM:   5    -0.706777721399E+03   -0.47544E-05   -0.18841E-06  4644   0.354E-03    0.325E-02
RMM:   6    -0.706777718502E+03    0.28964E-05   -0.14320E-06  4212   0.340E-03    0.220E-02
RMM:   7    -0.706777717901E+03    0.60180E-06   -0.13069E-06  3639   0.324E-03    0.142E-02
RMM:   8    -0.706777717442E+03    0.45839E-06   -0.90341E-07  2855   0.302E-03
  46 F= -.70677772E+03 E0= -.70616278E+03  d E =-.172611E-03  mag=    -0.0008
       N       E                     dE             d eps       ncg     rms          rms(c)
DAV:   1    -0.706777733031E+03   -0.15131E-04   -0.78180E-04 14880   0.382E-02    0.112E-02
RMM:   2    -0.706777775781E+03   -0.42750E-04   -0.19446E-05  7834   0.842E-03    0.823E-02
RMM:   3    -0.706777728103E+03    0.47678E-04   -0.58470E-06  7215   0.550E-03    0.265E-02
RMM:   4    -0.706777734307E+03   -0.62035E-05   -0.59819E-07  3104   0.299E-03    0.112E-02
RMM:   5    -0.706777734719E+03   -0.41195E-06   -0.51307E-08  1513   0.265E-03    0.120E-02
RMM:   6    -0.706777734459E+03    0.25970E-06   -0.29299E-08  1171   0.256E-03    0.791E-03
RMM:   7    -0.706777735124E+03   -0.66459E-06   -0.26132E-08  1238   0.259E-03    0.922E-03
RMM:   8    -0.706777734490E+03    0.63335E-06   -0.27840E-08  1196   0.263E-03
  47 F= -.70677773E+03 E0= -.70616280E+03  d E =-.189659E-03  mag=    -0.0008
       N       E                     dE             d eps       ncg     rms          rms(c)
DAV:   1    -0.706777834055E+03   -0.98931E-04   -0.39975E-03 15616   0.845E-02    0.284E-02
RMM:   2    -0.706777928177E+03   -0.94123E-04   -0.10697E-04  8065   0.187E-02    0.146E-01
RMM:   3    -0.706777840176E+03    0.88001E-04   -0.23619E-05  7830   0.109E-02    0.605E-02
RMM:   4    -0.706777840607E+03   -0.43059E-06   -0.61127E-06  7007   0.545E-03    0.446E-02
RMM:   5    -0.706777845475E+03   -0.48680E-05   -0.37662E-06  5940   0.408E-03    0.504E-02
RMM:   6    -0.706777836144E+03    0.93309E-05   -0.24477E-06  5300   0.373E-03    0.314E-02
RMM:   7    -0.706777835421E+03    0.72314E-06   -0.29537E-06  5330   0.367E-03    0.876E-03
RMM:   8    -0.706777838334E+03   -0.29130E-05   -0.60330E-07  2584   0.293E-03
  48 F= -.70677784E+03 E0= -.70616292E+03  d E =-.103844E-03  mag=    -0.0007
