       N       E                     dE             d eps       ncg     rms          rms(c)
DAV:   1     0.893497132957E+04    0.89350E+04   -0.33662E+05 24224   0.113E+03
DAV:   2     0.799267574773E+03   -0.81357E+04   -0.73343E+04 30192   0.307E+02
DAV:   3    -0.895840053355E+03   -0.16951E+04   -0.16755E+04 28656   0.151E+02
DAV:   4    -0.981368524280E+03   -0.85528E+02   -0.84961E+02 32592   0.416E+01
DAV:   5    -0.984762800977E+03   -0.33943E+01   -0.33853E+01 38464   0.663E+00    0.176E+02
RMM:   6    -0.919184252395E+03    0.65579E+02   -0.27423E+03 26306   0.929E+01    0.350E+02
RMM:   7    -0.704012052791E+03    0.21517E+03   -0.33916E+02 23689   0.313E+01    0.202E+02
RMM:   8    -0.899563107279E+03   -0.19555E+03   -0.30696E+02 23750   0.281E+01    0.213E+02
RMM:   9    -0.655090442313E+03    0.24447E+03   -0.16224E+02 23703   0.208E+01    0.145E+02
RMM:  10    -0.551285004235E+03    0.10381E+03   -0.75375E+01 23716   0.151E+01    0.828E+01
RMM:  11    -0.534121629591E+03    0.17163E+02   -0.35800E+01 23809   0.962E+00    0.921E+01
RMM:  12    -0.522298468463E+03    0.11823E+02   -0.17764E+01 23845   0.740E+00    0.734E+01
RMM:  13    -0.520424262903E+03    0.18742E+01   -0.17466E+01 23972   0.661E+00    0.662E+01
RMM:  14    -0.510658700583E+03    0.97656E+01   -0.13928E+01 24190   0.632E+00    0.514E+01
RMM:  15    -0.497897734296E+03    0.12761E+02   -0.90661E+00 23773   0.483E+00    0.466E+01
RMM:  16    -0.486367001877E+03    0.11531E+02   -0.47001E+00 23943   0.334E+00    0.376E+01
RMM:  17    -0.477709383792E+03    0.86576E+01   -0.27948E+00 24961   0.241E+00    0.359E+01
RMM:  18    -0.468798671024E+03    0.89107E+01   -0.23402E+00 25089   0.234E+00    0.338E+01
RMM:  19    -0.459251216701E+03    0.95475E+01   -0.25682E+00 25427   0.237E+00    0.314E+01
RMM:  20    -0.452380582711E+03    0.68706E+01   -0.16789E+00 24982   0.192E+00    0.303E+01
RMM:  21    -0.446625053012E+03    0.57555E+01   -0.16532E+00 25524   0.200E+00    0.292E+01
RMM:  22    -0.444577652495E+03    0.20474E+01   -0.11891E+00 25121   0.169E+00    0.278E+01
RMM:  23    -0.450634977452E+03   -0.60573E+01   -0.12977E+00 25419   0.179E+00    0.272E+01
RMM:  24    -0.457632088230E+03   -0.69971E+01   -0.15915E+00 27009   0.191E+00    0.269E+01
RMM:  25    -0.469871977416E+03   -0.12240E+02   -0.20000E+00 27111   0.212E+00    0.266E+01
RMM:  26    -0.483713966514E+03   -0.13842E+02   -0.25254E+00 28126   0.225E+00    0.259E+01
RMM:  27    -0.502257798071E+03   -0.18544E+02   -0.42101E+00 29460   0.279E+00    0.255E+01
RMM:  28    -0.523108309709E+03   -0.20851E+02   -0.62898E+00 31544   0.324E+00    0.250E+01
RMM:  29    -0.541932018715E+03   -0.18824E+02   -0.64454E+00 31615   0.315E+00    0.240E+01
RMM:  30    -0.557605374925E+03   -0.15673E+02   -0.52876E+00 31100   0.279E+00    0.234E+01
RMM:  31    -0.575238138580E+03   -0.17633E+02   -0.70945E+00 32570   0.334E+00    0.228E+01
RMM:  32    -0.592582640753E+03   -0.17345E+02   -0.94885E+00 34334   0.388E+00    0.215E+01
RMM:  33    -0.604088551788E+03   -0.11506E+02   -0.67800E+00 32678   0.312E+00    0.199E+01
RMM:  34    -0.610507668301E+03   -0.64191E+01   -0.36723E+00 31367   0.237E+00    0.185E+01
RMM:  35    -0.614956110520E+03   -0.44484E+01   -0.15349E+00 29724   0.164E+00    0.171E+01
RMM:  36    -0.618098992063E+03   -0.31429E+01   -0.94975E-01 28382   0.130E+00    0.152E+01
RMM:  37    -0.621542586565E+03   -0.34436E+01   -0.66772E-01 27700   0.113E+00    0.138E+01
RMM:  38    -0.626490952024E+03   -0.49484E+01   -0.77109E-01 28492   0.116E+00    0.127E+01
RMM:  39    -0.631427589518E+03   -0.49366E+01   -0.92595E-01 29665   0.125E+00    0.129E+01
RMM:  40    -0.635604542946E+03   -0.41770E+01   -0.12178E+00 31043   0.141E+00    0.135E+01
RMM:  41    -0.638154825370E+03   -0.25503E+01   -0.30281E+00 33887   0.190E+00    0.163E+01
RMM:  42    -0.639793195488E+03   -0.16384E+01   -0.98263E-01 30686   0.114E+00    0.174E+01
RMM:  43    -0.641068657169E+03   -0.12755E+01   -0.44865E-01 28405   0.902E-01    0.179E+01
RMM:  44    -0.641896546005E+03   -0.82789E+00   -0.51975E-01 29646   0.937E-01    0.171E+01
RMM:  45    -0.643313503083E+03   -0.14170E+01   -0.58666E-01 29988   0.968E-01    0.161E+01
RMM:  46    -0.644775925575E+03   -0.14624E+01   -0.31070E-01 28470   0.769E-01    0.145E+01
RMM:  47    -0.645480156190E+03   -0.70423E+00   -0.24729E-01 28675   0.693E-01    0.126E+01
RMM:  48    -0.646617672410E+03   -0.11375E+01   -0.25587E-01 29237   0.676E-01    0.109E+01
RMM:  49    -0.647955198469E+03   -0.13375E+01   -0.29996E-01 29358   0.686E-01    0.925E+00
RMM:  50    -0.649451250278E+03   -0.14961E+01   -0.24625E-01 29143   0.619E-01    0.721E+00
RMM:  51    -0.650900035463E+03   -0.14488E+01   -0.33304E-01 31692   0.769E-01    0.529E+00
RMM:  52    -0.653047084732E+03   -0.21470E+01   -0.30918E-01 29566   0.680E-01    0.452E+00
RMM:  53    -0.654676796613E+03   -0.16297E+01   -0.30467E-01 29257   0.555E-01    0.426E+00
RMM:  54    -0.655644070830E+03   -0.96727E+00   -0.14370E-01 27609   0.445E-01    0.394E+00
RMM:  55    -0.655836786158E+03   -0.19272E+00   -0.17801E-01 28561   0.414E-01    0.348E+00
RMM:  56    -0.655866836637E+03   -0.30050E-01   -0.93319E-02 28392   0.452E-01    0.319E+00
RMM:  57    -0.655713035848E+03    0.15380E+00   -0.31823E-02 24971   0.245E-01    0.261E+00
RMM:  58    -0.655486050282E+03    0.22699E+00   -0.20839E-02 24701   0.209E-01    0.230E+00
RMM:  59    -0.655403164877E+03    0.82885E-01   -0.30233E-02 26454   0.246E-01    0.213E+00
RMM:  60    -0.655593224269E+03   -0.19006E+00   -0.23595E-02 26198   0.218E-01    0.191E+00
RMM:  61    -0.655893367797E+03   -0.30014E+00   -0.20999E-02 25968   0.197E-01    0.161E+00
RMM:  62    -0.655997288745E+03   -0.10392E+00   -0.13703E-02 25147   0.164E-01    0.142E+00
RMM:  63    -0.656138900389E+03   -0.14161E+00   -0.82008E-03 24598   0.113E-01    0.126E+00
RMM:  64    -0.656303385471E+03   -0.16449E+00   -0.62272E-03 24546   0.983E-02    0.119E+00
RMM:  65    -0.656462440380E+03   -0.15905E+00   -0.54109E-03 25059   0.841E-02    0.114E+00
RMM:  66    -0.656540371751E+03   -0.77931E-01   -0.32800E-03 23878   0.670E-02    0.111E+00
RMM:  67    -0.656603186345E+03   -0.62815E-01   -0.52041E-03 26286   0.766E-02    0.109E+00
RMM:  68    -0.656626768674E+03   -0.23582E-01   -0.67546E-03 27519   0.862E-02    0.103E+00
RMM:  69    -0.656533663322E+03    0.93105E-01   -0.41897E-03 25590   0.644E-02    0.992E-01
RMM:  70    -0.656427235263E+03    0.10643E+00   -0.34858E-03 25146   0.609E-02    0.968E-01
RMM:  71    -0.656363652400E+03    0.63583E-01   -0.43834E-03 25997   0.650E-02    0.930E-01
RMM:  72    -0.656402134661E+03   -0.38482E-01   -0.27772E-03 25455   0.584E-02    0.904E-01
RMM:  73    -0.656501958777E+03   -0.99824E-01   -0.26136E-03 25825   0.623E-02    0.871E-01
RMM:  74    -0.656541324501E+03   -0.39366E-01   -0.23195E-03 25785   0.626E-02    0.786E-01
RMM:  75    -0.656492931018E+03    0.48393E-01   -0.31295E-03 27619   0.736E-02    0.722E-01
RMM:  76    -0.656508198299E+03   -0.15267E-01   -0.32038E-03 26410   0.706E-02    0.612E-01
RMM:  77    -0.656474932823E+03    0.33265E-01   -0.45439E-03 26764   0.676E-02    0.501E-01
RMM:  78    -0.656578847467E+03   -0.10391E+00   -0.51976E-03 27385   0.752E-02    0.455E-01
RMM:  79    -0.656747713943E+03   -0.16887E+00   -0.44746E-03 26261   0.643E-02    0.334E-01
RMM:  80    -0.656897234326E+03   -0.14952E+00   -0.24357E-03 23984   0.513E-02
   1 F= -.65689723E+03 E0= -.65647513E+03  d E =-.656897E+03  mag=    79.3940
