       N       E                     dE             d eps       ncg     rms          rms(c)
DAV:   1     0.759800384334E+04    0.75980E+04   -0.29776E+05 15104   0.126E+03
DAV:   2     0.597710327462E+03   -0.70003E+04   -0.63146E+04 16016   0.373E+02
DAV:   3    -0.762968057545E+03   -0.13607E+04   -0.13093E+04 18544   0.165E+02
DAV:   4    -0.836979015326E+03   -0.74011E+02   -0.72208E+02 20336   0.432E+01
DAV:   5    -0.838604689952E+03   -0.16257E+01   -0.16052E+01 19344   0.599E+00    0.188E+02
RMM:   6    -0.679632930636E+03    0.15897E+03   -0.60561E+02 14907   0.390E+01    0.154E+02
RMM:   7    -0.156892275744E+04   -0.88929E+03   -0.42998E+02 16700   0.262E+01    0.391E+02
RMM:   8    -0.127804988533E+04    0.29087E+03   -0.92386E+01 18610   0.105E+01    0.336E+02
RMM:   9    -0.117612865827E+04    0.10192E+03   -0.63623E+01 15401   0.114E+01    0.333E+02
RMM:  10    -0.906325269776E+03    0.26980E+03   -0.33877E+02 20420   0.217E+01    0.292E+02
RMM:  11    -0.101550044959E+04   -0.10918E+03   -0.69150E+01 17202   0.928E+00    0.262E+02
RMM:  12    -0.981588670271E+03    0.33912E+02   -0.10453E+02 18239   0.124E+01    0.237E+02
RMM:  13    -0.135915139925E+04   -0.37756E+03   -0.23123E+02 20887   0.193E+01    0.296E+02
RMM:  14    -0.125479332606E+04    0.10436E+03   -0.15250E+01 16785   0.528E+00    0.253E+02
RMM:  15    -0.101056440438E+04    0.24423E+03   -0.69237E+01 19260   0.111E+01    0.180E+02
RMM:  16    -0.728667806484E+03    0.28190E+03   -0.31603E+01 17501   0.666E+00    0.122E+02
RMM:  17    -0.691059066599E+03    0.37609E+02   -0.14133E+01 15940   0.525E+00    0.109E+02
RMM:  18    -0.653788807679E+03    0.37270E+02   -0.69944E+00 16215   0.343E+00    0.968E+01
RMM:  19    -0.651144710793E+03    0.26441E+01   -0.24678E+00 16104   0.232E+00    0.921E+01
RMM:  20    -0.651838376580E+03   -0.69367E+00   -0.71678E-01 17250   0.111E+00    0.906E+01
RMM:  21    -0.653843074135E+03   -0.20047E+01   -0.20651E+00 16672   0.212E+00    0.837E+01
RMM:  22    -0.656959129518E+03   -0.31161E+01   -0.42751E+00 19310   0.288E+00    0.726E+01
RMM:  23    -0.658057292782E+03   -0.10982E+01   -0.28749E+00 18836   0.259E+00    0.599E+01
RMM:  24    -0.660043562634E+03   -0.19863E+01   -0.12417E+00 16725   0.181E+00    0.529E+01
RMM:  25    -0.661779724647E+03   -0.17362E+01   -0.40970E-01 15304   0.102E+00    0.495E+01
RMM:  26    -0.660684900085E+03    0.10948E+01   -0.14451E-01 16490   0.579E-01    0.483E+01
RMM:  27    -0.660462950008E+03    0.22195E+00   -0.87470E-02 15278   0.464E-01    0.465E+01
RMM:  28    -0.661473426488E+03   -0.10105E+01   -0.57087E-01 19824   0.113E+00    0.427E+01
RMM:  29    -0.663001505231E+03   -0.15281E+01   -0.21492E+00 24018   0.223E+00    0.322E+01
RMM:  30    -0.667491898508E+03   -0.44904E+01   -0.21355E+00 23806   0.215E+00    0.302E+01
RMM:  31    -0.671379435877E+03   -0.38875E+01   -0.22727E+00 22297   0.198E+00    0.280E+01
RMM:  32    -0.677180293835E+03   -0.58009E+01   -0.23920E+00 22975   0.215E+00    0.261E+01
RMM:  33    -0.679090337219E+03   -0.19100E+01   -0.22365E+00 22610   0.196E+00    0.198E+01
RMM:  34    -0.680097317865E+03   -0.10070E+01   -0.15090E+00 21579   0.169E+00    0.169E+01
RMM:  35    -0.680343407555E+03   -0.24609E+00   -0.27795E-01 17923   0.868E-01    0.161E+01
RMM:  36    -0.682346100654E+03   -0.20027E+01   -0.41742E-01 19373   0.952E-01    0.179E+01
RMM:  37    -0.684645287403E+03   -0.22992E+01   -0.30318E-01 17925   0.736E-01    0.169E+01
RMM:  38    -0.687820715593E+03   -0.31754E+01   -0.82331E-01 20823   0.117E+00    0.164E+01
RMM:  39    -0.691376504211E+03   -0.35558E+01   -0.73341E-01 20874   0.113E+00    0.157E+01
RMM:  40    -0.694048257884E+03   -0.26718E+01   -0.30407E-01 18980   0.797E-01    0.126E+01
RMM:  41    -0.697324098305E+03   -0.32758E+01   -0.49947E-01 20142   0.107E+00    0.136E+01
RMM:  42    -0.698930380245E+03   -0.16063E+01   -0.26385E-01 18516   0.780E-01    0.192E+01
RMM:  43    -0.696789302641E+03    0.21411E+01   -0.91656E-02 15617   0.452E-01    0.185E+01
RMM:  44    -0.698115553976E+03   -0.13263E+01   -0.30782E-01 19232   0.733E-01    0.169E+01
RMM:  45    -0.698742177731E+03   -0.62662E+00   -0.12427E-01 17280   0.509E-01    0.163E+01
RMM:  46    -0.699169155471E+03   -0.42698E+00   -0.11215E-01 17088   0.470E-01    0.154E+01
RMM:  47    -0.699380198346E+03   -0.21104E+00   -0.18971E-01 19262   0.602E-01    0.129E+01
RMM:  48    -0.699942518026E+03   -0.56232E+00   -0.77853E-02 16740   0.435E-01    0.111E+01
RMM:  49    -0.700758746419E+03   -0.81623E+00   -0.88295E-02 17308   0.417E-01    0.943E+00
RMM:  50    -0.701911893121E+03   -0.11531E+01   -0.65947E-02 16550   0.390E-01    0.862E+00
RMM:  51    -0.701853600145E+03    0.58293E-01   -0.49044E-01 22988   0.944E-01    0.799E+00
RMM:  52    -0.701778313871E+03    0.75286E-01   -0.49875E-02 15821   0.360E-01    0.718E+00
RMM:  53    -0.702719516200E+03   -0.94120E+00   -0.64593E-02 16931   0.362E-01    0.737E+00
RMM:  54    -0.702925357336E+03   -0.20584E+00   -0.46900E-02 16297   0.293E-01    0.636E+00
RMM:  55    -0.703473820828E+03   -0.54846E+00   -0.88644E-02 18247   0.348E-01    0.525E+00
RMM:  56    -0.703084288169E+03    0.38953E+00   -0.20385E-01 21175   0.584E-01    0.631E+00
RMM:  57    -0.703464527150E+03   -0.38024E+00   -0.50771E-02 17032   0.302E-01    0.518E+00
RMM:  58    -0.703410587229E+03    0.53940E-01   -0.49552E-02 17433   0.291E-01    0.514E+00
RMM:  59    -0.703481616842E+03   -0.71030E-01   -0.26645E-02 16174   0.230E-01    0.500E+00
RMM:  60    -0.703688605822E+03   -0.20699E+00   -0.30249E-02 16799   0.227E-01    0.460E+00
RMM:  61    -0.703513118207E+03    0.17549E+00   -0.14656E-01 21398   0.518E-01    0.263E+00
RMM:  62    -0.704047383887E+03   -0.53427E+00   -0.91405E-02 19209   0.376E-01    0.173E+00
RMM:  63    -0.704630305434E+03   -0.58292E+00   -0.44256E-02 17278   0.244E-01    0.132E+00
RMM:  64    -0.704718009505E+03   -0.87704E-01   -0.13573E-02 15882   0.158E-01    0.117E+00
RMM:  65    -0.704745126116E+03   -0.27117E-01   -0.54994E-03 15244   0.112E-01    0.105E+00
RMM:  66    -0.704868321567E+03   -0.12320E+00   -0.12383E-02 17079   0.166E-01    0.101E+00
RMM:  67    -0.704901020369E+03   -0.32699E-01   -0.37745E-03 15184   0.997E-02    0.738E-01
RMM:  68    -0.704997035764E+03   -0.96015E-01   -0.30339E-03 15358   0.817E-02    0.651E-01
RMM:  69    -0.705079661717E+03   -0.82626E-01   -0.20647E-03 15000   0.673E-02    0.425E-01
RMM:  70    -0.705187783891E+03   -0.10812E+00   -0.17205E-03 15000   0.582E-02    0.368E-01
RMM:  71    -0.705190829502E+03   -0.30456E-02   -0.87623E-04 13900   0.482E-02    0.467E-01
RMM:  72    -0.705223048065E+03   -0.32219E-01   -0.27314E-04 10730   0.323E-02    0.310E-01
RMM:  73    -0.705405216832E+03   -0.18217E+00   -0.13819E-03 13845   0.442E-02    0.206E-01
RMM:  74    -0.705541075421E+03   -0.13586E+00   -0.99928E-04 13213   0.370E-02    0.171E-01
RMM:  75    -0.705652948640E+03   -0.11187E+00   -0.67654E-04 12193   0.311E-02    0.197E-01
RMM:  76    -0.705687949191E+03   -0.35001E-01   -0.17541E-04  9398   0.212E-02    0.175E-01
RMM:  77    -0.705705383346E+03   -0.17434E-01   -0.10967E-04  8939   0.184E-02    0.138E-01
RMM:  78    -0.705711990640E+03   -0.66073E-02   -0.70868E-05  8835   0.148E-02    0.897E-02
RMM:  79    -0.705714190055E+03   -0.21994E-02   -0.52313E-05  8796   0.119E-02    0.516E-02
RMM:  80    -0.705714210537E+03   -0.20481E-04   -0.33125E-05  8600   0.941E-03
   1 F= -.70571421E+03 E0= -.70510957E+03  d E =-.705714E+03  mag=     0.1976
       N       E                     dE             d eps       ncg     rms          rms(c)
DAV:   1    -0.662523588376E+03    0.43191E+02   -0.37882E+03 15360   0.832E+01    0.187E+01
RMM:   2    -0.705281218455E+03   -0.42758E+02   -0.31207E+02 15406   0.192E+01    0.512E+01
RMM:   3    -0.713613852682E+03   -0.83326E+01   -0.60163E+01 15907   0.799E+00    0.450E+01
RMM:   4    -0.697730054582E+03    0.15884E+02   -0.47924E+00 15045   0.379E+00    0.276E+01
RMM:   5    -0.694699807280E+03    0.30302E+01   -0.18718E+00 15132   0.227E+00    0.231E+01
RMM:   6    -0.694301414882E+03    0.39839E+00   -0.12411E+00 15436   0.151E+00    0.216E+01
RMM:   7    -0.693296181059E+03    0.10052E+01   -0.34198E-01 14974   0.105E+00    0.165E+01
RMM:   8    -0.693896906028E+03   -0.60072E+00   -0.13036E+00 16794   0.132E+00    0.183E+01
RMM:   9    -0.693020452287E+03    0.87645E+00   -0.37599E-01 15558   0.931E-01    0.126E+01
RMM:  10    -0.692463563078E+03    0.55689E+00   -0.63429E-01 16681   0.934E-01    0.929E+00
RMM:  11    -0.692114212027E+03    0.34935E+00   -0.63847E-02 14977   0.455E-01    0.557E+00
RMM:  12    -0.692002781320E+03    0.11143E+00   -0.44068E-02 15045   0.330E-01    0.442E+00
RMM:  13    -0.691896261782E+03    0.10652E+00   -0.57987E-02 15849   0.309E-01    0.279E+00
RMM:  14    -0.691845173871E+03    0.51088E-01   -0.31758E-02 15723   0.252E-01    0.136E+00
RMM:  15    -0.691834233263E+03    0.10941E-01   -0.21803E-02 15854   0.202E-01    0.104E+00
RMM:  16    -0.691830379239E+03    0.38540E-02   -0.10801E-02 15801   0.145E-01    0.879E-01
RMM:  17    -0.691828224116E+03    0.21551E-02   -0.97347E-03 15858   0.132E-01    0.724E-01
RMM:  18    -0.691825530251E+03    0.26939E-02   -0.28213E-03 14914   0.824E-02    0.503E-01
RMM:  19    -0.691823410082E+03    0.21202E-02   -0.83241E-04 13302   0.475E-02    0.329E-01
RMM:  20    -0.691822527371E+03    0.88271E-03   -0.33000E-04 10582   0.264E-02    0.289E-01
RMM:  21    -0.691823316196E+03   -0.78882E-03   -0.74568E-05  8990   0.163E-02    0.305E-01
RMM:  22    -0.691824869066E+03   -0.15529E-02   -0.23107E-04  9591   0.199E-02    0.307E-01
RMM:  23    -0.691826270871E+03   -0.14018E-02   -0.82756E-04 11410   0.316E-02    0.308E-01
RMM:  24    -0.691823947111E+03    0.23238E-02   -0.15976E-03 13029   0.427E-02    0.273E-01
RMM:  25    -0.691822440183E+03    0.15069E-02   -0.36540E-04 10316   0.273E-02    0.253E-01
RMM:  26    -0.691822086483E+03    0.35370E-03   -0.18244E-04  9370   0.234E-02    0.204E-01
RMM:  27    -0.691822140691E+03   -0.54208E-04   -0.14598E-04  9134   0.201E-02
   2 F= -.69182214E+03 E0= -.69122183E+03  d E =0.138921E+02  mag=     0.1076
       N       E                     dE             d eps       ncg     rms          rms(c)
DAV:   1    -0.695857550676E+03   -0.40355E+01   -0.26266E+03 14976   0.598E+01    0.204E+01
RMM:   2    -0.744346319328E+03   -0.48489E+02   -0.21592E+02 14891   0.148E+01    0.665E+01
RMM:   3    -0.722069579034E+03    0.22277E+02   -0.36189E+01 15191   0.735E+00    0.321E+01
RMM:   4    -0.730329434590E+03   -0.82599E+01   -0.50733E+00 14907   0.375E+00    0.479E+01
RMM:   5    -0.709875279447E+03    0.20454E+02   -0.33230E+00 15110   0.296E+00    0.148E+01
RMM:   6    -0.708555408312E+03    0.13199E+01   -0.28873E+00 15801   0.227E+00    0.136E+01
RMM:   7    -0.707719298229E+03    0.83611E+00   -0.13082E+00 16116   0.146E+00    0.923E+00
RMM:   8    -0.707699634994E+03    0.19663E-01   -0.11629E+00 16413   0.126E+00    0.672E+00
RMM:   9    -0.707494986082E+03    0.20465E+00   -0.19730E-01 14969   0.782E-01    0.655E+00
RMM:  10    -0.707502316230E+03   -0.73301E-02   -0.15184E-01 15537   0.570E-01    0.548E+00
RMM:  11    -0.707334727625E+03    0.16759E+00   -0.60637E-02 15069   0.414E-01    0.250E+00
RMM:  12    -0.707352858348E+03   -0.18131E-01   -0.22500E-02 15478   0.232E-01    0.288E+00
RMM:  13    -0.707336455840E+03    0.16403E-01   -0.63296E-03 16294   0.119E-01    0.253E+00
RMM:  14    -0.707326807867E+03    0.96480E-02   -0.46276E-03 14904   0.101E-01    0.213E+00
RMM:  15    -0.707307377942E+03    0.19430E-01   -0.11787E-02 16605   0.125E-01    0.146E+00
RMM:  16    -0.707305097171E+03    0.22808E-02   -0.19800E-03 14565   0.649E-02    0.130E+00
RMM:  17    -0.707305363294E+03   -0.26612E-03   -0.53769E-04 12188   0.360E-02    0.123E+00
RMM:  18    -0.707305395897E+03   -0.32602E-04   -0.64407E-04 13284   0.419E-02
   3 F= -.70730540E+03 E0= -.70670335E+03  d E =-.159119E+01  mag=     0.0741
       N       E                     dE             d eps       ncg     rms          rms(c)
DAV:   1    -0.687615948056E+03    0.19689E+02   -0.12008E+03 14976   0.483E+01    0.120E+01
RMM:   2    -0.712401924213E+03   -0.24786E+02   -0.45550E+01 14848   0.906E+00    0.540E+01
RMM:   3    -0.693229151991E+03    0.19173E+02   -0.74325E+00 15033   0.414E+00    0.209E+01
RMM:   4    -0.690698057579E+03    0.25311E+01   -0.14754E+00 14968   0.226E+00    0.983E+00
RMM:   5    -0.690343892050E+03    0.35417E+00   -0.51363E-01 14953   0.130E+00    0.732E+00
RMM:   6    -0.690349854824E+03   -0.59628E-02   -0.28450E-01 14915   0.930E-01    0.754E+00
RMM:   7    -0.690124680711E+03    0.22517E+00   -0.15181E-01 14878   0.734E-01    0.524E+00
RMM:   8    -0.690111350724E+03    0.13330E-01   -0.33468E-01 16713   0.832E-01    0.416E+00
RMM:   9    -0.690004211121E+03    0.10714E+00   -0.11157E-01 15211   0.576E-01    0.164E+00
RMM:  10    -0.689998958989E+03    0.52521E-02   -0.21119E-02 15063   0.272E-01    0.132E+00
RMM:  11    -0.689993678986E+03    0.52800E-02   -0.73210E-03 15499   0.145E-01    0.942E-01
RMM:  12    -0.689991648155E+03    0.20308E-02   -0.34373E-03 14796   0.956E-02    0.816E-01
RMM:  13    -0.689988968994E+03    0.26792E-02   -0.28073E-03 14600   0.816E-02    0.338E-01
RMM:  14    -0.689988983752E+03   -0.14758E-04   -0.10359E-03 14036   0.487E-02    0.246E-01
RMM:  15    -0.689989056195E+03   -0.72443E-04   -0.34749E-04 11425   0.326E-02
   4 F= -.68998906E+03 E0= -.68937569E+03  d E =0.173163E+02  mag=     0.0548
       N       E                     dE             d eps       ncg     rms          rms(c)
DAV:   1    -0.707328020952E+03   -0.17339E+02   -0.83590E+02 14960   0.389E+01    0.177E+01
RMM:   2    -0.748873204537E+03   -0.41545E+02   -0.64431E+01 14999   0.875E+00    0.707E+01
RMM:   3    -0.718174601154E+03    0.30699E+02   -0.10840E+01 15189   0.485E+00    0.287E+01
RMM:   4    -0.716417820402E+03    0.17568E+01   -0.31843E+00 14865   0.297E+00    0.321E+01
RMM:   5    -0.708920458434E+03    0.74974E+01   -0.25150E+00 15392   0.235E+00    0.114E+01
RMM:   6    -0.708715137741E+03    0.20532E+00   -0.96713E-01 15301   0.146E+00    0.126E+01
RMM:   7    -0.707856778691E+03    0.85836E+00   -0.74392E-01 16162   0.106E+00    0.738E+00
RMM:   8    -0.707702357898E+03    0.15442E+00   -0.22373E-01 15815   0.690E-01    0.636E+00
RMM:   9    -0.707591745762E+03    0.11061E+00   -0.33857E-01 16646   0.699E-01    0.518E+00
RMM:  10    -0.707467307520E+03    0.12444E+00   -0.97976E-02 14949   0.571E-01    0.233E+00
RMM:  11    -0.707454030454E+03    0.13277E-01   -0.58956E-02 15278   0.395E-01    0.195E+00
RMM:  12    -0.707440107224E+03    0.13923E-01   -0.14006E-02 15035   0.211E-01    0.107E+00
RMM:  13    -0.707433816699E+03    0.62905E-02   -0.46447E-03 15070   0.120E-01    0.638E-01
RMM:  14    -0.707432053378E+03    0.17633E-02   -0.17644E-03 14710   0.652E-02    0.365E-01
RMM:  15    -0.707432205229E+03   -0.15185E-03   -0.87215E-04 13738   0.439E-02    0.360E-01
RMM:  16    -0.707431838610E+03    0.36662E-03   -0.87848E-04 13689   0.417E-02    0.206E-01
RMM:  17    -0.707431834956E+03    0.36544E-05   -0.35140E-04 11008   0.290E-02
   5 F= -.70743183E+03 E0= -.70682794E+03  d E =-.126439E+00  mag=     0.0386
       N       E                     dE             d eps       ncg     rms          rms(c)
DAV:   1    -0.707542771747E+03   -0.11093E+00   -0.62356E+00 15584   0.354E+00    0.112E+00
RMM:   2    -0.707940472606E+03   -0.39770E+00   -0.21772E-01 14858   0.702E-01    0.816E+00
RMM:   3    -0.707574919518E+03    0.36555E+00   -0.38182E-02 14857   0.398E-01    0.200E+00
RMM:   4    -0.707567798597E+03    0.71209E-02   -0.13977E-02 14865   0.227E-01    0.174E+00
RMM:   5    -0.707552150846E+03    0.15648E-01   -0.57524E-03 14994   0.131E-01    0.852E-01
RMM:   6    -0.707550309528E+03    0.18413E-02   -0.30592E-03 14852   0.820E-02    0.623E-01
RMM:   7    -0.707549159974E+03    0.11496E-02   -0.16024E-03 13869   0.609E-02    0.361E-01
RMM:   8    -0.707549218789E+03   -0.58815E-04   -0.11945E-03 14026   0.494E-02    0.312E-01
RMM:   9    -0.707548845850E+03    0.37294E-03   -0.32516E-04 11364   0.369E-02    0.155E-01
RMM:  10    -0.707548876556E+03   -0.30706E-04   -0.10248E-04  8898   0.189E-02
   6 F= -.70754888E+03 E0= -.70694505E+03  d E =-.243481E+00  mag=     0.0324
       N       E                     dE             d eps       ncg     rms          rms(c)
DAV:   1    -0.707552937514E+03   -0.40917E-02   -0.11832E-01 15568   0.485E-01    0.245E-01
RMM:   2    -0.707599411001E+03   -0.46473E-01   -0.64892E-03 14860   0.115E-01    0.272E+00
RMM:   3    -0.707552824853E+03    0.46586E-01   -0.23929E-03 14398   0.105E-01    0.379E-01
RMM:   4    -0.707552978977E+03   -0.15412E-03   -0.62199E-04 12612   0.512E-02    0.134E-01
RMM:   5    -0.707552977105E+03    0.18724E-05   -0.19448E-04  9316   0.258E-02    0.838E-02
RMM:   6    -0.707552988313E+03   -0.11208E-04   -0.68595E-05  8171   0.160E-02    0.618E-02
RMM:   7    -0.707553053788E+03   -0.65476E-04   -0.38249E-05  7710   0.108E-02    0.461E-02
RMM:   8    -0.707553107392E+03   -0.53603E-04   -0.19253E-05  7487   0.788E-03
   7 F= -.70755311E+03 E0= -.70694941E+03  d E =-.247711E+00  mag=     0.0282
       N       E                     dE             d eps       ncg     rms          rms(c)
DAV:   1    -0.705965819557E+03    0.15872E+01   -0.32707E+02 14848   0.242E+01    0.547E+00
RMM:   2    -0.709882440918E+03   -0.39166E+01   -0.65293E+00 14848   0.495E+00    0.223E+01
RMM:   3    -0.706943276004E+03    0.29392E+01   -0.19059E+00 16243   0.212E+00    0.786E+00
RMM:   4    -0.706704300799E+03    0.23898E+00   -0.38176E-01 15273   0.113E+00    0.490E+00
RMM:   5    -0.706682791576E+03    0.21509E-01   -0.16749E-01 14968   0.742E-01    0.512E+00
RMM:   6    -0.706614892283E+03    0.67899E-01   -0.64173E-02 14955   0.447E-01    0.352E+00
RMM:   7    -0.706669212070E+03   -0.54320E-01   -0.11406E-01 16354   0.492E-01    0.437E+00
RMM:   8    -0.706571501143E+03    0.97711E-01   -0.62017E-02 15586   0.394E-01    0.178E+00
RMM:   9    -0.706558584992E+03    0.12916E-01   -0.16427E-02 14912   0.242E-01    0.116E+00
RMM:  10    -0.706556520001E+03    0.20650E-02   -0.54376E-03 15452   0.126E-01    0.805E-01
RMM:  11    -0.706553954150E+03    0.25659E-02   -0.24067E-03 14680   0.864E-02    0.563E-01
RMM:  12    -0.706552823470E+03    0.11307E-02   -0.32218E-03 14801   0.757E-02    0.443E-01
RMM:  13    -0.706552083333E+03    0.74014E-03   -0.12051E-03 14377   0.538E-02    0.238E-01
RMM:  14    -0.706551857677E+03    0.22566E-03   -0.46939E-04 12476   0.348E-02    0.931E-02
RMM:  15    -0.706551879531E+03   -0.21854E-04   -0.10609E-04  9062   0.192E-02
   8 F= -.70655188E+03 E0= -.70594530E+03  d E =0.100123E+01  mag=     0.0218
       N       E                     dE             d eps       ncg     rms          rms(c)
DAV:   1    -0.707354448401E+03   -0.80259E+00   -0.17521E+02 14848   0.177E+01    0.456E+00
RMM:   2    -0.709626590587E+03   -0.22721E+01   -0.35473E+00 14848   0.356E+00    0.194E+01
RMM:   3    -0.708561108770E+03    0.10655E+01   -0.88994E-01 15634   0.158E+00    0.116E+01
RMM:   4    -0.707716873852E+03    0.84423E+00   -0.20920E-01 15012   0.918E-01    0.351E+00
RMM:   5    -0.707710440455E+03    0.64334E-02   -0.10328E-01 14919   0.578E-01    0.410E+00
RMM:   6    -0.707647956465E+03    0.62484E-01   -0.61474E-02 14938   0.415E-01    0.218E+00
RMM:   7    -0.707654633607E+03   -0.66771E-02   -0.43788E-02 15241   0.333E-01    0.209E+00
RMM:   8    -0.707646952627E+03    0.76810E-02   -0.24206E-02 15046   0.269E-01    0.174E+00
RMM:   9    -0.707637061119E+03    0.98915E-02   -0.11211E-02 15116   0.176E-01    0.938E-01
RMM:  10    -0.707633410441E+03    0.36507E-02   -0.28447E-03 14654   0.101E-01    0.618E-01
RMM:  11    -0.707632343393E+03    0.10670E-02   -0.12316E-03 14498   0.527E-02    0.451E-01
RMM:  12    -0.707631622628E+03    0.72077E-03   -0.91779E-04 13810   0.424E-02    0.396E-01
RMM:  13    -0.707631126957E+03    0.49567E-03   -0.16216E-03 15152   0.533E-02    0.184E-01
RMM:  14    -0.707631074395E+03    0.52562E-04   -0.30545E-04 11109   0.301E-02
   9 F= -.70763107E+03 E0= -.70702633E+03  d E =-.779670E-01  mag=     0.0174
       N       E                     dE             d eps       ncg     rms          rms(c)
DAV:   1    -0.707668280938E+03   -0.37154E-01   -0.16950E+00 15984   0.176E+00    0.445E-01
RMM:   2    -0.707723079399E+03   -0.54798E-01   -0.34550E-02 14856   0.351E-01    0.300E+00
RMM:   3    -0.707673986611E+03    0.49093E-01   -0.89137E-03 15184   0.175E-01    0.836E-01
RMM:   4    -0.707671213795E+03    0.27728E-02   -0.22831E-03 14803   0.963E-02    0.276E-01
RMM:   5    -0.707671737921E+03   -0.52413E-03   -0.90841E-04 13956   0.540E-02    0.461E-01
RMM:   6    -0.707672397822E+03   -0.65990E-03   -0.74264E-04 13651   0.437E-02    0.533E-01
RMM:   7    -0.707671246317E+03    0.11515E-02   -0.60234E-04 12949   0.403E-02    0.285E-01
RMM:   8    -0.707670898717E+03    0.34760E-03   -0.28319E-04 10928   0.280E-02    0.125E-01
RMM:   9    -0.707670914543E+03   -0.15826E-04   -0.11493E-04  8781   0.217E-02
  10 F= -.70767091E+03 E0= -.70706691E+03  d E =-.117807E+00  mag=     0.0155
       N       E                     dE             d eps       ncg     rms          rms(c)
DAV:   1    -0.707667781212E+03    0.31175E-02   -0.31271E+00 15744   0.240E+00    0.552E-01
RMM:   2    -0.707760530811E+03   -0.92750E-01   -0.63335E-02 14853   0.471E-01    0.389E+00
RMM:   3    -0.707672708052E+03    0.87823E-01   -0.15614E-02 15400   0.226E-01    0.597E-01
RMM:   4    -0.707674474558E+03   -0.17665E-02   -0.37870E-03 15507   0.115E-01    0.635E-01
RMM:   5    -0.707675985175E+03   -0.15106E-02   -0.18457E-03 14448   0.768E-02    0.830E-01
RMM:   6    -0.707675037665E+03    0.94751E-03   -0.13577E-03 14156   0.607E-02    0.657E-01
RMM:   7    -0.707674123434E+03    0.91423E-03   -0.80519E-04 13645   0.451E-02    0.441E-01
RMM:   8    -0.707672918317E+03    0.12051E-02   -0.41924E-04 11854   0.344E-02    0.169E-01
RMM:   9    -0.707672904893E+03    0.13424E-04   -0.11787E-04  8920   0.220E-02
  11 F= -.70767290E+03 E0= -.70706898E+03  d E =-.119798E+00  mag=     0.0137
       N       E                     dE             d eps       ncg     rms          rms(c)
DAV:   1    -0.707684231607E+03   -0.11313E-01   -0.10046E+00 15808   0.136E+00    0.301E-01
RMM:   2    -0.707693767306E+03   -0.95357E-02   -0.18689E-02 14850   0.261E-01    0.129E+00
RMM:   3    -0.707686657543E+03    0.71098E-02   -0.46437E-03 15880   0.114E-01    0.461E-01
RMM:   4    -0.707687387981E+03   -0.73044E-03   -0.10814E-03 14494   0.582E-02    0.577E-01
RMM:   5    -0.707686713053E+03    0.67493E-03   -0.54587E-04 12921   0.425E-02    0.490E-01
RMM:   6    -0.707686161210E+03    0.55184E-03   -0.63950E-04 13128   0.407E-02    0.365E-01
RMM:   7    -0.707685652789E+03    0.50842E-03   -0.46770E-04 11744   0.342E-02    0.126E-01
RMM:   8    -0.707685664715E+03   -0.11926E-04   -0.14921E-04  8794   0.224E-02
  12 F= -.70768566E+03 E0= -.70708164E+03  d E =-.132557E+00  mag=     0.0123
       N       E                     dE             d eps       ncg     rms          rms(c)
DAV:   1    -0.707663636067E+03    0.22017E-01   -0.40153E+01 15344   0.831E+00    0.203E+00
RMM:   2    -0.707832821071E+03   -0.16919E+00   -0.83607E-01 14873   0.163E+00    0.461E+00
RMM:   3    -0.707876035073E+03   -0.43214E-01   -0.21298E-01 16064   0.751E-01    0.530E+00
RMM:   4    -0.707777805746E+03    0.98229E-01   -0.57607E-02 15647   0.393E-01    0.329E+00
RMM:   5    -0.707717693421E+03    0.60112E-01   -0.23035E-02 14902   0.283E-01    0.173E+00
RMM:   6    -0.707715123206E+03    0.25702E-02   -0.13374E-02 15086   0.198E-01    0.167E+00
RMM:   7    -0.707709216617E+03    0.59066E-02   -0.18693E-02 16050   0.199E-01    0.128E+00
RMM:   8    -0.707704277360E+03    0.49393E-02   -0.59761E-03 14937   0.135E-01    0.764E-01
RMM:   9    -0.707701886739E+03    0.23906E-02   -0.20960E-03 14532   0.882E-02    0.431E-01
RMM:  10    -0.707701464881E+03    0.42186E-03   -0.71603E-04 13424   0.440E-02    0.279E-01
RMM:  11    -0.707700949638E+03    0.51524E-03   -0.22224E-04 10076   0.262E-02    0.124E-01
RMM:  12    -0.707700919770E+03    0.29868E-04   -0.13696E-04  9158   0.196E-02
  13 F= -.70770092E+03 E0= -.70709487E+03  d E =-.152551E-01  mag=     0.0106
       N       E                     dE             d eps       ncg     rms          rms(c)
DAV:   1    -0.707797098560E+03   -0.96149E-01   -0.12064E+01 15280   0.454E+00    0.114E+00
RMM:   2    -0.707827993714E+03   -0.30895E-01   -0.22437E-01 14865   0.873E-01    0.183E+00
RMM:   3    -0.707864317537E+03   -0.36324E-01   -0.61660E-02 16312   0.393E-01    0.324E+00
RMM:   4    -0.707837798050E+03    0.26519E-01   -0.15755E-02 15298   0.215E-01    0.209E+00
RMM:   5    -0.707814217825E+03    0.23580E-01   -0.58884E-03 14867   0.152E-01    0.102E+00
RMM:   6    -0.707812214082E+03    0.20037E-02   -0.31195E-03 14761   0.103E-01    0.886E-01
RMM:   7    -0.707809652605E+03    0.25615E-02   -0.61410E-03 16301   0.113E-01    0.573E-01
RMM:   8    -0.707808561152E+03    0.10915E-02   -0.16059E-03 14356   0.689E-02    0.226E-01
RMM:   9    -0.707808470067E+03    0.91085E-04   -0.59807E-04 12939   0.438E-02
  14 F= -.70780847E+03 E0= -.70720376E+03  d E =-.122805E+00  mag=     0.0095
       N       E                     dE             d eps       ncg     rms          rms(c)
DAV:   1    -0.707773966310E+03    0.34595E-01   -0.82207E+00 15024   0.423E+00    0.112E+00
RMM:   2    -0.708113109961E+03   -0.33914E+00   -0.25937E-01 14872   0.831E-01    0.786E+00
RMM:   3    -0.707807601871E+03    0.30551E+00   -0.44856E-02 15169   0.403E-01    0.251E+00
RMM:   4    -0.707838697085E+03   -0.31095E-01   -0.11487E-02 14921   0.212E-01    0.328E+00
RMM:   5    -0.707797295697E+03    0.41401E-01   -0.13124E-02 15496   0.168E-01    0.209E+00
RMM:   6    -0.707788101143E+03    0.91946E-02   -0.83342E-03 15816   0.140E-01    0.148E+00
RMM:   7    -0.707783240623E+03    0.48605E-02   -0.47031E-03 14932   0.102E-01    0.768E-01
RMM:   8    -0.707782278109E+03    0.96251E-03   -0.18068E-03 14381   0.685E-02    0.540E-01
RMM:   9    -0.707781877769E+03    0.40034E-03   -0.70733E-04 13153   0.498E-02    0.421E-01
RMM:  10    -0.707781742764E+03    0.13500E-03   -0.24421E-04 10329   0.283E-02    0.368E-01
RMM:  11    -0.707781595345E+03    0.14742E-03   -0.14710E-04  9235   0.209E-02    0.299E-01
RMM:  12    -0.707781362108E+03    0.23324E-03   -0.19427E-04  9359   0.219E-02    0.144E-01
RMM:  13    -0.707781334283E+03    0.27825E-04   -0.65250E-05  8620   0.158E-02
  15 F= -.70778133E+03 E0= -.70717445E+03  d E =0.271358E-01  mag=     0.0082
       N       E                     dE             d eps       ncg     rms          rms(c)
DAV:   1    -0.707869344809E+03   -0.87983E-01   -0.28762E+00 15360   0.250E+00    0.666E-01
RMM:   2    -0.707998589542E+03   -0.12924E+00   -0.85989E-02 14872   0.485E-01    0.480E+00
RMM:   3    -0.707877934448E+03    0.12066E+00   -0.14992E-02 15008   0.243E-01    0.139E+00
RMM:   4    -0.707884059170E+03   -0.61247E-02   -0.39360E-03 14799   0.129E-01    0.159E+00
RMM:   5    -0.707880489640E+03    0.35695E-02   -0.24766E-03 14739   0.836E-02    0.140E+00
RMM:   6    -0.707876055451E+03    0.44342E-02   -0.21525E-03 15102   0.754E-02    0.104E+00
RMM:   7    -0.707872313154E+03    0.37423E-02   -0.21556E-03 15251   0.668E-02    0.364E-01
RMM:   8    -0.707872033196E+03    0.27996E-03   -0.65405E-04 13148   0.411E-02    0.211E-01
RMM:   9    -0.707871996449E+03    0.36747E-04   -0.21763E-04  9790   0.290E-02
  16 F= -.70787200E+03 E0= -.70726642E+03  d E =-.635264E-01  mag=     0.0075
       N       E                     dE             d eps       ncg     rms          rms(c)
DAV:   1    -0.707862893721E+03    0.91395E-02   -0.17965E+00 15456   0.187E+00    0.455E-01
RMM:   2    -0.707870336974E+03   -0.74433E-02   -0.35827E-02 14848   0.326E-01    0.113E+00
RMM:   3    -0.707872989064E+03   -0.26521E-02   -0.64807E-03 15936   0.128E-01    0.125E+00
RMM:   4    -0.707869337880E+03    0.36512E-02   -0.15596E-03 14219   0.571E-02    0.101E+00
RMM:   5    -0.707872824986E+03   -0.34871E-02   -0.13098E-03 14386   0.577E-02    0.136E+00
RMM:   6    -0.707872416240E+03    0.40875E-03   -0.29152E-04 10504   0.303E-02    0.133E+00
RMM:   7    -0.707870488602E+03    0.19276E-02   -0.84166E-05  8632   0.179E-02    0.125E+00
RMM:   8    -0.707870805051E+03   -0.31645E-03   -0.33288E-05  8367   0.109E-02    0.124E+00
RMM:   9    -0.707871254121E+03   -0.44907E-03   -0.25088E-03 16568   0.667E-02    0.918E-01
RMM:  10    -0.707879150252E+03   -0.78961E-02   -0.16527E-02 24715   0.172E-01    0.181E+00
RMM:  11    -0.707875688520E+03    0.34617E-02   -0.11070E-03 14008   0.508E-02    0.160E+00
RMM:  12    -0.707872431719E+03    0.32568E-02   -0.16209E-03 15683   0.577E-02    0.132E+00
RMM:  13    -0.707867755996E+03    0.46757E-02   -0.54828E-03 21132   0.101E-01    0.698E-01
RMM:  14    -0.707866393896E+03    0.13621E-02   -0.17708E-03 15583   0.574E-02    0.367E-01
RMM:  15    -0.707866191614E+03    0.20228E-03   -0.16963E-04  9018   0.256E-02    0.330E-01
RMM:  16    -0.707866047993E+03    0.14362E-03   -0.24333E-04  9800   0.220E-02    0.313E-01
RMM:  17    -0.707865910936E+03    0.13706E-03   -0.88856E-05  8494   0.166E-02    0.279E-01
RMM:  18    -0.707865867112E+03    0.43824E-04   -0.61695E-05  8331   0.136E-02
  17 F= -.70786587E+03 E0= -.70725969E+03  d E =0.612934E-02  mag=     0.0067
       N       E                     dE             d eps       ncg     rms          rms(c)
DAV:   1    -0.707887714190E+03   -0.21803E-01   -0.54951E-01 15552   0.103E+00    0.361E-01
RMM:   2    -0.707907358991E+03   -0.19645E-01   -0.12954E-02 14860   0.197E-01    0.181E+00
RMM:   3    -0.707888512488E+03    0.18847E-01   -0.23911E-03 14584   0.967E-02    0.366E-01
RMM:   4    -0.707891205750E+03   -0.26933E-02   -0.10653E-03 13928   0.576E-02    0.708E-01
RMM:   5    -0.707888639037E+03    0.25667E-02   -0.61661E-04 13001   0.456E-02    0.207E-01
RMM:   6    -0.707889190816E+03   -0.55178E-03   -0.52606E-04 12349   0.368E-02    0.326E-01
RMM:   7    -0.707888567168E+03    0.62365E-03   -0.20875E-04  9680   0.290E-02    0.123E-01
RMM:   8    -0.707888618405E+03   -0.51237E-04   -0.87359E-05  8394   0.181E-02
  18 F= -.70788862E+03 E0= -.70728309E+03  d E =-.166220E-01  mag=     0.0062
       N       E                     dE             d eps       ncg     rms          rms(c)
DAV:   1    -0.707901132976E+03   -0.12566E-01   -0.30154E-01 15440   0.737E-01    0.199E-01
RMM:   2    -0.707917496902E+03   -0.16364E-01   -0.66826E-03 14860   0.158E-01    0.159E+00
RMM:   3    -0.707902399183E+03    0.15098E-01   -0.14434E-03 14776   0.766E-02    0.466E-01
RMM:   4    -0.707901976128E+03    0.42305E-03   -0.50305E-04 12975   0.394E-02    0.389E-01
RMM:   5    -0.707901709303E+03    0.26683E-03   -0.27734E-04 10728   0.318E-02    0.241E-01
RMM:   6    -0.707901760795E+03   -0.51492E-04   -0.13478E-04  8760   0.226E-02    0.246E-01
RMM:   7    -0.707901856577E+03   -0.95782E-04   -0.76130E-05  8414   0.166E-02    0.263E-01
RMM:   8    -0.707901606687E+03    0.24989E-03   -0.59055E-05  8268   0.133E-02    0.174E-01
RMM:   9    -0.707901477717E+03    0.12897E-03   -0.39968E-05  8034   0.114E-02    0.564E-02
RMM:  10    -0.707901495354E+03   -0.17637E-04   -0.12081E-05  7508   0.775E-03
  19 F= -.70790150E+03 E0= -.70729580E+03  d E =-.128769E-01  mag=     0.0057
       N       E                     dE             d eps       ncg     rms          rms(c)
DAV:   1    -0.707902896083E+03   -0.14184E-02   -0.75915E-02 15424   0.368E-01    0.114E-01
RMM:   2    -0.707903126122E+03   -0.23004E-03   -0.14486E-03 14604   0.766E-02    0.159E-01
RMM:   3    -0.707904197787E+03   -0.10717E-02   -0.42030E-04 12076   0.360E-02    0.462E-01
RMM:   4    -0.707903158124E+03    0.10397E-02   -0.11409E-04  8597   0.227E-02    0.196E-01
RMM:   5    -0.707903211348E+03   -0.53224E-04   -0.62803E-05  8300   0.145E-02    0.207E-01
RMM:   6    -0.707903043063E+03    0.16829E-03   -0.40823E-05  8064   0.122E-02    0.103E-01
RMM:   7    -0.707903012505E+03    0.30558E-04   -0.34070E-05  7972   0.102E-02    0.537E-02
RMM:   8    -0.707903020428E+03   -0.79226E-05   -0.16737E-05  7572   0.805E-03
  20 F= -.70790302E+03 E0= -.70729738E+03  d E =-.144020E-01  mag=     0.0052
       N       E                     dE             d eps       ncg     rms          rms(c)
DAV:   1    -0.707909676917E+03   -0.66644E-02   -0.21370E-01 15328   0.596E-01    0.162E-01
RMM:   2    -0.707910888644E+03   -0.12117E-02   -0.45409E-03 14850   0.125E-01    0.434E-01
RMM:   3    -0.707910421716E+03    0.46693E-03   -0.11596E-03 14703   0.542E-02    0.292E-01
RMM:   4    -0.707911291786E+03   -0.87007E-03   -0.34098E-04 11514   0.323E-02    0.483E-01
RMM:   5    -0.707910176692E+03    0.11151E-02   -0.18297E-04  9401   0.276E-02    0.259E-01
RMM:   6    -0.707910040204E+03    0.13649E-03   -0.17229E-04  8949   0.215E-02    0.185E-01
RMM:   7    -0.707909893201E+03    0.14700E-03   -0.83294E-05  8314   0.176E-02    0.638E-02
RMM:   8    -0.707909913036E+03   -0.19835E-04   -0.34485E-05  8073   0.115E-02
  21 F= -.70790991E+03 E0= -.70730414E+03  d E =-.689261E-02  mag=     0.0049
       N       E                     dE             d eps       ncg     rms          rms(c)
DAV:   1    -0.707910114710E+03   -0.22151E-03   -0.94718E-03 15552   0.127E-01    0.518E-02
RMM:   2    -0.707910285388E+03   -0.17068E-03   -0.27410E-04  9950   0.303E-02    0.166E-01
RMM:   3    -0.707910216230E+03    0.69158E-04   -0.71598E-05  8086   0.184E-02    0.127E-01
RMM:   4    -0.707910228731E+03   -0.12501E-04   -0.32657E-05  8017   0.105E-02    0.141E-01
RMM:   5    -0.707910138884E+03    0.89847E-04   -0.12880E-05  7376   0.828E-03    0.560E-02
RMM:   6    -0.707910126631E+03    0.12253E-04   -0.50244E-06  6144   0.461E-03    0.347E-02
RMM:   7    -0.707910128022E+03   -0.13910E-05   -0.23759E-06  5185   0.382E-03    0.206E-02
RMM:   8    -0.707910129428E+03   -0.14055E-05   -0.15069E-06  4127   0.329E-03
  22 F= -.70791013E+03 E0= -.70730441E+03  d E =-.710900E-02  mag=     0.0045
       N       E                     dE             d eps       ncg     rms          rms(c)
DAV:   1    -0.707918285750E+03   -0.81577E-02   -0.20622E-01 15312   0.547E-01    0.146E-01
RMM:   2    -0.707919716271E+03   -0.14305E-02   -0.36497E-03 14808   0.125E-01    0.481E-01
RMM:   3    -0.707918687814E+03    0.10285E-02   -0.10770E-03 14363   0.506E-02    0.244E-01
RMM:   4    -0.707919419109E+03   -0.73129E-03   -0.20458E-04  9309   0.268E-02    0.399E-01
RMM:   5    -0.707918802506E+03    0.61660E-03   -0.18576E-04  9276   0.255E-02    0.277E-01
RMM:   6    -0.707918648174E+03    0.15433E-03   -0.20985E-04  9329   0.237E-02    0.185E-01
RMM:   7    -0.707918536316E+03    0.11186E-03   -0.10848E-04  8417   0.190E-02    0.896E-02
RMM:   8    -0.707918527178E+03    0.91379E-05   -0.32361E-05  8133   0.122E-02
  23 F= -.70791853E+03 E0= -.70731249E+03  d E =-.839775E-02  mag=     0.0042
       N       E                     dE             d eps       ncg     rms          rms(c)
DAV:   1    -0.707923755843E+03   -0.52195E-02   -0.83752E-01 15280   0.110E+00    0.301E-01
RMM:   2    -0.707927704614E+03   -0.39488E-02   -0.14608E-02 14854   0.248E-01    0.809E-01
RMM:   3    -0.707925528827E+03    0.21758E-02   -0.44651E-03 16915   0.101E-01    0.453E-01
RMM:   4    -0.707929894961E+03   -0.43661E-02   -0.87998E-04 14085   0.500E-02    0.941E-01
RMM:   5    -0.707926238354E+03    0.36566E-02   -0.77963E-04 13814   0.486E-02    0.588E-01
RMM:   6    -0.707926258273E+03   -0.19919E-04   -0.99527E-04 14396   0.482E-02    0.502E-01
RMM:   7    -0.707924933437E+03    0.13248E-02   -0.57062E-04 13257   0.379E-02    0.212E-01
RMM:   8    -0.707924913204E+03    0.20233E-04   -0.15440E-04  9042   0.230E-02
  24 F= -.70792491E+03 E0= -.70731819E+03  d E =-.147838E-01  mag=     0.0039
       N       E                     dE             d eps       ncg     rms          rms(c)
DAV:   1    -0.707930874108E+03   -0.59407E-02   -0.16578E-01 15520   0.483E-01    0.195E-01
RMM:   2    -0.707932976688E+03   -0.21026E-02   -0.33110E-03 14789   0.111E-01    0.522E-01
RMM:   3    -0.707933828222E+03   -0.85153E-03   -0.11192E-03 14179   0.571E-02    0.696E-01
RMM:   4    -0.707931707655E+03    0.21206E-02   -0.33153E-04 10806   0.321E-02    0.359E-01
RMM:   5    -0.707931550293E+03    0.15736E-03   -0.14303E-04  8918   0.226E-02    0.330E-01
RMM:   6    -0.707931386828E+03    0.16346E-03   -0.12690E-04  8835   0.218E-02    0.271E-01
RMM:   7    -0.707931096529E+03    0.29030E-03   -0.10759E-04  8319   0.199E-02    0.107E-01
RMM:   8    -0.707931101020E+03   -0.44909E-05   -0.47345E-05  8194   0.131E-02
  25 F= -.70793110E+03 E0= -.70732435E+03  d E =-.618782E-02  mag=     0.0036
       N       E                     dE             d eps       ncg     rms          rms(c)
DAV:   1    -0.707933832004E+03   -0.27355E-02   -0.60464E-01 15264   0.919E-01    0.278E-01
RMM:   2    -0.707937523121E+03   -0.36911E-02   -0.10013E-02 14848   0.199E-01    0.862E-01
RMM:   3    -0.707935289787E+03    0.22333E-02   -0.29156E-03 16622   0.834E-02    0.502E-01
RMM:   4    -0.707942301853E+03   -0.70121E-02   -0.81818E-04 13793   0.462E-02    0.120E+00
RMM:   5    -0.707936091848E+03    0.62100E-02   -0.70684E-04 13600   0.474E-02    0.672E-01
RMM:   6    -0.707935464137E+03    0.62771E-03   -0.80177E-04 13724   0.437E-02    0.477E-01
RMM:   7    -0.707934493462E+03    0.97067E-03   -0.55205E-04 12993   0.362E-02    0.209E-01
RMM:   8    -0.707934529869E+03   -0.36407E-04   -0.11323E-04  8743   0.216E-02
  26 F= -.70793453E+03 E0= -.70732747E+03  d E =-.961666E-02  mag=     0.0033
       N       E                     dE             d eps       ncg     rms          rms(c)
DAV:   1    -0.707935011317E+03   -0.51785E-03   -0.49275E-02 15616   0.263E-01    0.187E-01
RMM:   2    -0.707969210652E+03   -0.34199E-01   -0.30911E-03 14690   0.875E-02    0.233E+00
RMM:   3    -0.707934288183E+03    0.34922E-01   -0.12191E-03 13883   0.801E-02    0.254E-01
RMM:   4    -0.707934722628E+03   -0.43444E-03   -0.29943E-04 10750   0.365E-02    0.135E-01
RMM:   5    -0.707934945413E+03   -0.22279E-03   -0.12192E-04  8331   0.204E-02    0.169E-01
RMM:   6    -0.707934811631E+03    0.13378E-03   -0.68722E-05  7998   0.161E-02    0.102E-01
RMM:   7    -0.707934838610E+03   -0.26979E-04   -0.42546E-05  7927   0.112E-02    0.101E-01
RMM:   8    -0.707934791456E+03    0.47154E-04   -0.22398E-05  7313   0.928E-03
  27 F= -.70793479E+03 E0= -.70732777E+03  d E =-.987825E-02  mag=     0.0031
       N       E                     dE             d eps       ncg     rms          rms(c)
DAV:   1    -0.707938055754E+03   -0.32171E-02   -0.43507E-02 15488   0.299E-01    0.844E-02
RMM:   2    -0.707941540251E+03   -0.34845E-02   -0.12427E-03 14307   0.626E-02    0.776E-01
RMM:   3    -0.707938040220E+03    0.35000E-02   -0.26195E-04 10023   0.350E-02    0.165E-01
RMM:   4    -0.707938265961E+03   -0.22574E-03   -0.87171E-05  8141   0.202E-02    0.206E-01
RMM:   5    -0.707938201324E+03    0.64636E-04   -0.33489E-05  7968   0.116E-02    0.172E-01
RMM:   6    -0.707938162301E+03    0.39023E-04   -0.22193E-05  7635   0.879E-03    0.140E-01
RMM:   7    -0.707938080614E+03    0.81687E-04   -0.21261E-05  7611   0.815E-03    0.575E-02
RMM:   8    -0.707938084953E+03   -0.43391E-05   -0.82395E-06  7039   0.604E-03
  28 F= -.70793808E+03 E0= -.70733116E+03  d E =-.329350E-02  mag=     0.0029
       N       E                     dE             d eps       ncg     rms          rms(c)
DAV:   1    -0.707938539445E+03   -0.45883E-03   -0.12942E-02 15648   0.163E-01    0.453E-02
RMM:   2    -0.707938627124E+03   -0.87679E-04   -0.27182E-04  9465   0.309E-02    0.112E-01
RMM:   3    -0.707938645609E+03   -0.18485E-04   -0.64019E-05  8027   0.172E-02    0.133E-01
RMM:   4    -0.707938581373E+03    0.64236E-04   -0.15086E-05  7827   0.865E-03    0.801E-02
RMM:   5    -0.707938579192E+03    0.21811E-05   -0.62568E-06  6643   0.513E-03    0.797E-02
RMM:   6    -0.707938562227E+03    0.16965E-04   -0.72154E-06  6789   0.523E-03    0.432E-02
RMM:   7    -0.707938563961E+03   -0.17339E-05   -0.84298E-06  7066   0.561E-03    0.381E-02
RMM:   8    -0.707938566524E+03   -0.25625E-05   -0.28056E-06  5323   0.386E-03
  29 F= -.70793857E+03 E0= -.70733157E+03  d E =-.377507E-02  mag=     0.0026
       N       E                     dE             d eps       ncg     rms          rms(c)
DAV:   1    -0.707941688363E+03   -0.31244E-02   -0.41652E-02 15360   0.254E-01    0.925E-02
RMM:   2    -0.707942584099E+03   -0.89574E-03   -0.79723E-04 13745   0.542E-02    0.377E-01
RMM:   3    -0.707942705363E+03   -0.12126E-03   -0.28456E-04 10236   0.304E-02    0.419E-01
RMM:   4    -0.707941905661E+03    0.79970E-03   -0.80336E-05  8134   0.215E-02    0.196E-01
RMM:   5    -0.707941765171E+03    0.14049E-03   -0.24501E-05  7847   0.101E-02    0.127E-01
RMM:   6    -0.707941743178E+03    0.21993E-04   -0.22294E-05  7672   0.875E-03    0.827E-02
RMM:   7    -0.707941771592E+03   -0.28414E-04   -0.18975E-05  7735   0.865E-03    0.869E-02
RMM:   8    -0.707941758765E+03    0.12827E-04   -0.80586E-06  6773   0.550E-03
  30 F= -.70794176E+03 E0= -.70733459E+03  d E =-.319224E-02  mag=     0.0024
       N       E                     dE             d eps       ncg     rms          rms(c)
DAV:   1    -0.707944556953E+03   -0.27854E-02   -0.26047E-01 15296   0.635E-01    0.200E-01
RMM:   2    -0.707947093314E+03   -0.25364E-02   -0.46602E-03 14836   0.132E-01    0.634E-01
RMM:   3    -0.707949419872E+03   -0.23266E-02   -0.13894E-03 14537   0.664E-02    0.892E-01
RMM:   4    -0.707945677425E+03    0.37424E-02   -0.38385E-04 11422   0.399E-02    0.417E-01
RMM:   5    -0.707945232997E+03    0.44443E-03   -0.12524E-04  8966   0.214E-02    0.307E-01
RMM:   6    -0.707945055352E+03    0.17764E-03   -0.11245E-04  8734   0.197E-02    0.233E-01
RMM:   7    -0.707944993529E+03    0.61823E-04   -0.13242E-04  8694   0.210E-02    0.159E-01
RMM:   8    -0.707944922111E+03    0.71418E-04   -0.57338E-05  8192   0.148E-02
  31 F= -.70794492E+03 E0= -.70733720E+03  d E =-.635559E-02  mag=     0.0022
       N       E                     dE             d eps       ncg     rms          rms(c)
DAV:   1    -0.707947639007E+03   -0.26455E-02   -0.46691E-02 15520   0.247E-01    0.129E-01
RMM:   2    -0.707953558689E+03   -0.59197E-02   -0.11954E-03 14474   0.615E-02    0.946E-01
RMM:   3    -0.707948502144E+03    0.50565E-02   -0.51503E-04 12726   0.447E-02    0.440E-01
RMM:   4    -0.707948015405E+03    0.48674E-03   -0.15094E-04  8963   0.266E-02    0.239E-01
RMM:   5    -0.707947773120E+03    0.24228E-03   -0.43459E-05  8033   0.146E-02    0.173E-01
RMM:   6    -0.707947732613E+03    0.40507E-04   -0.25135E-05  7732   0.970E-03    0.120E-01
RMM:   7    -0.707947722313E+03    0.10300E-04   -0.13295E-05  7187   0.750E-03    0.107E-01
RMM:   8    -0.707947707956E+03    0.14357E-04   -0.12801E-05  7377   0.674E-03
  32 F= -.70794771E+03 E0= -.70733990E+03  d E =-.278584E-02  mag=     0.0021
       N       E                     dE             d eps       ncg     rms          rms(c)
DAV:   1    -0.707951663286E+03   -0.39410E-02   -0.42131E-01 15248   0.740E-01    0.211E-01
RMM:   2    -0.707953323253E+03   -0.16600E-02   -0.67119E-03 14842   0.155E-01    0.518E-01
RMM:   3    -0.707953113356E+03    0.20990E-03   -0.14910E-03 14459   0.675E-02    0.399E-01
RMM:   4    -0.707954544933E+03   -0.14316E-02   -0.71647E-04 13448   0.395E-02    0.659E-01
RMM:   5    -0.707952809176E+03    0.17358E-02   -0.24521E-04  9832   0.316E-02    0.353E-01
RMM:   6    -0.707952328766E+03    0.48041E-03   -0.17607E-04  9369   0.241E-02    0.243E-01
RMM:   7    -0.707952196882E+03    0.13188E-03   -0.12375E-04  8752   0.209E-02    0.139E-01
RMM:   8    -0.707952144331E+03    0.52552E-04   -0.46901E-05  8226   0.138E-02
  33 F= -.70795214E+03 E0= -.70734347E+03  d E =-.722222E-02  mag=     0.0019
       N       E                     dE             d eps       ncg     rms          rms(c)
DAV:   1    -0.707955413516E+03   -0.32166E-02   -0.47837E-02 15424   0.264E-01    0.738E-02
RMM:   2    -0.707956168260E+03   -0.75474E-03   -0.79487E-04 13707   0.529E-02    0.361E-01
RMM:   3    -0.707955491010E+03    0.67725E-03   -0.20370E-04  9218   0.245E-02    0.107E-01
RMM:   4    -0.707955677998E+03   -0.18699E-03   -0.68215E-05  8079   0.172E-02    0.200E-01
RMM:   5    -0.707955531057E+03    0.14694E-03   -0.22252E-05  7917   0.101E-02    0.116E-01
RMM:   6    -0.707955532406E+03   -0.13491E-05   -0.30540E-05  7904   0.949E-03    0.109E-01
RMM:   7    -0.707955487568E+03    0.44838E-04   -0.15361E-05  7585   0.852E-03    0.464E-02
RMM:   8    -0.707955490597E+03   -0.30291E-05   -0.63990E-06  6735   0.512E-03
  34 F= -.70795549E+03 E0= -.70734655E+03  d E =-.334627E-02  mag=     0.0017
       N       E                     dE             d eps       ncg     rms          rms(c)
DAV:   1    -0.707957017717E+03   -0.15301E-02   -0.81432E-02 15328   0.343E-01    0.913E-02
RMM:   2    -0.707959129714E+03   -0.21120E-02   -0.14400E-03 14446   0.700E-02    0.597E-01
RMM:   3    -0.707957133126E+03    0.19966E-02   -0.33311E-04 10717   0.334E-02    0.170E-01
RMM:   4    -0.707957384980E+03   -0.25185E-03   -0.11348E-04  8472   0.214E-02    0.250E-01
RMM:   5    -0.707957249208E+03    0.13577E-03   -0.45796E-05  8027   0.133E-02    0.191E-01
RMM:   6    -0.707957206028E+03    0.43180E-04   -0.33052E-05  7952   0.111E-02    0.153E-01
RMM:   7    -0.707957106352E+03    0.99676E-04   -0.25188E-05  7852   0.926E-03    0.688E-02
RMM:   8    -0.707957114237E+03   -0.78849E-05   -0.10508E-05  7090   0.694E-03
  35 F= -.70795711E+03 E0= -.70734790E+03  d E =-.496991E-02  mag=     0.0016
       N       E                     dE             d eps       ncg     rms          rms(c)
DAV:   1    -0.707957893244E+03   -0.78689E-03   -0.10267E-02 15520   0.153E-01    0.497E-02
RMM:   2    -0.707959211949E+03   -0.13187E-02   -0.35645E-04 10987   0.357E-02    0.461E-01
RMM:   3    -0.707957839208E+03    0.13727E-02   -0.97529E-05  8049   0.225E-02    0.668E-02
RMM:   4    -0.707957909357E+03   -0.70148E-04   -0.30318E-05  7971   0.122E-02    0.385E-02
RMM:   5    -0.707957912389E+03   -0.30319E-05   -0.92944E-06  7387   0.664E-03    0.224E-02
RMM:   6    -0.707957915986E+03   -0.35969E-05   -0.49017E-06  6136   0.459E-03    0.351E-02
RMM:   7    -0.707957911033E+03    0.49529E-05   -0.19124E-06  4873   0.360E-03    0.130E-02
RMM:   8    -0.707957911647E+03   -0.61485E-06   -0.65682E-07  3204   0.302E-03
  36 F= -.70795791E+03 E0= -.70734862E+03  d E =-.797410E-03  mag=     0.0015
       N       E                     dE             d eps       ncg     rms          rms(c)
DAV:   1    -0.707958150160E+03   -0.23913E-03   -0.12631E-02 15584   0.169E-01    0.371E-02
RMM:   2    -0.707958306881E+03   -0.15672E-03   -0.32505E-04  9956   0.366E-02    0.146E-01
RMM:   3    -0.707958222928E+03    0.83954E-04   -0.68861E-05  8078   0.173E-02    0.114E-01
RMM:   4    -0.707958183445E+03    0.39482E-04   -0.16451E-05  7833   0.947E-03    0.485E-02
RMM:   5    -0.707958177437E+03    0.60084E-05   -0.74357E-06  7023   0.525E-03    0.381E-02
RMM:   6    -0.707958180130E+03   -0.26927E-05   -0.46648E-06  6263   0.455E-03    0.359E-02
RMM:   7    -0.707958178318E+03    0.18112E-05   -0.48222E-06  6586   0.437E-03    0.248E-02
RMM:   8    -0.707958179934E+03   -0.16158E-05   -0.15650E-06  4322   0.341E-03
  37 F= -.70795818E+03 E0= -.70734887E+03  d E =-.106570E-02  mag=     0.0013
       N       E                     dE             d eps       ncg     rms          rms(c)
DAV:   1    -0.707958587268E+03   -0.40895E-03   -0.72272E-03 15488   0.125E-01    0.428E-02
RMM:   2    -0.707959661578E+03   -0.10743E-02   -0.22884E-04  9155   0.278E-02    0.418E-01
RMM:   3    -0.707958540988E+03    0.11206E-02   -0.86904E-05  8031   0.208E-02    0.793E-02
RMM:   4    -0.707958612440E+03   -0.71452E-04   -0.22875E-05  7891   0.110E-02    0.429E-02
RMM:   5    -0.707958599021E+03    0.13419E-04   -0.53103E-06  6859   0.553E-03    0.238E-02
RMM:   6    -0.707958603223E+03   -0.42021E-05   -0.80623E-07  3633   0.302E-03    0.273E-02
RMM:   7    -0.707958599587E+03    0.36360E-05   -0.34087E-07  2502   0.285E-03    0.188E-02
RMM:   8    -0.707958598818E+03    0.76949E-06   -0.34975E-07  2380   0.285E-03
  38 F= -.70795860E+03 E0= -.70734928E+03  d E =-.418884E-03  mag=     0.0012
       N       E                     dE             d eps       ncg     rms          rms(c)
DAV:   1    -0.707958684117E+03   -0.84530E-04   -0.39280E-03 15440   0.920E-02    0.234E-02
RMM:   2    -0.707958883657E+03   -0.19954E-03   -0.97137E-05  8058   0.192E-02    0.178E-01
RMM:   3    -0.707958671830E+03    0.21183E-03   -0.23935E-05  7931   0.111E-02    0.401E-02
RMM:   4    -0.707958693588E+03   -0.21758E-04   -0.69951E-06  7156   0.589E-03    0.224E-02
RMM:   5    -0.707958692066E+03    0.15224E-05   -0.16851E-06  5084   0.358E-03    0.110E-02
RMM:   6    -0.707958692795E+03   -0.72885E-06   -0.15293E-07  2249   0.263E-03    0.132E-02
RMM:   7    -0.707958692490E+03    0.30427E-06   -0.68409E-08  1896   0.253E-03    0.942E-03
RMM:   8    -0.707958692396E+03    0.94558E-07   -0.29263E-07  2138   0.273E-03
  39 F= -.70795869E+03 E0= -.70734937E+03  d E =-.512462E-03  mag=     0.0011
       N       E                     dE             d eps       ncg     rms          rms(c)
DAV:   1    -0.707958915941E+03   -0.22345E-03   -0.27142E-03 15328   0.820E-02    0.162E-02
RMM:   2    -0.707958925864E+03   -0.99236E-05   -0.61361E-05  7862   0.156E-02    0.394E-02
RMM:   3    -0.707958920906E+03    0.49583E-05   -0.10054E-05  7792   0.765E-03    0.172E-02
RMM:   4    -0.707958932357E+03   -0.11451E-04   -0.19153E-06  4423   0.343E-03    0.413E-02
RMM:   5    -0.707958922777E+03    0.95800E-05   -0.11396E-06  3817   0.320E-03    0.308E-02
RMM:   6    -0.707958923522E+03   -0.74461E-06   -0.36734E-07  2786   0.291E-03    0.220E-02
RMM:   7    -0.707958922333E+03    0.11881E-05   -0.21131E-07  2018   0.282E-03    0.139E-02
RMM:   8    -0.707958922161E+03    0.17243E-06   -0.13480E-07  1519   0.279E-03
  40 F= -.70795892E+03 E0= -.70734961E+03  d E =-.229765E-03  mag=     0.0010
       N       E                     dE             d eps       ncg     rms          rms(c)
DAV:   1    -0.707958969775E+03   -0.47441E-04   -0.14193E-03 15040   0.594E-02    0.127E-02
RMM:   2    -0.707958983024E+03   -0.13249E-04   -0.34734E-05  7900   0.117E-02    0.441E-02
RMM:   3    -0.707958974996E+03    0.80283E-05   -0.65587E-06  7647   0.605E-03    0.293E-02
RMM:   4    -0.707958973059E+03    0.19371E-05   -0.48041E-07  2590   0.279E-03    0.180E-02
RMM:   5    -0.707958976179E+03   -0.31205E-05   -0.15516E-07  1996   0.274E-03    0.256E-02
RMM:   6    -0.707958973671E+03    0.25087E-05   -0.99400E-08  1977   0.269E-03    0.184E-02
RMM:   7    -0.707958973141E+03    0.53022E-06   -0.95188E-08  1622   0.271E-03    0.757E-03
RMM:   8    -0.707958973547E+03   -0.40692E-06   -0.53145E-08  1347   0.270E-03
  41 F= -.70795897E+03 E0= -.70734965E+03  d E =-.281152E-03  mag=     0.0009
       N       E                     dE             d eps       ncg     rms          rms(c)
DAV:   1    -0.707959023707E+03   -0.50566E-04   -0.44508E-04 14528   0.301E-02    0.799E-03
RMM:   2    -0.707959045840E+03   -0.22133E-04   -0.11769E-05  7844   0.693E-03    0.636E-02
RMM:   3    -0.707959019787E+03    0.26052E-04   -0.26913E-06  6215   0.413E-03    0.176E-02
RMM:   4    -0.707959024332E+03   -0.45447E-05   -0.23556E-08  1632   0.243E-03    0.964E-03
RMM:   5    -0.707959024898E+03   -0.56602E-06   -0.15874E-08  1140   0.243E-03    0.120E-02
RMM:   6    -0.707959024955E+03   -0.56447E-07   -0.79221E-08  1382   0.257E-03    0.101E-02
RMM:   7    -0.707959024702E+03    0.25250E-06   -0.10423E-07  1207   0.262E-03    0.511E-03
RMM:   8    -0.707959024706E+03   -0.39581E-08   -0.27969E-08  1001   0.258E-03
  42 F= -.70795902E+03 E0= -.70734970E+03  d E =-.511587E-04  mag=     0.0008
