       N       E                     dE             d eps       ncg     rms          rms(c)
DAV:   1     0.759780312969E+04    0.75978E+04   -0.29776E+05 15104   0.126E+03
DAV:   2     0.598374692581E+03   -0.69994E+04   -0.63145E+04 16000   0.373E+02
DAV:   3    -0.762586020068E+03   -0.13610E+04   -0.13094E+04 18528   0.165E+02
DAV:   4    -0.836976576726E+03   -0.74391E+02   -0.72596E+02 20432   0.433E+01
DAV:   5    -0.838604323859E+03   -0.16277E+01   -0.16072E+01 19312   0.597E+00    0.188E+02
RMM:   6    -0.679637769208E+03    0.15897E+03   -0.60601E+02 14909   0.390E+01    0.154E+02
RMM:   7    -0.156774438236E+04   -0.88811E+03   -0.43237E+02 16670   0.262E+01    0.391E+02
RMM:   8    -0.127664354466E+04    0.29110E+03   -0.92804E+01 18656   0.105E+01    0.335E+02
RMM:   9    -0.117395969342E+04    0.10268E+03   -0.64375E+01 15419   0.114E+01    0.334E+02
RMM:  10    -0.908474406039E+03    0.26549E+03   -0.34016E+02 20441   0.218E+01    0.293E+02
RMM:  11    -0.101642151463E+04   -0.10795E+03   -0.70497E+01 17206   0.936E+00    0.263E+02
RMM:  12    -0.981484797011E+03    0.34937E+02   -0.10170E+02 18129   0.122E+01    0.238E+02
RMM:  13    -0.137208082879E+04   -0.39060E+03   -0.23458E+02 20938   0.194E+01    0.296E+02
RMM:  14    -0.127043657207E+04    0.10164E+03   -0.15579E+01 16850   0.526E+00    0.254E+02
RMM:  15    -0.101947924457E+04    0.25096E+03   -0.70535E+01 19323   0.111E+01    0.180E+02
RMM:  16    -0.735043943721E+03    0.28444E+03   -0.31582E+01 17499   0.667E+00    0.124E+02
RMM:  17    -0.692477237338E+03    0.42567E+02   -0.13727E+01 15958   0.518E+00    0.110E+02
RMM:  18    -0.654482737019E+03    0.37995E+02   -0.74244E+00 16136   0.348E+00    0.964E+01
RMM:  19    -0.653024915461E+03    0.14578E+01   -0.24829E+00 16033   0.235E+00    0.923E+01
RMM:  20    -0.653488173418E+03   -0.46326E+00   -0.72732E-01 17657   0.107E+00    0.911E+01
RMM:  21    -0.656141430903E+03   -0.26533E+01   -0.95558E-01 15408   0.150E+00    0.868E+01
RMM:  22    -0.658080182269E+03   -0.19388E+01   -0.49328E+00 20138   0.311E+00    0.736E+01
RMM:  23    -0.661791490196E+03   -0.37113E+01   -0.44005E+00 20297   0.310E+00    0.607E+01
RMM:  24    -0.663111377754E+03   -0.13199E+01   -0.12856E+00 17505   0.186E+00    0.536E+01
RMM:  25    -0.664265528527E+03   -0.11542E+01   -0.27553E-01 15490   0.844E-01    0.507E+01
RMM:  26    -0.663325084091E+03    0.94044E+00   -0.15306E-01 15658   0.629E-01    0.489E+01
RMM:  27    -0.663087865375E+03    0.23722E+00   -0.26944E-01 16709   0.792E-01    0.463E+01
RMM:  28    -0.663064186514E+03    0.23679E-01   -0.10190E+00 20294   0.155E+00    0.400E+01
RMM:  29    -0.663789056120E+03   -0.72487E+00   -0.17492E+00 22453   0.199E+00    0.332E+01
RMM:  30    -0.664007202937E+03   -0.21815E+00   -0.74860E-01 19416   0.126E+00    0.312E+01
RMM:  31    -0.665520817733E+03   -0.15136E+01   -0.80001E-01 18748   0.122E+00    0.298E+01
RMM:  32    -0.673243388027E+03   -0.77226E+01   -0.33439E+00 22058   0.227E+00    0.292E+01
RMM:  33    -0.675857731118E+03   -0.26143E+01   -0.26749E+00 22584   0.226E+00    0.223E+01
RMM:  34    -0.676952201195E+03   -0.10945E+01   -0.15646E+00 20727   0.165E+00    0.188E+01
RMM:  35    -0.679022760666E+03   -0.20706E+01   -0.65539E-01 18296   0.116E+00    0.186E+01
RMM:  36    -0.680934853659E+03   -0.19121E+01   -0.28945E-01 17246   0.888E-01    0.184E+01
RMM:  37    -0.683682350242E+03   -0.27475E+01   -0.61673E-01 19520   0.111E+00    0.197E+01
RMM:  38    -0.687763490959E+03   -0.40811E+01   -0.11742E+00 21144   0.140E+00    0.238E+01
RMM:  39    -0.689165762569E+03   -0.14023E+01   -0.18021E-01 16760   0.631E-01    0.212E+01
RMM:  40    -0.690140565635E+03   -0.97480E+00   -0.30172E-01 18701   0.808E-01    0.163E+01
RMM:  41    -0.692032776441E+03   -0.18922E+01   -0.38844E-01 19339   0.905E-01    0.117E+01
RMM:  42    -0.694930753801E+03   -0.28980E+01   -0.19945E-01 17355   0.669E-01    0.121E+01
RMM:  43    -0.699617547663E+03   -0.46868E+01   -0.70756E-01 20414   0.113E+00    0.114E+01
RMM:  44    -0.699200367810E+03    0.41718E+00   -0.44083E-01 19394   0.930E-01    0.159E+01
RMM:  45    -0.698829638061E+03    0.37073E+00   -0.16493E-01 16720   0.600E-01    0.191E+01
RMM:  46    -0.699162885480E+03   -0.33325E+00   -0.52553E-02 15067   0.378E-01    0.181E+01
RMM:  47    -0.699450256832E+03   -0.28737E+00   -0.58514E-02 15756   0.337E-01    0.172E+01
RMM:  48    -0.699539315766E+03   -0.89059E-01   -0.10625E-01 18316   0.443E-01    0.150E+01
RMM:  49    -0.699990732259E+03   -0.45142E+00   -0.17234E-01 19604   0.583E-01    0.120E+01
RMM:  50    -0.699927770749E+03    0.62962E-01   -0.17424E-01 19669   0.580E-01    0.104E+01
RMM:  51    -0.700000155676E+03   -0.72385E-01   -0.11141E+00 24936   0.139E+00    0.932E+00
RMM:  52    -0.700700311501E+03   -0.70016E+00   -0.21967E-02 15159   0.286E-01    0.862E+00
RMM:  53    -0.701057959490E+03   -0.35765E+00   -0.72207E-02 18244   0.375E-01    0.795E+00
RMM:  54    -0.701401386014E+03   -0.34343E+00   -0.16875E-01 20281   0.533E-01    0.720E+00
RMM:  55    -0.702437364359E+03   -0.10360E+01   -0.20486E-01 20848   0.581E-01    0.614E+00
RMM:  56    -0.701450347964E+03    0.98702E+00   -0.31062E-01 22426   0.761E-01    0.677E+00
RMM:  57    -0.702333483786E+03   -0.88314E+00   -0.62467E-02 17459   0.343E-01    0.720E+00
RMM:  58    -0.702621759842E+03   -0.28828E+00   -0.51142E-02 17495   0.305E-01    0.719E+00
RMM:  59    -0.702723702711E+03   -0.10194E+00   -0.10109E-01 19570   0.399E-01    0.707E+00
RMM:  60    -0.703206567501E+03   -0.48286E+00   -0.10091E-01 19053   0.380E-01    0.639E+00
RMM:  61    -0.703045013981E+03    0.16155E+00   -0.31634E-01 22972   0.755E-01    0.392E+00
RMM:  62    -0.703276947925E+03   -0.23193E+00   -0.12972E-01 19559   0.456E-01    0.283E+00
RMM:  63    -0.704298667150E+03   -0.10217E+01   -0.75630E-02 18473   0.347E-01    0.304E+00
RMM:  64    -0.704263274480E+03    0.35393E-01   -0.45767E-02 16836   0.270E-01    0.223E+00
RMM:  65    -0.704452623986E+03   -0.18935E+00   -0.16421E-02 15773   0.194E-01    0.195E+00
RMM:  66    -0.704522290669E+03   -0.69667E-01   -0.36157E-02 18186   0.288E-01    0.248E+00
RMM:  67    -0.704547437932E+03   -0.25147E-01   -0.17396E-02 16250   0.197E-01    0.130E+00
RMM:  68    -0.704776702802E+03   -0.22926E+00   -0.85353E-03 15431   0.138E-01    0.946E-01
RMM:  69    -0.704895107658E+03   -0.11840E+00   -0.46843E-03 15286   0.970E-02    0.920E-01
RMM:  70    -0.704960611952E+03   -0.65504E-01   -0.38789E-03 15719   0.848E-02    0.784E-01
RMM:  71    -0.705020840269E+03   -0.60228E-01   -0.18531E-03 14635   0.679E-02    0.553E-01
RMM:  72    -0.705141300727E+03   -0.12046E+00   -0.18940E-03 14746   0.585E-02    0.358E-01
RMM:  73    -0.705257197511E+03   -0.11590E+00   -0.14730E-03 14607   0.508E-02    0.348E-01
RMM:  74    -0.705350623426E+03   -0.93426E-01   -0.89857E-04 12985   0.391E-02    0.316E-01
RMM:  75    -0.705489356623E+03   -0.13873E+00   -0.14086E-03 14032   0.433E-02    0.267E-01
RMM:  76    -0.705581045357E+03   -0.91689E-01   -0.83623E-04 12841   0.334E-02    0.205E-01
RMM:  77    -0.705661416322E+03   -0.80371E-01   -0.70116E-04 12324   0.300E-02    0.104E-01
RMM:  78    -0.705700812876E+03   -0.39397E-01   -0.30279E-04 10442   0.233E-02    0.830E-02
RMM:  79    -0.705709680334E+03   -0.88675E-02   -0.12563E-04  9183   0.174E-02    0.604E-02
RMM:  80    -0.705711467222E+03   -0.17869E-02   -0.50935E-05  8846   0.124E-02
   1 F= -.70571147E+03 E0= -.70510697E+03  d E =-.705711E+03  mag=     0.2423
       N       E                     dE             d eps       ncg     rms          rms(c)
DAV:   1    -0.662579788757E+03    0.43130E+02   -0.37877E+03 15360   0.832E+01    0.186E+01
RMM:   2    -0.705219543057E+03   -0.42640E+02   -0.31132E+02 15403   0.192E+01    0.511E+01
RMM:   3    -0.713307697933E+03   -0.80882E+01   -0.60052E+01 15906   0.798E+00    0.448E+01
RMM:   4    -0.697696013634E+03    0.15612E+02   -0.47519E+00 15043   0.377E+00    0.276E+01
RMM:   5    -0.694725697441E+03    0.29703E+01   -0.18452E+00 15114   0.226E+00    0.232E+01
RMM:   6    -0.694297955558E+03    0.42774E+00   -0.12547E+00 15446   0.152E+00    0.216E+01
RMM:   7    -0.693279830263E+03    0.10181E+01   -0.34256E-01 14967   0.106E+00    0.164E+01
RMM:   8    -0.693931845361E+03   -0.65202E+00   -0.12695E+00 16748   0.131E+00    0.184E+01
RMM:   9    -0.693041070323E+03    0.89078E+00   -0.38066E-01 15582   0.931E-01    0.127E+01
RMM:  10    -0.692450185884E+03    0.59088E+00   -0.64967E-01 16741   0.941E-01    0.920E+00
RMM:  11    -0.692111033315E+03    0.33915E+00   -0.63635E-02 14982   0.456E-01    0.557E+00
RMM:  12    -0.692002065311E+03    0.10897E+00   -0.42509E-02 15026   0.326E-01    0.442E+00
RMM:  13    -0.691898491709E+03    0.10357E+00   -0.57068E-02 15832   0.307E-01    0.284E+00
RMM:  14    -0.691847475632E+03    0.51016E-01   -0.32507E-02 15746   0.254E-01    0.144E+00
RMM:  15    -0.691837941339E+03    0.95343E-02   -0.15834E-02 15481   0.186E-01    0.113E+00
RMM:  16    -0.691831667842E+03    0.62735E-02   -0.14843E-02 16005   0.167E-01    0.848E-01
RMM:  17    -0.691828822089E+03    0.28458E-02   -0.98094E-03 15676   0.134E-01    0.710E-01
RMM:  18    -0.691825288759E+03    0.35333E-02   -0.35015E-03 15217   0.877E-02    0.492E-01
RMM:  19    -0.691822794470E+03    0.24943E-02   -0.90177E-04 13454   0.482E-02    0.338E-01
RMM:  20    -0.691822246968E+03    0.54750E-03   -0.26593E-04 10302   0.244E-02    0.322E-01
RMM:  21    -0.691824095438E+03   -0.18485E-02   -0.19127E-04  9586   0.214E-02    0.347E-01
RMM:  22    -0.691825911196E+03   -0.18158E-02   -0.31944E-04  9975   0.235E-02    0.353E-01
RMM:  23    -0.691827211348E+03   -0.13002E-02   -0.11619E-03 12341   0.377E-02    0.352E-01
RMM:  24    -0.691822925686E+03    0.42857E-02   -0.26540E-03 14473   0.542E-02    0.287E-01
RMM:  25    -0.691822272031E+03    0.65366E-03   -0.35083E-04 10439   0.309E-02    0.294E-01
RMM:  26    -0.691822354167E+03   -0.82136E-04   -0.17836E-04  9442   0.229E-02
   2 F= -.69182235E+03 E0= -.69122278E+03  d E =0.138891E+02  mag=     0.1454
       N       E                     dE             d eps       ncg     rms          rms(c)
DAV:   1    -0.695850801635E+03   -0.40285E+01   -0.26296E+03 14992   0.598E+01    0.204E+01
RMM:   2    -0.744287137983E+03   -0.48436E+02   -0.21540E+02 14892   0.148E+01    0.664E+01
RMM:   3    -0.721982001126E+03    0.22305E+02   -0.36304E+01 15199   0.736E+00    0.320E+01
RMM:   4    -0.730178500750E+03   -0.81965E+01   -0.50917E+00 14913   0.374E+00    0.478E+01
RMM:   5    -0.709850550432E+03    0.20328E+02   -0.33266E+00 15110   0.296E+00    0.148E+01
RMM:   6    -0.708570589402E+03    0.12800E+01   -0.28919E+00 15796   0.227E+00    0.138E+01
RMM:   7    -0.707698976894E+03    0.87161E+00   -0.13403E+00 16168   0.147E+00    0.906E+00
RMM:   8    -0.707594124695E+03    0.10485E+00   -0.10523E+00 16367   0.123E+00    0.591E+00
RMM:   9    -0.707404697139E+03    0.18943E+00   -0.21930E-01 15041   0.806E-01    0.482E+00
RMM:  10    -0.707401749843E+03    0.29473E-02   -0.14608E-01 15417   0.557E-01    0.415E+00
RMM:  11    -0.707333856379E+03    0.67893E-01   -0.49429E-02 15199   0.377E-01    0.263E+00
RMM:  12    -0.707334465326E+03   -0.60895E-03   -0.23007E-02 15734   0.221E-01    0.244E+00
RMM:  13    -0.707325587663E+03    0.88777E-02   -0.58155E-03 16805   0.105E-01    0.226E+00
RMM:  14    -0.707323728188E+03    0.18595E-02   -0.42119E-03 14839   0.963E-02    0.213E+00
RMM:  15    -0.707306762432E+03    0.16966E-01   -0.91710E-03 16687   0.119E-01    0.150E+00
RMM:  16    -0.707303069191E+03    0.36932E-02   -0.68124E-03 16654   0.102E-01    0.131E+00
RMM:  17    -0.707302203447E+03    0.86574E-03   -0.97938E-04 14142   0.479E-02    0.122E+00
RMM:  18    -0.707305381570E+03   -0.31781E-02   -0.96508E-04 14027   0.460E-02    0.116E+00
RMM:  19    -0.707304109399E+03    0.12722E-02   -0.41276E-04 12107   0.354E-02    0.100E+00
RMM:  20    -0.707303465491E+03    0.64391E-03   -0.20073E-04  9779   0.241E-02    0.886E-01
RMM:  21    -0.707303354087E+03    0.11140E-03   -0.97970E-05  8922   0.177E-02    0.812E-01
RMM:  22    -0.707302744813E+03    0.60927E-03   -0.19525E-04  9592   0.188E-02    0.667E-01
RMM:  23    -0.707302671305E+03    0.73508E-04   -0.82570E-05  8807   0.153E-02
   3 F= -.70730267E+03 E0= -.70670073E+03  d E =-.159120E+01  mag=     0.0909
       N       E                     dE             d eps       ncg     rms          rms(c)
DAV:   1    -0.687087498139E+03    0.20215E+02   -0.12149E+03 14944   0.485E+01    0.121E+01
RMM:   2    -0.714065107860E+03   -0.26978E+02   -0.46573E+01 14848   0.911E+00    0.561E+01
RMM:   3    -0.692404849618E+03    0.21660E+02   -0.75311E+00 15010   0.419E+00    0.199E+01
RMM:   4    -0.690188021635E+03    0.22168E+01   -0.15171E+00 14947   0.227E+00    0.102E+01
RMM:   5    -0.689804850845E+03    0.38317E+00   -0.54043E-01 14959   0.134E+00    0.757E+00
RMM:   6    -0.689786761579E+03    0.18089E-01   -0.28513E-01 14920   0.937E-01    0.763E+00
RMM:   7    -0.689557678174E+03    0.22908E+00   -0.14079E-01 14875   0.706E-01    0.499E+00
RMM:   8    -0.689576504022E+03   -0.18826E-01   -0.34416E-01 16893   0.833E-01    0.451E+00
RMM:   9    -0.689448331362E+03    0.12817E+00   -0.13162E-01 15444   0.606E-01    0.165E+00
RMM:  10    -0.689440159676E+03    0.81717E-02   -0.20961E-02 14923   0.278E-01    0.126E+00
RMM:  11    -0.689435360677E+03    0.47990E-02   -0.81072E-03 15215   0.153E-01    0.916E-01
RMM:  12    -0.689433937445E+03    0.14232E-02   -0.33993E-03 14827   0.946E-02    0.866E-01
RMM:  13    -0.689431045147E+03    0.28923E-02   -0.23686E-03 14356   0.776E-02    0.391E-01
RMM:  14    -0.689431005502E+03    0.39645E-04   -0.11099E-03 14086   0.489E-02    0.273E-01
RMM:  15    -0.689431143048E+03   -0.13755E-03   -0.41721E-04 11778   0.329E-02    0.203E-01
RMM:  16    -0.689431277817E+03   -0.13477E-03   -0.14902E-04  9387   0.213E-02    0.141E-01
RMM:  17    -0.689431420577E+03   -0.14276E-03   -0.71329E-05  9002   0.158E-02    0.904E-02
RMM:  18    -0.689431742241E+03   -0.32166E-03   -0.49620E-05  8755   0.111E-02    0.675E-02
RMM:  19    -0.689431959929E+03   -0.21769E-03   -0.21276E-05  8102   0.870E-03    0.456E-02
RMM:  20    -0.689432185612E+03   -0.22568E-03   -0.13621E-05  7545   0.578E-03    0.274E-02
RMM:  21    -0.689432373675E+03   -0.18806E-03   -0.64535E-06  6201   0.431E-03    0.224E-02
RMM:  22    -0.689432568968E+03   -0.19529E-03   -0.47141E-06  5528   0.375E-03    0.142E-02
RMM:  23    -0.689432760836E+03   -0.19187E-03   -0.39851E-06  5280   0.359E-03    0.104E-02
RMM:  24    -0.689432972471E+03   -0.21164E-03   -0.34150E-06  4664   0.337E-03    0.877E-03
RMM:  25    -0.689433187655E+03   -0.21518E-03   -0.35189E-06  4601   0.335E-03    0.714E-03
RMM:  26    -0.689433480630E+03   -0.29298E-03   -0.50279E-06  5011   0.352E-03    0.606E-03
RMM:  27    -0.689433691244E+03   -0.21061E-03   -0.32836E-06  4512   0.336E-03    0.632E-03
RMM:  28    -0.689433907997E+03   -0.21675E-03   -0.33724E-06  4390   0.334E-03    0.533E-03
RMM:  29    -0.689434095592E+03   -0.18759E-03   -0.28846E-06  4280   0.327E-03    0.532E-03
RMM:  30    -0.689434268371E+03   -0.17278E-03   -0.25048E-06  4119   0.323E-03    0.505E-03
RMM:  31    -0.689434359306E+03   -0.90936E-04   -0.12480E-06  3421   0.303E-03
   4 F= -.68943436E+03 E0= -.68882126E+03  d E =0.178683E+02  mag=     0.0533
       N       E                     dE             d eps       ncg     rms          rms(c)
DAV:   1    -0.707410938960E+03   -0.17977E+02   -0.84812E+02 14976   0.391E+01    0.181E+01
RMM:   2    -0.749634501802E+03   -0.42224E+02   -0.66748E+01 15001   0.882E+00    0.716E+01
RMM:   3    -0.718547093396E+03    0.31087E+02   -0.11220E+01 15202   0.490E+00    0.290E+01
RMM:   4    -0.716987459814E+03    0.15596E+01   -0.33263E+00 14870   0.302E+00    0.330E+01
RMM:   5    -0.709041067854E+03    0.79464E+01   -0.26116E+00 15395   0.240E+00    0.118E+01
RMM:   6    -0.708779359189E+03    0.26171E+00   -0.10126E+00 15317   0.149E+00    0.128E+01
RMM:   7    -0.707881059372E+03    0.89830E+00   -0.78441E-01 16109   0.109E+00    0.749E+00
RMM:   8    -0.707712537132E+03    0.16852E+00   -0.23943E-01 15870   0.710E-01    0.640E+00
RMM:   9    -0.707594948142E+03    0.11759E+00   -0.34078E-01 16538   0.704E-01    0.520E+00
RMM:  10    -0.707475029823E+03    0.11992E+00   -0.10444E-01 14970   0.586E-01    0.246E+00
RMM:  11    -0.707457936044E+03    0.17094E-01   -0.63214E-02 15296   0.407E-01    0.200E+00
RMM:  12    -0.707443428438E+03    0.14508E-01   -0.14948E-02 15043   0.218E-01    0.109E+00
RMM:  13    -0.707436214227E+03    0.72142E-02   -0.47908E-03 15112   0.122E-01    0.564E-01
RMM:  14    -0.707434997923E+03    0.12163E-02   -0.18341E-03 14813   0.659E-02    0.377E-01
RMM:  15    -0.707435152940E+03   -0.15502E-03   -0.79307E-04 13601   0.427E-02    0.388E-01
RMM:  16    -0.707434585280E+03    0.56766E-03   -0.85581E-04 13666   0.414E-02    0.208E-01
RMM:  17    -0.707434522726E+03    0.62554E-04   -0.38765E-04 11196   0.299E-02
   5 F= -.70743452E+03 E0= -.70683075E+03  d E =-.131851E+00  mag=     0.0384
       N       E                     dE             d eps       ncg     rms          rms(c)
DAV:   1    -0.707542145493E+03   -0.10756E+00   -0.60214E+00 15600   0.348E+00    0.110E+00
RMM:   2    -0.707926192952E+03   -0.38405E+00   -0.20973E-01 14856   0.688E-01    0.802E+00
RMM:   3    -0.707572149794E+03    0.35404E+00   -0.36609E-02 14856   0.390E-01    0.194E+00
RMM:   4    -0.707565942826E+03    0.62070E-02   -0.13322E-02 14861   0.222E-01    0.170E+00
RMM:   5    -0.707551040754E+03    0.14902E-01   -0.55117E-03 14965   0.129E-01    0.838E-01
RMM:   6    -0.707549236217E+03    0.18045E-02   -0.29177E-03 14809   0.803E-02    0.614E-01
RMM:   7    -0.707548143678E+03    0.10925E-02   -0.15149E-03 13825   0.594E-02    0.363E-01
RMM:   8    -0.707548100406E+03    0.43272E-04   -0.11671E-03 14005   0.486E-02    0.294E-01
RMM:   9    -0.707547741902E+03    0.35850E-03   -0.30226E-04 11078   0.359E-02    0.142E-01
RMM:  10    -0.707547773197E+03   -0.31295E-04   -0.95964E-05  8869   0.187E-02
   6 F= -.70754777E+03 E0= -.70694398E+03  d E =-.245102E+00  mag=     0.0329
       N       E                     dE             d eps       ncg     rms          rms(c)
DAV:   1    -0.707551327799E+03   -0.35859E-02   -0.10349E-01 15552   0.454E-01    0.232E-01
RMM:   2    -0.707591867884E+03   -0.40540E-01   -0.57176E-03 14837   0.108E-01    0.254E+00
RMM:   3    -0.707551257746E+03    0.40610E-01   -0.21210E-03 14292   0.987E-02    0.378E-01
RMM:   4    -0.707551328063E+03   -0.70316E-04   -0.54779E-04 12393   0.484E-02    0.123E-01
RMM:   5    -0.707551316623E+03    0.11439E-04   -0.17005E-04  9072   0.243E-02    0.785E-02
RMM:   6    -0.707551315948E+03    0.67538E-06   -0.60377E-05  8153   0.151E-02    0.574E-02
RMM:   7    -0.707551354345E+03   -0.38397E-04   -0.34139E-05  7696   0.101E-02    0.458E-02
RMM:   8    -0.707551378193E+03   -0.23848E-04   -0.15395E-05  7416   0.741E-03
   7 F= -.70755138E+03 E0= -.70694771E+03  d E =-.248707E+00  mag=     0.0292
       N       E                     dE             d eps       ncg     rms          rms(c)
DAV:   1    -0.706023279792E+03    0.15281E+01   -0.31819E+02 14848   0.239E+01    0.537E+00
RMM:   2    -0.709668133336E+03   -0.36449E+01   -0.63064E+00 14848   0.488E+00    0.215E+01
RMM:   3    -0.706975113110E+03    0.26930E+01   -0.18540E+00 16283   0.209E+00    0.775E+00
RMM:   4    -0.706740678316E+03    0.23443E+00   -0.36888E-01 15251   0.111E+00    0.485E+00
RMM:   5    -0.706706111678E+03    0.34567E-01   -0.15779E-01 14963   0.724E-01    0.479E+00
RMM:   6    -0.706649392343E+03    0.56719E-01   -0.63747E-02 14925   0.442E-01    0.334E+00
RMM:   7    -0.706708156755E+03   -0.58764E-01   -0.11355E-01 16415   0.490E-01    0.432E+00
RMM:   8    -0.706608935090E+03    0.99222E-01   -0.56706E-02 15452   0.381E-01    0.171E+00
RMM:   9    -0.706597792175E+03    0.11143E-01   -0.15666E-02 14936   0.236E-01    0.112E+00
RMM:  10    -0.706595324470E+03    0.24677E-02   -0.51159E-03 15451   0.121E-01    0.751E-01
RMM:  11    -0.706593080782E+03    0.22437E-02   -0.22234E-03 14594   0.816E-02    0.537E-01
RMM:  12    -0.706592158976E+03    0.92181E-03   -0.29786E-03 14727   0.730E-02    0.440E-01
RMM:  13    -0.706591409045E+03    0.74993E-03   -0.12157E-03 14335   0.536E-02    0.233E-01
RMM:  14    -0.706591173920E+03    0.23513E-03   -0.44688E-04 12308   0.339E-02    0.878E-02
RMM:  15    -0.706591184188E+03   -0.10268E-04   -0.10231E-04  9035   0.191E-02
   8 F= -.70659118E+03 E0= -.70598458E+03  d E =0.960194E+00  mag=     0.0231
       N       E                     dE             d eps       ncg     rms          rms(c)
DAV:   1    -0.707369163020E+03   -0.77799E+00   -0.17136E+02 14912   0.175E+01    0.450E+00
RMM:   2    -0.709523815329E+03   -0.21547E+01   -0.34379E+00 14848   0.352E+00    0.189E+01
RMM:   3    -0.708580203536E+03    0.94361E+00   -0.87248E-01 15642   0.156E+00    0.116E+01
RMM:   4    -0.707720583862E+03    0.85962E+00   -0.20537E-01 15009   0.909E-01    0.339E+00
RMM:   5    -0.707716917471E+03    0.36664E-02   -0.10028E-01 14916   0.572E-01    0.402E+00
RMM:   6    -0.707657218261E+03    0.59699E-01   -0.57345E-02 14926   0.405E-01    0.223E+00
RMM:   7    -0.707673995014E+03   -0.16777E-01   -0.48709E-02 15457   0.336E-01    0.234E+00
RMM:   8    -0.707654080386E+03    0.19915E-01   -0.23667E-02 14991   0.268E-01    0.168E+00
RMM:   9    -0.707644056874E+03    0.10024E-01   -0.10685E-02 15007   0.177E-01    0.881E-01
RMM:  10    -0.707641121754E+03    0.29351E-02   -0.27624E-03 14701   0.994E-02    0.558E-01
RMM:  11    -0.707640135395E+03    0.98636E-03   -0.10593E-03 14217   0.496E-02    0.436E-01
RMM:  12    -0.707639525162E+03    0.61023E-03   -0.80340E-04 13557   0.412E-02    0.355E-01
RMM:  13    -0.707639128394E+03    0.39677E-03   -0.13480E-03 14690   0.487E-02    0.184E-01
RMM:  14    -0.707639061038E+03    0.67357E-04   -0.29770E-04 11022   0.294E-02
   9 F= -.70763906E+03 E0= -.70703433E+03  d E =-.876828E-01  mag=     0.0189
       N       E                     dE             d eps       ncg     rms          rms(c)
DAV:   1    -0.707674452816E+03   -0.35324E-01   -0.16183E+00 15984   0.172E+00    0.431E-01
RMM:   2    -0.707727268458E+03   -0.52816E-01   -0.32844E-02 14857   0.342E-01    0.294E+00
RMM:   3    -0.707679465703E+03    0.47803E-01   -0.85025E-03 15193   0.170E-01    0.778E-01
RMM:   4    -0.707677259956E+03    0.22057E-02   -0.21646E-03 14781   0.936E-02    0.277E-01
RMM:   5    -0.707677686946E+03   -0.42699E-03   -0.85674E-04 13885   0.524E-02    0.433E-01
RMM:   6    -0.707678339154E+03   -0.65221E-03   -0.69904E-04 13571   0.425E-02    0.511E-01
RMM:   7    -0.707677303033E+03    0.10361E-02   -0.56765E-04 12760   0.391E-02    0.288E-01
RMM:   8    -0.707676948344E+03    0.35469E-03   -0.27290E-04 10746   0.276E-02    0.125E-01
RMM:   9    -0.707676947152E+03    0.11921E-05   -0.11222E-04  8776   0.215E-02
  10 F= -.70767695E+03 E0= -.70707295E+03  d E =-.125569E+00  mag=     0.0170
       N       E                     dE             d eps       ncg     rms          rms(c)
DAV:   1    -0.707666042886E+03    0.10905E-01   -0.30029E+00 15664   0.235E+00    0.536E-01
RMM:   2    -0.707751405471E+03   -0.85363E-01   -0.60289E-02 14853   0.461E-01    0.373E+00
RMM:   3    -0.707670694316E+03    0.80711E-01   -0.14946E-02 15448   0.220E-01    0.565E-01
RMM:   4    -0.707672588387E+03   -0.18941E-02   -0.35961E-03 15537   0.111E-01    0.636E-01
RMM:   5    -0.707673835979E+03   -0.12476E-02   -0.17502E-03 14412   0.750E-02    0.796E-01
RMM:   6    -0.707673012993E+03    0.82299E-03   -0.12679E-03 14087   0.593E-02    0.652E-01
RMM:   7    -0.707672108756E+03    0.90424E-03   -0.77435E-04 13506   0.445E-02    0.431E-01
RMM:   8    -0.707670978429E+03    0.11303E-02   -0.40085E-04 11705   0.333E-02    0.167E-01
RMM:   9    -0.707670963214E+03    0.15215E-04   -0.11551E-04  8894   0.220E-02
  11 F= -.70767096E+03 E0= -.70706705E+03  d E =-.119585E+00  mag=     0.0152
       N       E                     dE             d eps       ncg     rms          rms(c)
DAV:   1    -0.707686164730E+03   -0.15186E-01   -0.11588E+00 15808   0.146E+00    0.322E-01
RMM:   2    -0.707698516733E+03   -0.12352E-01   -0.21530E-02 14850   0.280E-01    0.145E+00
RMM:   3    -0.707688716905E+03    0.97998E-02   -0.53867E-03 15890   0.123E-01    0.460E-01
RMM:   4    -0.707689624588E+03   -0.90768E-03   -0.12325E-03 14719   0.624E-02    0.587E-01
RMM:   5    -0.707688992652E+03    0.63194E-03   -0.64403E-04 13252   0.458E-02    0.514E-01
RMM:   6    -0.707688400274E+03    0.59238E-03   -0.69644E-04 13416   0.427E-02    0.386E-01
RMM:   7    -0.707687811423E+03    0.58885E-03   -0.51858E-04 12107   0.360E-02    0.131E-01
RMM:   8    -0.707687823202E+03   -0.11779E-04   -0.16738E-04  9021   0.234E-02
  12 F= -.70768782E+03 E0= -.70708377E+03  d E =-.136445E+00  mag=     0.0138
       N       E                     dE             d eps       ncg     rms          rms(c)
DAV:   1    -0.707671014844E+03    0.16797E-01   -0.38467E+01 15360   0.815E+00    0.199E+00
RMM:   2    -0.707833672670E+03   -0.16266E+00   -0.80018E-01 14874   0.159E+00    0.451E+00
RMM:   3    -0.707877335035E+03   -0.43662E-01   -0.20406E-01 16085   0.733E-01    0.524E+00
RMM:   4    -0.707779002869E+03    0.98332E-01   -0.54755E-02 15628   0.384E-01    0.318E+00
RMM:   5    -0.707723027394E+03    0.55975E-01   -0.22004E-02 14899   0.277E-01    0.170E+00
RMM:   6    -0.707720502407E+03    0.25250E-02   -0.12677E-02 15088   0.193E-01    0.164E+00
RMM:   7    -0.707714778415E+03    0.57240E-02   -0.17834E-02 16053   0.194E-01    0.126E+00
RMM:   8    -0.707709971855E+03    0.48066E-02   -0.55758E-03 14929   0.130E-01    0.750E-01
RMM:   9    -0.707707652412E+03    0.23194E-02   -0.19894E-03 14427   0.854E-02    0.416E-01
RMM:  10    -0.707707342320E+03    0.31009E-03   -0.68153E-04 13305   0.431E-02    0.287E-01
RMM:  11    -0.707706805427E+03    0.53689E-03   -0.22090E-04 10078   0.259E-02    0.123E-01
RMM:  12    -0.707706767277E+03    0.38150E-04   -0.14222E-04  9166   0.199E-02
  13 F= -.70770677E+03 E0= -.70710073E+03  d E =-.189441E-01  mag=     0.0119
       N       E                     dE             d eps       ncg     rms          rms(c)
DAV:   1    -0.707801502250E+03   -0.94697E-01   -0.11348E+01 15296   0.441E+00    0.110E+00
RMM:   2    -0.707831111219E+03   -0.29609E-01   -0.21103E-01 14865   0.845E-01    0.179E+00
RMM:   3    -0.707868011487E+03   -0.36900E-01   -0.58291E-02 16340   0.380E-01    0.322E+00
RMM:   4    -0.707838155239E+03    0.29856E-01   -0.14718E-02 15251   0.209E-01    0.197E+00
RMM:   5    -0.707817579836E+03    0.20575E-01   -0.54912E-03 14864   0.148E-01    0.986E-01
RMM:   6    -0.707815712462E+03    0.18674E-02   -0.28813E-03 14728   0.985E-02    0.857E-01
RMM:   7    -0.707813383989E+03    0.23285E-02   -0.57451E-03 16305   0.109E-01    0.564E-01
RMM:   8    -0.707812327239E+03    0.10567E-02   -0.14767E-03 14311   0.661E-02    0.226E-01
RMM:   9    -0.707812209748E+03    0.11749E-03   -0.55564E-04 12785   0.420E-02    0.137E-01
RMM:  10    -0.707812186048E+03    0.23700E-04   -0.14561E-04  9194   0.226E-02
  14 F= -.70781219E+03 E0= -.70720714E+03  d E =-.124363E+00  mag=     0.0107
       N       E                     dE             d eps       ncg     rms          rms(c)
DAV:   1    -0.707782105485E+03    0.30104E-01   -0.75093E+00 15104   0.405E+00    0.108E+00
RMM:   2    -0.708034837289E+03   -0.25273E+00   -0.23297E-01 14864   0.791E-01    0.686E+00
RMM:   3    -0.707812557408E+03    0.22228E+00   -0.39836E-02 15233   0.373E-01    0.234E+00
RMM:   4    -0.707847478022E+03   -0.34921E-01   -0.10659E-02 14918   0.202E-01    0.327E+00
RMM:   5    -0.707803554713E+03    0.43923E-01   -0.12369E-02 15523   0.165E-01    0.197E+00
RMM:   6    -0.707794085502E+03    0.94692E-02   -0.74108E-03 15744   0.134E-01    0.134E+00
RMM:   7    -0.707790129808E+03    0.39557E-02   -0.43211E-03 14910   0.981E-02    0.635E-01
RMM:   8    -0.707789861167E+03    0.26864E-03   -0.16286E-03 14270   0.651E-02    0.494E-01
RMM:   9    -0.707789599517E+03    0.26165E-03   -0.53587E-04 12518   0.448E-02    0.407E-01
RMM:  10    -0.707789478930E+03    0.12059E-03   -0.21120E-04 10012   0.264E-02    0.358E-01
RMM:  11    -0.707789283992E+03    0.19494E-03   -0.14184E-04  9220   0.201E-02    0.267E-01
RMM:  12    -0.707789102551E+03    0.18144E-03   -0.16237E-04  9111   0.200E-02    0.125E-01
RMM:  13    -0.707789084629E+03    0.17922E-04   -0.59142E-05  8569   0.151E-02
  15 F= -.70778908E+03 E0= -.70718236E+03  d E =0.231014E-01  mag=     0.0093
       N       E                     dE             d eps       ncg     rms          rms(c)
DAV:   1    -0.707870190966E+03   -0.81088E-01   -0.25739E+00 15328   0.237E+00    0.632E-01
RMM:   2    -0.707986500327E+03   -0.11631E+00   -0.77205E-02 14868   0.461E-01    0.455E+00
RMM:   3    -0.707877845225E+03    0.10866E+00   -0.13469E-02 15008   0.231E-01    0.132E+00
RMM:   4    -0.707883451441E+03   -0.56062E-02   -0.35430E-03 14779   0.122E-01    0.151E+00
RMM:   5    -0.707879925677E+03    0.35258E-02   -0.22534E-03 14718   0.796E-02    0.130E+00
RMM:   6    -0.707875972467E+03    0.39532E-02   -0.19492E-03 14996   0.715E-02    0.965E-01
RMM:   7    -0.707872840805E+03    0.31317E-02   -0.18936E-03 15112   0.627E-02    0.338E-01
RMM:   8    -0.707872619827E+03    0.22098E-03   -0.57870E-04 12914   0.389E-02    0.200E-01
RMM:   9    -0.707872584633E+03    0.35194E-04   -0.19357E-04  9447   0.276E-02
  16 F= -.70787258E+03 E0= -.70726704E+03  d E =-.603986E-01  mag=     0.0086
       N       E                     dE             d eps       ncg     rms          rms(c)
DAV:   1    -0.707865566016E+03    0.70538E-02   -0.16568E+00 15440   0.180E+00    0.441E-01
RMM:   2    -0.707871872313E+03   -0.63063E-02   -0.33139E-02 14848   0.316E-01    0.101E+00
RMM:   3    -0.707873955613E+03   -0.20833E-02   -0.60356E-03 15952   0.124E-01    0.111E+00
RMM:   4    -0.707871060005E+03    0.28956E-02   -0.14215E-03 14010   0.548E-02    0.896E-01
RMM:   5    -0.707875527905E+03   -0.44679E-02   -0.13947E-03 14647   0.584E-02    0.135E+00
RMM:   6    -0.707875045363E+03    0.48254E-03   -0.29910E-04 10602   0.314E-02    0.131E+00
RMM:   7    -0.707871502760E+03    0.35426E-02   -0.15873E-04  9117   0.216E-02    0.110E+00
RMM:   8    -0.707871105952E+03    0.39681E-03   -0.10749E-04  8624   0.174E-02    0.110E+00
RMM:   9    -0.707873987309E+03   -0.28814E-02   -0.13328E-03 14573   0.500E-02    0.159E+00
RMM:  10    -0.707870540184E+03    0.34471E-02   -0.66738E-03 20858   0.113E-01    0.610E-01
RMM:  11    -0.707875360168E+03   -0.48200E-02   -0.69151E-03 22393   0.113E-01    0.120E+00
RMM:  12    -0.707872826086E+03    0.25341E-02   -0.13980E-03 14917   0.563E-02    0.102E+00
RMM:  13    -0.707870333921E+03    0.24922E-02   -0.19208E-03 16172   0.628E-02    0.661E-01
RMM:  14    -0.707869329910E+03    0.10040E-02   -0.77646E-04 13451   0.423E-02    0.467E-01
RMM:  15    -0.707868793382E+03    0.53653E-03   -0.85878E-04 14051   0.432E-02    0.367E-01
RMM:  16    -0.707868643548E+03    0.14983E-03   -0.62577E-04 12512   0.378E-02    0.395E-01
RMM:  17    -0.707868661385E+03   -0.17836E-04   -0.19888E-04  9377   0.228E-02
  17 F= -.70786866E+03 E0= -.70726231E+03  d E =0.392325E-02  mag=     0.0078
       N       E                     dE             d eps       ncg     rms          rms(c)
DAV:   1    -0.707888149198E+03   -0.19506E-01   -0.47926E-01 15648   0.965E-01    0.467E-01
RMM:   2    -0.707929331058E+03   -0.41182E-01   -0.13718E-02 14848   0.204E-01    0.258E+00
RMM:   3    -0.707894874086E+03    0.34457E-01   -0.43958E-03 14810   0.131E-01    0.108E+00
RMM:   4    -0.707890679352E+03    0.41947E-02   -0.18550E-03 14400   0.841E-02    0.604E-01
RMM:   5    -0.707888779549E+03    0.18998E-02   -0.75766E-04 13283   0.520E-02    0.234E-01
RMM:   6    -0.707888890195E+03   -0.11065E-03   -0.37051E-04 11632   0.339E-02    0.267E-01
RMM:   7    -0.707888525098E+03    0.36510E-03   -0.23116E-04  9884   0.296E-02    0.938E-02
RMM:   8    -0.707888516269E+03    0.88292E-05   -0.75764E-05  8367   0.172E-02
  18 F= -.70788852E+03 E0= -.70728279E+03  d E =-.159316E-01  mag=     0.0072
       N       E                     dE             d eps       ncg     rms          rms(c)
DAV:   1    -0.707900931833E+03   -0.12407E-01   -0.30639E-01 15440   0.737E-01    0.205E-01
RMM:   2    -0.707904604332E+03   -0.36725E-02   -0.60268E-03 14856   0.156E-01    0.731E-01
RMM:   3    -0.707901464830E+03    0.31395E-02   -0.16076E-03 15712   0.661E-02    0.228E-01
RMM:   4    -0.707903204828E+03   -0.17400E-02   -0.45718E-04 12798   0.378E-02    0.598E-01
RMM:   5    -0.707902027254E+03    0.11776E-02   -0.20610E-04  9526   0.292E-02    0.369E-01
RMM:   6    -0.707901555300E+03    0.47195E-03   -0.21085E-04  9515   0.244E-02    0.247E-01
RMM:   7    -0.707901402555E+03    0.15274E-03   -0.13848E-04  8619   0.216E-02    0.143E-01
RMM:   8    -0.707901350340E+03    0.52216E-04   -0.55043E-05  8268   0.148E-02
  19 F= -.70790135E+03 E0= -.70729563E+03  d E =-.128341E-01  mag=     0.0067
       N       E                     dE             d eps       ncg     rms          rms(c)
DAV:   1    -0.707902818393E+03   -0.14158E-02   -0.86440E-02 15504   0.390E-01    0.139E-01
RMM:   2    -0.707906029560E+03   -0.32112E-02   -0.17675E-03 14762   0.829E-02    0.693E-01
RMM:   3    -0.707904823547E+03    0.12060E-02   -0.67116E-04 13537   0.472E-02    0.589E-01
RMM:   4    -0.707903556398E+03    0.12671E-02   -0.20026E-04  9587   0.309E-02    0.333E-01
RMM:   5    -0.707903105304E+03    0.45109E-03   -0.70441E-05  8372   0.180E-02    0.207E-01
RMM:   6    -0.707903000822E+03    0.10448E-03   -0.42160E-05  8213   0.122E-02    0.129E-01
RMM:   7    -0.707902972794E+03    0.28028E-04   -0.40986E-05  8063   0.114E-02    0.715E-02
RMM:   8    -0.707902964669E+03    0.81249E-05   -0.18726E-05  7632   0.858E-03
  20 F= -.70790296E+03 E0= -.70729735E+03  d E =-.144484E-01  mag=     0.0062
       N       E                     dE             d eps       ncg     rms          rms(c)
DAV:   1    -0.707909827352E+03   -0.68546E-02   -0.21131E-01 15392   0.590E-01    0.162E-01
RMM:   2    -0.707911424548E+03   -0.15972E-02   -0.44881E-03 14846   0.124E-01    0.498E-01
RMM:   3    -0.707910359330E+03    0.10652E-02   -0.11701E-03 14663   0.537E-02    0.246E-01
RMM:   4    -0.707911289553E+03   -0.93022E-03   -0.32113E-04 11160   0.321E-02    0.454E-01
RMM:   5    -0.707910319038E+03    0.97052E-03   -0.18380E-04  9412   0.273E-02    0.261E-01
RMM:   6    -0.707910255131E+03    0.63907E-04   -0.16639E-04  8986   0.213E-02    0.211E-01
RMM:   7    -0.707910037997E+03    0.21713E-03   -0.96254E-05  8332   0.183E-02    0.763E-02
RMM:   8    -0.707910048532E+03   -0.10535E-04   -0.36125E-05  8106   0.119E-02
  21 F= -.70791005E+03 E0= -.70730431E+03  d E =-.708386E-02  mag=     0.0058
       N       E                     dE             d eps       ncg     rms          rms(c)
DAV:   1    -0.707910327736E+03   -0.28974E-03   -0.13171E-02 15504   0.148E-01    0.604E-02
RMM:   2    -0.707910529330E+03   -0.20159E-03   -0.35826E-04 10861   0.344E-02    0.184E-01
RMM:   3    -0.707910423774E+03    0.10556E-03   -0.92623E-05  8193   0.206E-02    0.121E-01
RMM:   4    -0.707910510017E+03   -0.86243E-04   -0.41460E-05  8060   0.119E-02    0.172E-01
RMM:   5    -0.707910346949E+03    0.16307E-03   -0.16145E-05  7660   0.927E-03    0.508E-02
RMM:   6    -0.707910347714E+03   -0.76587E-06   -0.68290E-06  6615   0.514E-03    0.403E-02
RMM:   7    -0.707910349963E+03   -0.22484E-05   -0.54845E-06  6370   0.481E-03    0.304E-02
RMM:   8    -0.707910346228E+03    0.37350E-05   -0.15121E-06  4614   0.340E-03
  22 F= -.70791035E+03 E0= -.70730463E+03  d E =-.738156E-02  mag=     0.0054
       N       E                     dE             d eps       ncg     rms          rms(c)
DAV:   1    -0.707918565399E+03   -0.82154E-02   -0.20159E-01 15360   0.539E-01    0.146E-01
RMM:   2    -0.707919662949E+03   -0.10976E-02   -0.35286E-03 14805   0.122E-01    0.418E-01
RMM:   3    -0.707918972568E+03    0.69038E-03   -0.10383E-03 14266   0.495E-02    0.238E-01
RMM:   4    -0.707919805654E+03   -0.83309E-03   -0.21247E-04  9447   0.267E-02    0.421E-01
RMM:   5    -0.707919252282E+03    0.55337E-03   -0.19492E-04  9384   0.260E-02    0.311E-01
RMM:   6    -0.707918980571E+03    0.27171E-03   -0.15417E-04  8693   0.216E-02    0.228E-01
RMM:   7    -0.707918845228E+03    0.13534E-03   -0.16547E-04  8816   0.215E-02    0.124E-01
RMM:   8    -0.707918792031E+03    0.53198E-04   -0.45435E-05  8197   0.144E-02
  23 F= -.70791879E+03 E0= -.70731275E+03  d E =-.844580E-02  mag=     0.0050
       N       E                     dE             d eps       ncg     rms          rms(c)
DAV:   1    -0.707924411950E+03   -0.55667E-02   -0.85829E-01 15232   0.111E+00    0.305E-01
RMM:   2    -0.707930628097E+03   -0.62161E-02   -0.15148E-02 14856   0.251E-01    0.101E+00
RMM:   3    -0.707926379035E+03    0.42491E-02   -0.46390E-03 16882   0.103E-01    0.523E-01
RMM:   4    -0.707930106410E+03   -0.37274E-02   -0.84717E-04 14053   0.502E-02    0.907E-01
RMM:   5    -0.707926780762E+03    0.33256E-02   -0.88144E-04 14013   0.492E-02    0.584E-01
RMM:   6    -0.707926426232E+03    0.35453E-03   -0.10629E-03 14641   0.498E-02    0.434E-01
RMM:   7    -0.707925535608E+03    0.89062E-03   -0.46008E-04 12676   0.350E-02    0.186E-01
RMM:   8    -0.707925563487E+03   -0.27878E-04   -0.13320E-04  8918   0.219E-02
  24 F= -.70792556E+03 E0= -.70731886E+03  d E =-.152173E-01  mag=     0.0046
       N       E                     dE             d eps       ncg     rms          rms(c)
DAV:   1    -0.707931823773E+03   -0.62882E-02   -0.19792E-01 15472   0.534E-01    0.212E-01
RMM:   2    -0.707933238350E+03   -0.14146E-02   -0.37741E-03 14818   0.120E-01    0.465E-01
RMM:   3    -0.707933709288E+03   -0.47094E-03   -0.11452E-03 14310   0.593E-02    0.546E-01
RMM:   4    -0.707932432172E+03    0.12771E-02   -0.34313E-04 10937   0.300E-02    0.291E-01
RMM:   5    -0.707932873751E+03   -0.44158E-03   -0.18514E-04  9297   0.247E-02    0.397E-01
RMM:   6    -0.707932618672E+03    0.25508E-03   -0.14827E-04  8959   0.239E-02    0.322E-01
RMM:   7    -0.707932115717E+03    0.50296E-03   -0.12368E-04  8424   0.203E-02    0.133E-01
RMM:   8    -0.707932105925E+03    0.97915E-05   -0.57114E-05  8234   0.143E-02
  25 F= -.70793211E+03 E0= -.70732539E+03  d E =-.654244E-02  mag=     0.0043
       N       E                     dE             d eps       ncg     rms          rms(c)
DAV:   1    -0.707934184064E+03   -0.20683E-02   -0.37804E-01 15328   0.735E-01    0.217E-01
RMM:   2    -0.707937810890E+03   -0.36268E-02   -0.64297E-03 14840   0.159E-01    0.825E-01
RMM:   3    -0.707935611527E+03    0.21994E-02   -0.18930E-03 15871   0.671E-02    0.520E-01
RMM:   4    -0.707938860025E+03   -0.32485E-02   -0.42378E-04 12500   0.358E-02    0.893E-01
RMM:   5    -0.707935216867E+03    0.36432E-02   -0.52594E-04 12496   0.379E-02    0.469E-01
RMM:   6    -0.707934862826E+03    0.35404E-03   -0.54088E-04 12473   0.360E-02    0.290E-01
RMM:   7    -0.707934676846E+03    0.18598E-03   -0.22000E-04  9777   0.250E-02    0.188E-01
RMM:   8    -0.707934721065E+03   -0.44219E-04   -0.60127E-05  8392   0.169E-02
  26 F= -.70793472E+03 E0= -.70732762E+03  d E =-.915758E-02  mag=     0.0040
       N       E                     dE             d eps       ncg     rms          rms(c)
DAV:   1    -0.707934953303E+03   -0.27646E-03   -0.23380E-02 15680   0.183E-01    0.171E-01
RMM:   2    -0.707960480252E+03   -0.25527E-01   -0.21079E-03 14173   0.700E-02    0.202E+00
RMM:   3    -0.707934368599E+03    0.26112E-01   -0.98749E-04 13748   0.707E-02    0.229E-01
RMM:   4    -0.707934745704E+03   -0.37710E-03   -0.24460E-04  9985   0.332E-02    0.526E-02
RMM:   5    -0.707934877170E+03   -0.13147E-03   -0.82455E-05  8054   0.179E-02    0.125E-01
RMM:   6    -0.707934831807E+03    0.45362E-04   -0.30574E-05  7808   0.116E-02    0.936E-02
RMM:   7    -0.707934800942E+03    0.30865E-04   -0.22011E-05  7367   0.760E-03    0.550E-02
RMM:   8    -0.707934794881E+03    0.60612E-05   -0.12098E-05  7202   0.701E-03
  27 F= -.70793479E+03 E0= -.70732789E+03  d E =-.923139E-02  mag=     0.0037
       N       E                     dE             d eps       ncg     rms          rms(c)
DAV:   1    -0.707938078515E+03   -0.32776E-02   -0.58770E-02 15408   0.336E-01    0.895E-02
RMM:   2    -0.707940463739E+03   -0.23852E-02   -0.14306E-03 14313   0.686E-02    0.660E-01
RMM:   3    -0.707938161913E+03    0.23018E-02   -0.28496E-04 10284   0.344E-02    0.185E-01
RMM:   4    -0.707938527577E+03   -0.36566E-03   -0.10909E-04  8317   0.209E-02    0.289E-01
RMM:   5    -0.707938325115E+03    0.20246E-03   -0.42335E-05  8036   0.136E-02    0.222E-01
RMM:   6    -0.707938219841E+03    0.10527E-03   -0.43174E-05  7881   0.113E-02    0.167E-01
RMM:   7    -0.707938126605E+03    0.93236E-04   -0.28111E-05  7714   0.102E-02    0.747E-02
RMM:   8    -0.707938120502E+03    0.61033E-05   -0.13468E-05  7203   0.692E-03
  28 F= -.70793812E+03 E0= -.70733120E+03  d E =-.332562E-02  mag=     0.0034
       N       E                     dE             d eps       ncg     rms          rms(c)
DAV:   1    -0.707938411494E+03   -0.28489E-03   -0.92182E-03 15568   0.134E-01    0.535E-02
RMM:   2    -0.707938926098E+03   -0.51460E-03   -0.22105E-04  9058   0.274E-02    0.273E-01
RMM:   3    -0.707938660144E+03    0.26595E-03   -0.10051E-04  8064   0.199E-02    0.227E-01
RMM:   4    -0.707938518470E+03    0.14167E-03   -0.27403E-05  7982   0.124E-02    0.135E-01
RMM:   5    -0.707938438032E+03    0.80438E-04   -0.75675E-06  6968   0.610E-03    0.890E-02
RMM:   6    -0.707938434553E+03    0.34789E-05   -0.54790E-06  6326   0.474E-03    0.612E-02
RMM:   7    -0.707938427550E+03    0.70028E-05   -0.42427E-06  6264   0.424E-03    0.426E-02
RMM:   8    -0.707938428361E+03   -0.81077E-06   -0.15028E-06  4540   0.355E-03
  29 F= -.70793843E+03 E0= -.70733146E+03  d E =-.363348E-02  mag=     0.0031
       N       E                     dE             d eps       ncg     rms          rms(c)
DAV:   1    -0.707941744671E+03   -0.33171E-02   -0.49937E-02 15312   0.272E-01    0.912E-02
RMM:   2    -0.707942326003E+03   -0.58133E-03   -0.88626E-04 13811   0.571E-02    0.306E-01
RMM:   3    -0.707942686171E+03   -0.36017E-03   -0.27739E-04 10152   0.298E-02    0.400E-01
RMM:   4    -0.707941969003E+03    0.71717E-03   -0.75913E-05  8173   0.203E-02    0.196E-01
RMM:   5    -0.707941799674E+03    0.16933E-03   -0.31038E-05  7897   0.101E-02    0.104E-01
RMM:   6    -0.707941816392E+03   -0.16718E-04   -0.25837E-05  7771   0.938E-03    0.820E-02
RMM:   7    -0.707941844565E+03   -0.28173E-04   -0.28321E-05  7858   0.987E-03    0.926E-02
RMM:   8    -0.707941839709E+03    0.48563E-05   -0.10954E-05  6986   0.669E-03
  30 F= -.70794184E+03 E0= -.70733464E+03  d E =-.341135E-02  mag=     0.0029
       N       E                     dE             d eps       ncg     rms          rms(c)
DAV:   1    -0.707944761928E+03   -0.29174E-02   -0.35036E-01 15280   0.720E-01    0.228E-01
RMM:   2    -0.707947083621E+03   -0.23217E-02   -0.60055E-03 14836   0.149E-01    0.616E-01
RMM:   3    -0.707950121481E+03   -0.30379E-02   -0.16697E-03 14726   0.738E-02    0.935E-01
RMM:   4    -0.707946338790E+03    0.37827E-02   -0.52019E-04 12179   0.420E-02    0.494E-01
RMM:   5    -0.707946016184E+03    0.32261E-03   -0.16769E-04  9246   0.233E-02    0.415E-01
RMM:   6    -0.707945435874E+03    0.58031E-03   -0.14183E-04  8946   0.217E-02    0.279E-01
RMM:   7    -0.707945330645E+03    0.10523E-03   -0.22827E-04  9614   0.254E-02    0.180E-01
RMM:   8    -0.707945234442E+03    0.96204E-04   -0.86622E-05  8334   0.181E-02
  31 F= -.70794523E+03 E0= -.70733742E+03  d E =-.680608E-02  mag=     0.0026
       N       E                     dE             d eps       ncg     rms          rms(c)
DAV:   1    -0.707948116795E+03   -0.27861E-02   -0.57447E-02 15472   0.269E-01    0.137E-01
RMM:   2    -0.707953464754E+03   -0.53480E-02   -0.13631E-03 14597   0.663E-02    0.902E-01
RMM:   3    -0.707949374097E+03    0.40907E-02   -0.57987E-04 13016   0.461E-02    0.503E-01
RMM:   4    -0.707948537426E+03    0.83667E-03   -0.17089E-04  9225   0.282E-02    0.257E-01
RMM:   5    -0.707948297840E+03    0.23959E-03   -0.50033E-05  8063   0.154E-02    0.194E-01
RMM:   6    -0.707948247084E+03    0.50756E-04   -0.27843E-05  7830   0.101E-02    0.137E-01
RMM:   7    -0.707948218366E+03    0.28718E-04   -0.16323E-05  7386   0.805E-03    0.113E-01
RMM:   8    -0.707948197560E+03    0.20806E-04   -0.13588E-05  7309   0.687E-03
  32 F= -.70794820E+03 E0= -.70734025E+03  d E =-.296312E-02  mag=     0.0024
       N       E                     dE             d eps       ncg     rms          rms(c)
DAV:   1    -0.707951381987E+03   -0.31636E-02   -0.51896E-01 15136   0.806E-01    0.231E-01
RMM:   2    -0.707954527256E+03   -0.31453E-02   -0.82438E-03 14844   0.169E-01    0.699E-01
RMM:   3    -0.707953505927E+03    0.10213E-02   -0.19197E-03 14975   0.730E-02    0.517E-01
RMM:   4    -0.707954625989E+03   -0.11201E-02   -0.84981E-04 13788   0.462E-02    0.707E-01
RMM:   5    -0.707953314241E+03    0.13117E-02   -0.31969E-04 11109   0.347E-02    0.474E-01
RMM:   6    -0.707952237283E+03    0.10770E-02   -0.25609E-04 10052   0.278E-02    0.295E-01
RMM:   7    -0.707951969152E+03    0.26813E-03   -0.17199E-04  9206   0.245E-02    0.139E-01
RMM:   8    -0.707951957503E+03    0.11649E-04   -0.57963E-05  8316   0.154E-02
  33 F= -.70795196E+03 E0= -.70734307E+03  d E =-.672306E-02  mag=     0.0022
       N       E                     dE             d eps       ncg     rms          rms(c)
DAV:   1    -0.707955384639E+03   -0.34155E-02   -0.57954E-02 15392   0.301E-01    0.948E-02
RMM:   2    -0.707955981252E+03   -0.59661E-03   -0.10507E-03 14309   0.613E-02    0.312E-01
RMM:   3    -0.707955629496E+03    0.35176E-03   -0.27429E-04  9918   0.289E-02    0.164E-01
RMM:   4    -0.707955912830E+03   -0.28333E-03   -0.11536E-04  8273   0.203E-02    0.294E-01
RMM:   5    -0.707955591695E+03    0.32113E-03   -0.38194E-05  8022   0.143E-02    0.164E-01
RMM:   6    -0.707955519470E+03    0.72225E-04   -0.32320E-05  7937   0.101E-02    0.119E-01
RMM:   7    -0.707955492810E+03    0.26660E-04   -0.25961E-05  7965   0.102E-02    0.717E-02
RMM:   8    -0.707955480488E+03    0.12322E-04   -0.88093E-06  7101   0.686E-03
  34 F= -.70795548E+03 E0= -.70734629E+03  d E =-.352298E-02  mag=     0.0020
       N       E                     dE             d eps       ncg     rms          rms(c)
DAV:   1    -0.707956371287E+03   -0.87848E-03   -0.39319E-02 15344   0.247E-01    0.654E-02
RMM:   2    -0.707958212242E+03   -0.18410E-02   -0.78697E-04 13867   0.513E-02    0.554E-01
RMM:   3    -0.707956393970E+03    0.18183E-02   -0.17564E-04  8922   0.266E-02    0.130E-01
RMM:   4    -0.707956487298E+03   -0.93328E-04   -0.61287E-05  8072   0.170E-02    0.153E-01
RMM:   5    -0.707956529530E+03   -0.42232E-04   -0.22317E-05  7834   0.920E-03    0.158E-01
RMM:   6    -0.707956462870E+03    0.66660E-04   -0.14866E-05  7502   0.767E-03    0.116E-01
RMM:   7    -0.707956408788E+03    0.54082E-04   -0.11692E-05  7461   0.648E-03    0.450E-02
RMM:   8    -0.707956420830E+03   -0.12041E-04   -0.45652E-06  6523   0.488E-03
  35 F= -.70795642E+03 E0= -.70734704E+03  d E =-.446333E-02  mag=     0.0019
       N       E                     dE             d eps       ncg     rms          rms(c)
DAV:   1    -0.707957406246E+03   -0.99746E-03   -0.12772E-02 15536   0.168E-01    0.513E-02
RMM:   2    -0.707958832510E+03   -0.14263E-02   -0.43764E-04 11621   0.379E-02    0.492E-01
RMM:   3    -0.707957358688E+03    0.14738E-02   -0.10816E-04  8088   0.234E-02    0.861E-02
RMM:   4    -0.707957424808E+03   -0.66120E-04   -0.29540E-05  7979   0.127E-02    0.555E-02
RMM:   5    -0.707957434113E+03   -0.93044E-05   -0.12640E-05  7323   0.683E-03    0.580E-02
RMM:   6    -0.707957426567E+03    0.75456E-05   -0.74730E-06  6829   0.560E-03    0.464E-02
RMM:   7    -0.707957419387E+03    0.71806E-05   -0.35366E-06  5810   0.410E-03    0.207E-02
RMM:   8    -0.707957420500E+03   -0.11131E-05   -0.21121E-06  4657   0.346E-03
  36 F= -.70795742E+03 E0= -.70734801E+03  d E =-.999670E-03  mag=     0.0017
       N       E                     dE             d eps       ncg     rms          rms(c)
DAV:   1    -0.707957565362E+03   -0.14598E-03   -0.52021E-03 15392   0.107E-01    0.258E-02
RMM:   2    -0.707957595669E+03   -0.30307E-04   -0.13743E-04  8239   0.225E-02    0.733E-02
RMM:   3    -0.707957582168E+03    0.13501E-04   -0.22237E-05  7855   0.110E-02    0.396E-02
RMM:   4    -0.707957625176E+03   -0.43008E-04   -0.93398E-06  7249   0.554E-03    0.971E-02
RMM:   5    -0.707957576829E+03    0.48347E-04   -0.51751E-06  6650   0.521E-03    0.449E-02
RMM:   6    -0.707957574500E+03    0.23283E-05   -0.17154E-06  4387   0.339E-03    0.304E-02
RMM:   7    -0.707957573516E+03    0.98492E-06   -0.14634E-06  3853   0.321E-03    0.108E-02
RMM:   8    -0.707957575032E+03   -0.15161E-05   -0.55827E-07  2744   0.297E-03
  37 F= -.70795758E+03 E0= -.70734818E+03  d E =-.115420E-02  mag=     0.0016
       N       E                     dE             d eps       ncg     rms          rms(c)
DAV:   1    -0.707958152361E+03   -0.57885E-03   -0.63515E-03 15520   0.115E-01    0.307E-02
RMM:   2    -0.707958273827E+03   -0.12147E-03   -0.14584E-04  8248   0.239E-02    0.136E-01
RMM:   3    -0.707958203473E+03    0.70355E-04   -0.35262E-05  7965   0.127E-02    0.999E-02
RMM:   4    -0.707958170239E+03    0.33234E-04   -0.11389E-05  7625   0.778E-03    0.398E-02
RMM:   5    -0.707958165498E+03    0.47404E-05   -0.42279E-06  6490   0.451E-03    0.242E-02
RMM:   6    -0.707958165700E+03   -0.20180E-06   -0.10449E-06  3996   0.319E-03    0.134E-02
RMM:   7    -0.707958165842E+03   -0.14186E-06   -0.60246E-07  2910   0.299E-03    0.898E-03
RMM:   8    -0.707958165788E+03    0.53398E-07   -0.15901E-07  2000   0.280E-03
  38 F= -.70795817E+03 E0= -.70734880E+03  d E =-.590757E-03  mag=     0.0014
       N       E                     dE             d eps       ncg     rms          rms(c)
DAV:   1    -0.707958489344E+03   -0.32350E-03   -0.18400E-02 15584   0.195E-01    0.505E-02
RMM:   2    -0.707958896507E+03   -0.40716E-03   -0.41580E-04 11575   0.407E-02    0.247E-01
RMM:   3    -0.707958604524E+03    0.29198E-03   -0.10536E-04  8245   0.202E-02    0.152E-01
RMM:   4    -0.707958552411E+03    0.52113E-04   -0.30426E-05  7988   0.133E-02    0.723E-02
RMM:   5    -0.707958521133E+03    0.31277E-04   -0.11827E-05  7395   0.672E-03    0.336E-02
RMM:   6    -0.707958526929E+03   -0.57954E-05   -0.48040E-06  6418   0.487E-03    0.247E-02
RMM:   7    -0.707958526113E+03    0.81550E-06   -0.36048E-06  5755   0.398E-03    0.154E-02
RMM:   8    -0.707958526921E+03   -0.80822E-06   -0.10619E-06  3654   0.322E-03
  39 F= -.70795853E+03 E0= -.70734921E+03  d E =-.951890E-03  mag=     0.0013
       N       E                     dE             d eps       ncg     rms          rms(c)
DAV:   1    -0.707958783427E+03   -0.25731E-03   -0.26454E-03 15216   0.780E-02    0.254E-02
RMM:   2    -0.707959265728E+03   -0.48230E-03   -0.86711E-05  8053   0.169E-02    0.279E-01
RMM:   3    -0.707958742727E+03    0.52300E-03   -0.34095E-05  7964   0.136E-02    0.338E-02
RMM:   4    -0.707958785612E+03   -0.42885E-04   -0.78184E-06  7356   0.615E-03    0.195E-02
RMM:   5    -0.707958788096E+03   -0.24837E-05   -0.11279E-06  4465   0.331E-03    0.172E-02
RMM:   6    -0.707958788526E+03   -0.43039E-06   -0.22399E-07  2417   0.271E-03    0.177E-02
RMM:   7    -0.707958788002E+03    0.52368E-06   -0.27630E-07  2354   0.272E-03    0.103E-02
RMM:   8    -0.707958788388E+03   -0.38548E-06   -0.30077E-07  2124   0.270E-03
  40 F= -.70795879E+03 E0= -.70734947E+03  d E =-.261467E-03  mag=     0.0012
       N       E                     dE             d eps       ncg     rms          rms(c)
DAV:   1    -0.707958884826E+03   -0.96823E-04   -0.28118E-03 15216   0.804E-02    0.149E-02
RMM:   2    -0.707958907364E+03   -0.22538E-04   -0.58669E-05  7931   0.155E-02    0.512E-02
RMM:   3    -0.707958888192E+03    0.19172E-04   -0.10666E-05  7871   0.740E-03    0.256E-02
RMM:   4    -0.707958890056E+03   -0.18641E-05   -0.22675E-06  5151   0.367E-03    0.126E-02
RMM:   5    -0.707958892252E+03   -0.21959E-05   -0.41567E-07  2675   0.284E-03    0.226E-02
RMM:   6    -0.707958891602E+03    0.64953E-06   -0.17391E-07  2176   0.275E-03    0.177E-02
RMM:   7    -0.707958892637E+03   -0.10345E-05   -0.51575E-07  2666   0.294E-03    0.143E-02
RMM:   8    -0.707958892007E+03    0.62950E-06   -0.52171E-07  2384   0.295E-03
  41 F= -.70795889E+03 E0= -.70734959E+03  d E =-.365086E-03  mag=     0.0011
       N       E                     dE             d eps       ncg     rms          rms(c)
DAV:   1    -0.707958892743E+03   -0.10598E-06   -0.47895E-05  8592   0.112E-02    0.609E-03
RMM:   2    -0.707958900635E+03   -0.78924E-05   -0.48682E-06  6955   0.504E-03    0.327E-02
RMM:   3    -0.707958891811E+03    0.88236E-05   -0.22210E-07  2390   0.270E-03    0.103E-02
RMM:   4    -0.707958894365E+03   -0.25534E-05   -0.28032E-07  2007   0.277E-03    0.140E-02
RMM:   5    -0.707958893226E+03    0.11383E-05   -0.16018E-08  1121   0.250E-03    0.433E-03
RMM:   6    -0.707958893407E+03   -0.18044E-06   -0.34113E-09   958   0.247E-03    0.169E-03
RMM:   7    -0.707958893591E+03   -0.18383E-06   -0.41427E-08  1033   0.251E-03    0.296E-03
RMM:   8    -0.707958893782E+03   -0.19152E-06   -0.32886E-08   935   0.250E-03
  42 F= -.70795889E+03 E0= -.70734960E+03  d E =-.366861E-03  mag=     0.0010
       N       E                     dE             d eps       ncg     rms          rms(c)
DAV:   1    -0.707958981255E+03   -0.87665E-04   -0.80396E-04 15056   0.402E-02    0.116E-02
RMM:   2    -0.707959002454E+03   -0.21199E-04   -0.23729E-05  7861   0.906E-03    0.645E-02
RMM:   3    -0.707958981764E+03    0.20690E-04   -0.49343E-06  6957   0.524E-03    0.289E-02
RMM:   4    -0.707958983672E+03   -0.19077E-05   -0.28933E-07  2568   0.275E-03    0.212E-02
RMM:   5    -0.707958982022E+03    0.16504E-05   -0.29812E-07  1709   0.266E-03    0.142E-02
RMM:   6    -0.707958981820E+03    0.20151E-06   -0.23355E-07  1551   0.267E-03    0.110E-02
RMM:   7    -0.707958981909E+03   -0.89101E-07   -0.38507E-07  1620   0.281E-03    0.726E-03
RMM:   8    -0.707958982057E+03   -0.14772E-06   -0.16258E-07  1219   0.276E-03
  43 F= -.70795898E+03 E0= -.70734968E+03  d E =-.882746E-04  mag=     0.0009
