       N       E                     dE             d eps       ncg     rms          rms(c)
DAV:   1     0.764207159569E+04    0.76421E+04   -0.29974E+05 15152   0.126E+03
DAV:   2     0.609188179909E+03   -0.70329E+04   -0.63505E+04 16080   0.375E+02
DAV:   3    -0.758178113219E+03   -0.13674E+04   -0.13145E+04 18640   0.166E+02
DAV:   4    -0.833321355691E+03   -0.75143E+02   -0.73273E+02 20592   0.433E+01
DAV:   5    -0.834936802353E+03   -0.16154E+01   -0.15875E+01 19264   0.587E+00    0.187E+02
RMM:   6    -0.697441900614E+03    0.13749E+03   -0.63286E+02 14894   0.403E+01    0.170E+02
RMM:   7    -0.147270849480E+04   -0.77527E+03   -0.42735E+02 16663   0.278E+01    0.384E+02
RMM:   8    -0.134669541332E+04    0.12601E+03   -0.12163E+02 19023   0.114E+01    0.364E+02
RMM:   9    -0.137839949860E+04   -0.31704E+02   -0.54157E+01 15463   0.103E+01    0.375E+02
RMM:  10    -0.117583882193E+04    0.20256E+03   -0.63560E+02 22697   0.286E+01    0.346E+02
RMM:  11    -0.126330417459E+04   -0.87465E+02   -0.88437E+01 17606   0.979E+00    0.311E+02
RMM:  12    -0.124873652438E+04    0.14568E+02   -0.27540E+02 20398   0.148E+01    0.196E+02
RMM:  13    -0.117675794807E+04    0.71979E+02   -0.31923E+02 22988   0.216E+01    0.246E+02
RMM:  14    -0.906485399367E+03    0.27027E+03   -0.29679E+01 15999   0.814E+00    0.181E+02
RMM:  15    -0.704992993618E+03    0.20149E+03   -0.72792E+01 18717   0.110E+01    0.139E+02
RMM:  16    -0.642475589602E+03    0.62517E+02   -0.29689E+01 16686   0.739E+00    0.120E+02
RMM:  17    -0.645835115321E+03   -0.33595E+01   -0.18014E+01 15919   0.625E+00    0.108E+02
RMM:  18    -0.639856780202E+03    0.59783E+01   -0.38966E+00 17386   0.280E+00    0.105E+02
RMM:  19    -0.640105214393E+03   -0.24843E+00   -0.28047E+00 15214   0.263E+00    0.966E+01
RMM:  20    -0.634998918772E+03    0.51063E+01   -0.24169E+00 15622   0.238E+00    0.905E+01
RMM:  21    -0.627933164215E+03    0.70658E+01   -0.63297E+00 19001   0.359E+00    0.718E+01
RMM:  22    -0.628806977923E+03   -0.87381E+00   -0.26975E+00 16618   0.245E+00    0.635E+01
RMM:  23    -0.632749629288E+03   -0.39427E+01   -0.36344E+00 17965   0.273E+00    0.511E+01
RMM:  24    -0.637682994480E+03   -0.49334E+01   -0.14368E+00 15461   0.185E+00    0.461E+01
RMM:  25    -0.643685918526E+03   -0.60029E+01   -0.26692E+00 17102   0.231E+00    0.389E+01
RMM:  26    -0.653761467798E+03   -0.10076E+02   -0.47622E+00 19010   0.301E+00    0.275E+01
RMM:  27    -0.663494220555E+03   -0.97328E+01   -0.45699E+00 18736   0.296E+00    0.174E+01
RMM:  28    -0.668375002305E+03   -0.48808E+01   -0.19170E+00 16930   0.207E+00    0.132E+01
RMM:  29    -0.672367947611E+03   -0.39929E+01   -0.11651E+00 16031   0.162E+00    0.143E+01
RMM:  30    -0.671877692768E+03    0.49025E+00   -0.37247E-01 15056   0.995E-01    0.119E+01
RMM:  31    -0.677308041250E+03   -0.54303E+01   -0.14020E+00 17539   0.170E+00    0.129E+01
RMM:  32    -0.678561558505E+03   -0.12535E+01   -0.79907E-01 17220   0.127E+00    0.148E+01
RMM:  33    -0.679562997449E+03   -0.10014E+01   -0.52493E-01 16425   0.105E+00    0.160E+01
RMM:  34    -0.680939406771E+03   -0.13764E+01   -0.33228E-01 15917   0.874E-01    0.162E+01
RMM:  35    -0.681331667768E+03   -0.39226E+00   -0.51894E-01 17606   0.103E+00    0.177E+01
RMM:  36    -0.682727544143E+03   -0.13959E+01   -0.40767E-01 17195   0.925E-01    0.169E+01
RMM:  37    -0.683647669055E+03   -0.92012E+00   -0.33481E-01 16890   0.870E-01    0.129E+01
RMM:  38    -0.683774504947E+03   -0.12684E+00   -0.64293E-02 15680   0.394E-01    0.123E+01
RMM:  39    -0.684606864792E+03   -0.83236E+00   -0.73602E-02 15396   0.417E-01    0.131E+01
RMM:  40    -0.687046913545E+03   -0.24400E+01   -0.65213E-01 20962   0.101E+00    0.104E+01
RMM:  41    -0.688279517176E+03   -0.12326E+01   -0.22690E-01 18751   0.625E-01    0.940E+00
RMM:  42    -0.690678945692E+03   -0.23994E+01   -0.23287E-01 18838   0.641E-01    0.775E+00
RMM:  43    -0.690660771125E+03    0.18175E-01   -0.70653E-02 16195   0.387E-01    0.623E+00
RMM:  44    -0.691592950559E+03   -0.93218E+00   -0.74491E-02 16751   0.381E-01    0.603E+00
RMM:  45    -0.692456430966E+03   -0.86348E+00   -0.45317E-01 20935   0.819E-01    0.579E+00
RMM:  46    -0.692067621136E+03    0.38881E+00   -0.40336E-01 20973   0.758E-01    0.601E+00
RMM:  47    -0.692555886742E+03   -0.48827E+00   -0.87837E-02 17381   0.393E-01    0.530E+00
RMM:  48    -0.692873955913E+03   -0.31807E+00   -0.37117E-02 15794   0.288E-01    0.403E+00
RMM:  49    -0.693566225968E+03   -0.69227E+00   -0.45602E-02 16765   0.284E-01    0.340E+00
RMM:  50    -0.694023302781E+03   -0.45708E+00   -0.23402E-02 15633   0.225E-01    0.293E+00
RMM:  51    -0.694839882631E+03   -0.81658E+00   -0.83547E-02 19601   0.426E-01    0.206E+00
RMM:  52    -0.695026425890E+03   -0.18654E+00   -0.16470E-02 15520   0.196E-01    0.168E+00
RMM:  53    -0.695149005951E+03   -0.12258E+00   -0.85897E-03 15283   0.131E-01    0.166E+00
RMM:  54    -0.695178025113E+03   -0.29019E-01   -0.97230E-03 16455   0.134E-01    0.175E+00
RMM:  55    -0.695157059598E+03    0.20966E-01   -0.45925E-03 15181   0.978E-02    0.159E+00
RMM:  56    -0.695406523401E+03   -0.24946E+00   -0.32761E-02 20884   0.232E-01    0.223E+00
RMM:  57    -0.695172608322E+03    0.23392E+00   -0.37450E-03 15441   0.102E-01    0.146E+00
RMM:  58    -0.695467417241E+03   -0.29481E+00   -0.72120E-03 17225   0.111E-01    0.991E-01
RMM:  59    -0.695588563606E+03   -0.12115E+00   -0.16592E-03 14393   0.682E-02    0.773E-01
RMM:  60    -0.695721818777E+03   -0.13326E+00   -0.26862E-03 15990   0.745E-02    0.470E-01
RMM:  61    -0.695785350234E+03   -0.63531E-01   -0.18412E-03 15722   0.665E-02    0.465E-01
RMM:  62    -0.695835813348E+03   -0.50463E-01   -0.82457E-04 13658   0.488E-02    0.326E-01
RMM:  63    -0.695979298734E+03   -0.14349E+00   -0.27138E-03 15489   0.589E-02    0.412E-01
RMM:  64    -0.696084965890E+03   -0.10567E+00   -0.15018E-03 14094   0.437E-02    0.406E-01
RMM:  65    -0.696153041404E+03   -0.68076E-01   -0.12003E-03 13379   0.386E-02    0.313E-01
RMM:  66    -0.696166346146E+03   -0.13305E-01   -0.59229E-04 12504   0.355E-02    0.267E-01
RMM:  67    -0.696230369709E+03   -0.64024E-01   -0.45001E-04 11138   0.273E-02    0.266E-01
RMM:  68    -0.696260311916E+03   -0.29942E-01   -0.16025E-04  9422   0.170E-02    0.183E-01
RMM:  69    -0.696283948959E+03   -0.23637E-01   -0.12131E-04  9197   0.152E-02    0.139E-01
RMM:  70    -0.696294971365E+03   -0.11022E-01   -0.65481E-05  8866   0.123E-02    0.104E-01
RMM:  71    -0.696298043960E+03   -0.30726E-02   -0.58149E-05  8890   0.113E-02    0.537E-02
RMM:  72    -0.696303444167E+03   -0.54002E-02   -0.46430E-05  8176   0.997E-03    0.320E-02
RMM:  73    -0.696304619446E+03   -0.11753E-02   -0.16398E-05  7429   0.654E-03    0.175E-02
RMM:  74    -0.696305644683E+03   -0.10252E-02   -0.91250E-06  5903   0.443E-03    0.154E-02
RMM:  75    -0.696306261185E+03   -0.61650E-03   -0.52358E-06  5612   0.398E-03    0.109E-02
RMM:  76    -0.696306888847E+03   -0.62766E-03   -0.30619E-06  4588   0.344E-03    0.102E-02
RMM:  77    -0.696307235458E+03   -0.34661E-03   -0.22152E-06  4125   0.325E-03    0.619E-03
RMM:  78    -0.696307419104E+03   -0.18365E-03   -0.13378E-06  3427   0.302E-03    0.577E-03
RMM:  79    -0.696307846555E+03   -0.42745E-03   -0.28874E-06  4153   0.319E-03    0.433E-03
RMM:  80    -0.696308104893E+03   -0.25834E-03   -0.23775E-06  4041   0.317E-03
   1 F= -.69630810E+03 E0= -.69574159E+03  d E =-.696308E+03  mag=     3.8066
       N       E                     dE             d eps       ncg     rms          rms(c)
DAV:   1    -0.694639846875E+03    0.16680E+01   -0.33210E+02 15280   0.220E+01    0.609E+00
RMM:   2    -0.695928344585E+03   -0.12885E+01   -0.11414E+01 14848   0.417E+00    0.811E+00
RMM:   3    -0.698074924113E+03   -0.21466E+01   -0.18550E+00 15302   0.189E+00    0.195E+01
RMM:   4    -0.695710503908E+03    0.23644E+01   -0.37547E-01 15491   0.101E+00    0.359E+00
RMM:   5    -0.695691790854E+03    0.18713E-01   -0.13085E-01 14948   0.605E-01    0.323E+00
RMM:   6    -0.695682974003E+03    0.88169E-02   -0.62515E-02 14971   0.442E-01    0.227E+00
RMM:   7    -0.695697761290E+03   -0.14787E-01   -0.55285E-02 15361   0.375E-01    0.235E+00
RMM:   8    -0.695691901854E+03    0.58594E-02   -0.35029E-02 15399   0.306E-01    0.205E+00
RMM:   9    -0.695673014114E+03    0.18888E-01   -0.11127E-02 14881   0.193E-01    0.111E+00
RMM:  10    -0.695665372864E+03    0.76412E-02   -0.44811E-03 15167   0.115E-01    0.722E-01
RMM:  11    -0.695662212074E+03    0.31608E-02   -0.22281E-03 14604   0.722E-02    0.406E-01
RMM:  12    -0.695662121377E+03    0.90697E-04   -0.85645E-04 13344   0.497E-02
   2 F= -.69566212E+03 E0= -.69509525E+03  d E =0.645984E+00  mag=     3.7920
       N       E                     dE             d eps       ncg     rms          rms(c)
DAV:   1    -0.696123061029E+03   -0.46085E+00   -0.17417E+02 15040   0.166E+01    0.400E+00
RMM:   2    -0.696492787775E+03   -0.36973E+00   -0.40559E+00 14848   0.281E+00    0.292E+00
RMM:   3    -0.697186404930E+03   -0.69362E+00   -0.80019E-01 15569   0.123E+00    0.102E+01
RMM:   4    -0.696565112268E+03    0.62129E+00   -0.14557E-01 15566   0.610E-01    0.265E+00
RMM:   5    -0.696561444933E+03    0.36673E-02   -0.48702E-02 14900   0.387E-01    0.225E+00
RMM:   6    -0.696561698336E+03   -0.25340E-03   -0.33753E-02 15053   0.318E-01    0.211E+00
RMM:   7    -0.696553934374E+03    0.77640E-02   -0.21695E-02 15208   0.251E-01    0.160E+00
RMM:   8    -0.696542836190E+03    0.11098E-01   -0.93615E-03 14929   0.168E-01    0.103E+00
RMM:   9    -0.696538397059E+03    0.44391E-02   -0.33543E-03 14519   0.103E-01    0.534E-01
RMM:  10    -0.696537326209E+03    0.10708E-02   -0.13467E-03 14190   0.616E-02    0.279E-01
RMM:  11    -0.696537315551E+03    0.10658E-04   -0.50456E-04 12259   0.356E-02
   3 F= -.69653732E+03 E0= -.69597096E+03  d E =-.229211E+00  mag=     3.8027
       N       E                     dE             d eps       ncg     rms          rms(c)
DAV:   1    -0.696383622752E+03    0.15370E+00   -0.53055E+01 15120   0.932E+00    0.234E+00
RMM:   2    -0.696463456956E+03   -0.79834E-01   -0.10121E+00 14848   0.150E+00    0.162E+00
RMM:   3    -0.696620019348E+03   -0.15656E+00   -0.20071E-01 15518   0.666E-01    0.480E+00
RMM:   4    -0.696559769203E+03    0.60250E-01   -0.44477E-02 15051   0.364E-01    0.371E+00
RMM:   5    -0.696489698834E+03    0.70070E-01   -0.20074E-02 14876   0.262E-01    0.167E+00
RMM:   6    -0.696483893547E+03    0.58053E-02   -0.10733E-02 14906   0.191E-01    0.120E+00
RMM:   7    -0.696476399656E+03    0.74939E-02   -0.53702E-03 14882   0.137E-01    0.566E-01
RMM:   8    -0.696477401542E+03   -0.10019E-02   -0.26551E-03 14377   0.877E-02    0.577E-01
RMM:   9    -0.696476131497E+03    0.12700E-02   -0.11020E-03 13617   0.624E-02    0.276E-01
RMM:  10    -0.696475940713E+03    0.19078E-03   -0.47314E-04 11917   0.351E-02    0.170E-01
RMM:  11    -0.696475805698E+03    0.13501E-03   -0.16140E-04  9474   0.239E-02    0.953E-02
RMM:  12    -0.696475784740E+03    0.20958E-04   -0.73588E-05  8850   0.157E-02
   4 F= -.69647578E+03 E0= -.69590745E+03  d E =0.615308E-01  mag=     3.8023
       N       E                     dE             d eps       ncg     rms          rms(c)
DAV:   1    -0.696624195896E+03   -0.14839E+00   -0.18619E+01 15168   0.562E+00    0.126E+00
RMM:   2    -0.696658455935E+03   -0.34260E-01   -0.32156E-01 14848   0.847E-01    0.165E+00
RMM:   3    -0.696740343467E+03   -0.81888E-01   -0.55132E-02 15314   0.377E-01    0.370E+00
RMM:   4    -0.696655594374E+03    0.84749E-01   -0.13890E-02 15038   0.215E-01    0.937E-01
RMM:   5    -0.696657555238E+03   -0.19609E-02   -0.75779E-03 14880   0.152E-01    0.104E+00
RMM:   6    -0.696654950224E+03    0.26050E-02   -0.43612E-03 14911   0.123E-01    0.725E-01
RMM:   7    -0.696653147334E+03    0.18029E-02   -0.24719E-03 14295   0.830E-02    0.405E-01
RMM:   8    -0.696652780085E+03    0.36725E-03   -0.95477E-04 13370   0.576E-02    0.294E-01
RMM:   9    -0.696652548342E+03    0.23174E-03   -0.28704E-04 10636   0.321E-02    0.227E-01
RMM:  10    -0.696652523559E+03    0.24782E-04   -0.10536E-04  8931   0.186E-02
   5 F= -.69665252E+03 E0= -.69608566E+03  d E =-.115208E+00  mag=     3.8064
       N       E                     dE             d eps       ncg     rms          rms(c)
DAV:   1    -0.696653182980E+03   -0.63464E-03   -0.11571E-01 15360   0.439E-01    0.151E-01
RMM:   2    -0.696662754771E+03   -0.95718E-02   -0.28825E-03 14494   0.814E-02    0.115E+00
RMM:   3    -0.696653435513E+03    0.93193E-02   -0.73291E-04 13346   0.560E-02    0.238E-01
RMM:   4    -0.696653598794E+03   -0.16328E-03   -0.23564E-04 10032   0.273E-02    0.166E-01
RMM:   5    -0.696653512110E+03    0.86684E-04   -0.77910E-05  8445   0.191E-02    0.102E-01
RMM:   6    -0.696653516897E+03   -0.47861E-05   -0.28179E-05  8169   0.109E-02    0.574E-02
RMM:   7    -0.696653579494E+03   -0.62597E-04   -0.22575E-05  7512   0.845E-03    0.538E-02
RMM:   8    -0.696653593432E+03   -0.13938E-04   -0.97794E-06  7157   0.679E-03
   6 F= -.69665359E+03 E0= -.69608678E+03  d E =-.116278E+00  mag=     3.8074
       N       E                     dE             d eps       ncg     rms          rms(c)
DAV:   1    -0.696695818179E+03   -0.42239E-01   -0.78402E+00 15248   0.389E+00    0.944E-01
RMM:   2    -0.696715029533E+03   -0.19211E-01   -0.20731E-01 14848   0.690E-01    0.173E+00
RMM:   3    -0.696726203792E+03   -0.11174E-01   -0.28204E-02 15016   0.290E-01    0.167E+00
RMM:   4    -0.696735307628E+03   -0.91038E-02   -0.92317E-03 14932   0.165E-01    0.217E+00
RMM:   5    -0.696715316526E+03    0.19991E-01   -0.42562E-03 14864   0.125E-01    0.118E+00
RMM:   6    -0.696708986861E+03    0.63297E-02   -0.21537E-03 14150   0.877E-02    0.677E-01
RMM:   7    -0.696708358590E+03    0.62827E-03   -0.13938E-03 13894   0.640E-02    0.387E-01
RMM:   8    -0.696708407687E+03   -0.49097E-04   -0.96090E-04 13540   0.498E-02
   7 F= -.69670841E+03 E0= -.69614105E+03  d E =-.548143E-01  mag=     3.8049
       N       E                     dE             d eps       ncg     rms          rms(c)
DAV:   1    -0.696716268398E+03   -0.79098E-02   -0.70630E-01 15440   0.117E+00    0.334E-01
RMM:   2    -0.696721906676E+03   -0.56383E-02   -0.21153E-02 14848   0.220E-01    0.922E-01
RMM:   3    -0.696719108612E+03    0.27981E-02   -0.29916E-03 14640   0.109E-01    0.531E-01
RMM:   4    -0.696720647017E+03   -0.15384E-02   -0.10054E-03 13779   0.538E-02    0.757E-01
RMM:   5    -0.696717646370E+03    0.30006E-02   -0.36233E-04 10991   0.382E-02    0.262E-01
RMM:   6    -0.696717552732E+03    0.93637E-04   -0.29999E-04 10416   0.295E-02    0.231E-01
RMM:   7    -0.696717491803E+03    0.60930E-04   -0.13854E-04  8671   0.230E-02    0.136E-01
RMM:   8    -0.696717564993E+03   -0.73190E-04   -0.10443E-04  8434   0.178E-02
   8 F= -.69671756E+03 E0= -.69615037E+03  d E =-.639716E-01  mag=     3.8045
       N       E                     dE             d eps       ncg     rms          rms(c)
DAV:   1    -0.696742899031E+03   -0.25407E-01   -0.51463E+00 15280   0.318E+00    0.772E-01
RMM:   2    -0.696754858227E+03   -0.11959E-01   -0.14711E-01 14848   0.550E-01    0.129E+00
RMM:   3    -0.696763226342E+03   -0.83681E-02   -0.17937E-02 14889   0.237E-01    0.150E+00
RMM:   4    -0.696763782844E+03   -0.55650E-03   -0.56407E-03 14773   0.130E-01    0.157E+00
RMM:   5    -0.696752574170E+03    0.11209E-01   -0.24295E-03 14446   0.971E-02    0.787E-01
RMM:   6    -0.696752058536E+03    0.51563E-03   -0.13675E-03 13938   0.678E-02    0.691E-01
RMM:   7    -0.696750227294E+03    0.18312E-02   -0.92289E-04 13581   0.536E-02    0.377E-01
RMM:   8    -0.696750085519E+03    0.14178E-03   -0.85407E-04 13283   0.419E-02    0.205E-01
RMM:   9    -0.696750131122E+03   -0.45603E-04   -0.27250E-04 10754   0.307E-02
   9 F= -.69675013E+03 E0= -.69618195E+03  d E =-.325661E-01  mag=     3.8013
       N       E                     dE             d eps       ncg     rms          rms(c)
DAV:   1    -0.696753133049E+03   -0.30475E-02   -0.35304E-01 15360   0.835E-01    0.227E-01
RMM:   2    -0.696762442453E+03   -0.93094E-02   -0.10858E-02 14833   0.148E-01    0.114E+00
RMM:   3    -0.696754357725E+03    0.80847E-02   -0.15681E-03 14252   0.764E-02    0.446E-01
RMM:   4    -0.696753701447E+03    0.65628E-03   -0.48379E-04 11505   0.428E-02    0.164E-01
RMM:   5    -0.696753784502E+03   -0.83055E-04   -0.18651E-04  8957   0.260E-02    0.167E-01
RMM:   6    -0.696753793164E+03   -0.86615E-05   -0.11658E-04  8469   0.197E-02    0.154E-01
RMM:   7    -0.696753765131E+03    0.28033E-04   -0.67677E-05  8187   0.156E-02    0.860E-02
RMM:   8    -0.696753795561E+03   -0.30430E-04   -0.56785E-05  7863   0.120E-02
  10 F= -.69675380E+03 E0= -.69618588E+03  d E =-.362306E-01  mag=     3.8004
       N       E                     dE             d eps       ncg     rms          rms(c)
DAV:   1    -0.696790910243E+03   -0.37145E-01   -0.10234E+00 15312   0.123E+00    0.400E-01
RMM:   2    -0.696793682416E+03   -0.27722E-02   -0.34187E-02 14772   0.200E-01    0.682E-01
RMM:   3    -0.696803406435E+03   -0.97240E-02   -0.39774E-03 14091   0.954E-02    0.137E+00
RMM:   4    -0.696791899292E+03    0.11507E-01   -0.14330E-03 13830   0.689E-02    0.431E-01
RMM:   5    -0.696791586738E+03    0.31255E-03   -0.49392E-04 11843   0.423E-02    0.285E-01
RMM:   6    -0.696791404137E+03    0.18260E-03   -0.25637E-04  9755   0.285E-02    0.212E-01
RMM:   7    -0.696791350600E+03    0.53537E-04   -0.20155E-04  9252   0.232E-02    0.150E-01
RMM:   8    -0.696791386994E+03   -0.36394E-04   -0.12862E-04  8540   0.200E-02
  11 F= -.69679139E+03 E0= -.69622306E+03  d E =-.375914E-01  mag=     3.7980
       N       E                     dE             d eps       ncg     rms          rms(c)
DAV:   1    -0.696674216851E+03    0.11713E+00   -0.91761E+00 15264   0.372E+00    0.119E+00
RMM:   2    -0.696724697168E+03   -0.50480E-01   -0.30524E-01 14852   0.606E-01    0.282E+00
RMM:   3    -0.696751710522E+03   -0.27013E-01   -0.37932E-02 14877   0.293E-01    0.350E+00
RMM:   4    -0.696685356548E+03    0.66354E-01   -0.12691E-02 14903   0.205E-01    0.125E+00
RMM:   5    -0.696682044975E+03    0.33116E-02   -0.40929E-03 14643   0.125E-01    0.963E-01
RMM:   6    -0.696681425196E+03    0.61978E-03   -0.23033E-03 14018   0.845E-02    0.828E-01
RMM:   7    -0.696679689383E+03    0.17358E-02   -0.18851E-03 14030   0.711E-02    0.473E-01
RMM:   8    -0.696679439395E+03    0.24999E-03   -0.17746E-03 14282   0.567E-02    0.271E-01
RMM:   9    -0.696679585504E+03   -0.14611E-03   -0.49931E-04 12476   0.396E-02    0.199E-01
RMM:  10    -0.696679641511E+03   -0.56007E-04   -0.16179E-04  9156   0.242E-02
  12 F= -.69667964E+03 E0= -.69611029E+03  d E =0.741541E-01  mag=     3.7925
       N       E                     dE             d eps       ncg     rms          rms(c)
DAV:   1    -0.696801273553E+03   -0.12169E+00   -0.54801E+00 15328   0.293E+00    0.992E-01
RMM:   2    -0.696839652113E+03   -0.38379E-01   -0.20275E-01 14854   0.469E-01    0.237E+00
RMM:   3    -0.696871590000E+03   -0.31938E-01   -0.24165E-02 14881   0.237E-01    0.328E+00
RMM:   4    -0.696808945375E+03    0.62645E-01   -0.87005E-03 14856   0.174E-01    0.995E-01
RMM:   5    -0.696807216610E+03    0.17288E-02   -0.31967E-03 14235   0.103E-01    0.740E-01
RMM:   6    -0.696806253833E+03    0.96278E-03   -0.16628E-03 13896   0.687E-02    0.590E-01
RMM:   7    -0.696804785133E+03    0.14687E-02   -0.10609E-03 13451   0.537E-02    0.323E-01
RMM:   8    -0.696804784415E+03    0.71866E-06   -0.93137E-04 13345   0.449E-02
  13 F= -.69680478E+03 E0= -.69623638E+03  d E =-.509889E-01  mag=     3.7932
       N       E                     dE             d eps       ncg     rms          rms(c)
DAV:   1    -0.696833364777E+03   -0.28580E-01   -0.40586E-01 15552   0.987E-01    0.242E-01
RMM:   2    -0.696835567711E+03   -0.22029E-02   -0.10984E-02 14832   0.186E-01    0.540E-01
RMM:   3    -0.696835337338E+03    0.23037E-03   -0.17932E-03 14474   0.855E-02    0.414E-01
RMM:   4    -0.696835404053E+03   -0.66715E-04   -0.64184E-04 13298   0.438E-02    0.443E-01
RMM:   5    -0.696834430617E+03    0.97344E-03   -0.19964E-04  9195   0.288E-02    0.157E-01
RMM:   6    -0.696834568713E+03   -0.13810E-03   -0.11938E-04  8748   0.215E-02    0.170E-01
RMM:   7    -0.696834581107E+03   -0.12395E-04   -0.12210E-04  8648   0.196E-02    0.172E-01
RMM:   8    -0.696834434566E+03    0.14654E-03   -0.74498E-05  8486   0.181E-02    0.634E-02
RMM:   9    -0.696834434699E+03   -0.13297E-06   -0.24813E-05  7903   0.989E-03
  14 F= -.69683443E+03 E0= -.69626604E+03  d E =-.296503E-01  mag=     3.7920
       N       E                     dE             d eps       ncg     rms          rms(c)
DAV:   1    -0.696835635426E+03   -0.12009E-02   -0.21590E-02 15376   0.226E-01    0.651E-02
RMM:   2    -0.696837738272E+03   -0.21028E-02   -0.70805E-04 12857   0.458E-02    0.550E-01
RMM:   3    -0.696835574230E+03    0.21640E-02   -0.16647E-04  8573   0.280E-02    0.751E-02
RMM:   4    -0.696835660687E+03   -0.86458E-04   -0.46740E-05  8201   0.154E-02    0.582E-02
RMM:   5    -0.696835651764E+03    0.89236E-05   -0.13561E-05  7679   0.822E-03    0.449E-02
RMM:   6    -0.696835647780E+03    0.39835E-05   -0.66402E-06  6549   0.522E-03    0.379E-02
RMM:   7    -0.696835645667E+03    0.21131E-05   -0.48418E-06  6350   0.465E-03    0.346E-02
RMM:   8    -0.696835641997E+03    0.36696E-05   -0.28231E-06  5483   0.398E-03
  15 F= -.69683564E+03 E0= -.69626727E+03  d E =-.308576E-01  mag=     3.7907
       N       E                     dE             d eps       ncg     rms          rms(c)
DAV:   1    -0.696847836051E+03   -0.12190E-01   -0.15148E-01 15360   0.564E-01    0.119E-01
RMM:   2    -0.696849150744E+03   -0.13147E-02   -0.33207E-03 14761   0.103E-01    0.418E-01
RMM:   3    -0.696848075194E+03    0.10756E-02   -0.57964E-04 11935   0.421E-02    0.107E-01
RMM:   4    -0.696848182946E+03   -0.10775E-03   -0.14421E-04  8770   0.231E-02    0.122E-01
RMM:   5    -0.696848155417E+03    0.27529E-04   -0.77535E-05  8385   0.176E-02    0.125E-01
RMM:   6    -0.696848129229E+03    0.26188E-04   -0.42842E-05  8245   0.129E-02    0.102E-01
RMM:   7    -0.696848070873E+03    0.58357E-04   -0.25887E-05  7818   0.101E-02    0.444E-02
RMM:   8    -0.696848068032E+03    0.28406E-05   -0.10704E-05  7032   0.676E-03
  16 F= -.69684807E+03 E0= -.69627972E+03  d E =-.124260E-01  mag=     3.7889
       N       E                     dE             d eps       ncg     rms          rms(c)
DAV:   1    -0.696850560837E+03   -0.24900E-02   -0.43182E-01 15232   0.953E-01    0.197E-01
RMM:   2    -0.696853865133E+03   -0.33043E-02   -0.94960E-03 14839   0.174E-01    0.657E-01
RMM:   3    -0.696851333180E+03    0.25320E-02   -0.16609E-03 14351   0.706E-02    0.181E-01
RMM:   4    -0.696851654325E+03   -0.32115E-03   -0.42063E-04 11015   0.363E-02    0.213E-01
RMM:   5    -0.696851591135E+03    0.63190E-04   -0.20912E-04  9425   0.273E-02    0.230E-01
RMM:   6    -0.696851502337E+03    0.88798E-04   -0.12371E-04  8686   0.226E-02    0.176E-01
RMM:   7    -0.696851345048E+03    0.15729E-03   -0.71612E-05  8471   0.165E-02    0.750E-02
RMM:   8    -0.696851353608E+03   -0.85593E-05   -0.34570E-05  8106   0.114E-02
  17 F= -.69685135E+03 E0= -.69628304E+03  d E =-.157116E-01  mag=     3.7864
       N       E                     dE             d eps       ncg     rms          rms(c)
DAV:   1    -0.696853243552E+03   -0.18985E-02   -0.82438E-02 15360   0.417E-01    0.888E-02
RMM:   2    -0.696854564203E+03   -0.13207E-02   -0.18976E-03 14517   0.778E-02    0.412E-01
RMM:   3    -0.696853496212E+03    0.10680E-02   -0.33113E-04 10011   0.332E-02    0.118E-01
RMM:   4    -0.696853557993E+03   -0.61781E-04   -0.92726E-05  8282   0.196E-02    0.123E-01
RMM:   5    -0.696853574787E+03   -0.16794E-04   -0.35543E-05  8066   0.124E-02    0.865E-02
RMM:   6    -0.696853599491E+03   -0.24704E-04   -0.30581E-05  7839   0.103E-02    0.844E-02
RMM:   7    -0.696853633533E+03   -0.34041E-04   -0.18872E-05  7458   0.896E-03    0.544E-02
RMM:   8    -0.696853645437E+03   -0.11904E-04   -0.94836E-06  7011   0.607E-03
  18 F= -.69685365E+03 E0= -.69628535E+03  d E =-.180034E-01  mag=     3.7850
       N       E                     dE             d eps       ncg     rms          rms(c)
DAV:   1    -0.696859778916E+03   -0.61454E-02   -0.21830E-01 15360   0.657E-01    0.125E-01
RMM:   2    -0.696860602832E+03   -0.82392E-03   -0.48079E-03 14452   0.114E-01    0.326E-01
RMM:   3    -0.696860260145E+03    0.34269E-03   -0.74835E-04 12062   0.459E-02    0.136E-01
RMM:   4    -0.696860844174E+03   -0.58403E-03   -0.20193E-04  9151   0.251E-02    0.329E-01
RMM:   5    -0.696860345410E+03    0.49876E-03   -0.86220E-05  8459   0.193E-02    0.185E-01
RMM:   6    -0.696860204318E+03    0.14109E-03   -0.51412E-05  8322   0.137E-02    0.126E-01
RMM:   7    -0.696860147007E+03    0.57311E-04   -0.34957E-05  7979   0.113E-02    0.676E-02
RMM:   8    -0.696860129437E+03    0.17571E-04   -0.14252E-05  7143   0.789E-03
  19 F= -.69686013E+03 E0= -.69629166E+03  d E =-.648400E-02  mag=     3.7829
       N       E                     dE             d eps       ncg     rms          rms(c)
DAV:   1    -0.696860211127E+03   -0.64119E-04   -0.21381E-03 14800   0.667E-02    0.537E-02
RMM:   2    -0.696860679388E+03   -0.46826E-03   -0.12366E-04  8263   0.179E-02    0.261E-01
RMM:   3    -0.696860408453E+03    0.27094E-03   -0.67733E-05  7956   0.172E-02    0.161E-01
RMM:   4    -0.696860260707E+03    0.14775E-03   -0.22105E-05  7707   0.975E-03    0.458E-02
RMM:   5    -0.696860271178E+03   -0.10471E-04   -0.76932E-06  6507   0.588E-03    0.341E-02
RMM:   6    -0.696860294562E+03   -0.23384E-04   -0.22771E-06  4801   0.374E-03    0.163E-02
RMM:   7    -0.696860308398E+03   -0.13836E-04   -0.28397E-07  1976   0.265E-03    0.956E-03
RMM:   8    -0.696860324133E+03   -0.15736E-04   -0.20872E-07  1873   0.265E-03
  20 F= -.69686032E+03 E0= -.69629189E+03  d E =-.667870E-02  mag=     3.7815
       N       E                     dE             d eps       ncg     rms          rms(c)
DAV:   1    -0.696866607494E+03   -0.62991E-02   -0.91333E-02 15296   0.413E-01    0.910E-02
RMM:   2    -0.696866754694E+03   -0.14720E-03   -0.17368E-03 12908   0.612E-02    0.837E-02
RMM:   3    -0.696866859298E+03   -0.10460E-03   -0.23656E-04  9061   0.269E-02    0.120E-01
RMM:   4    -0.696867319091E+03   -0.45979E-03   -0.11056E-04  8394   0.187E-02    0.302E-01
RMM:   5    -0.696866800642E+03    0.51845E-03   -0.44304E-05  8162   0.146E-02    0.100E-01
RMM:   6    -0.696866761711E+03    0.38931E-04   -0.21285E-05  7419   0.871E-03    0.529E-02
RMM:   7    -0.696866754361E+03    0.73500E-05   -0.13252E-05  7211   0.732E-03    0.257E-02
RMM:   8    -0.696866765089E+03   -0.10728E-04   -0.46632E-06  6285   0.476E-03
  21 F= -.69686677E+03 E0= -.69629829E+03  d E =-.644096E-02  mag=     3.7800
       N       E                     dE             d eps       ncg     rms          rms(c)
DAV:   1    -0.696866924521E+03   -0.17016E-03   -0.22605E-01 15136   0.651E-01    0.147E-01
RMM:   2    -0.696867278354E+03   -0.35383E-03   -0.42944E-03 14342   0.962E-02    0.123E-01
RMM:   3    -0.696867507607E+03   -0.22925E-03   -0.58521E-04 11487   0.415E-02    0.179E-01
RMM:   4    -0.696868664515E+03   -0.11569E-02   -0.27883E-04 10192   0.275E-02    0.469E-01
RMM:   5    -0.696867370646E+03    0.12939E-02   -0.10870E-04  8439   0.221E-02    0.157E-01
RMM:   6    -0.696867307158E+03    0.63488E-04   -0.58920E-05  8231   0.144E-02    0.887E-02
RMM:   7    -0.696867279834E+03    0.27324E-04   -0.31342E-05  7865   0.113E-02    0.415E-02
RMM:   8    -0.696867287310E+03   -0.74764E-05   -0.12398E-05  7191   0.718E-03
  22 F= -.69686729E+03 E0= -.69629874E+03  d E =-.696318E-02  mag=     3.7783
       N       E                     dE             d eps       ncg     rms          rms(c)
DAV:   1    -0.696868872561E+03   -0.15927E-02   -0.63004E-02 15360   0.345E-01    0.772E-02
RMM:   2    -0.696869321390E+03   -0.44883E-03   -0.12279E-03 12407   0.519E-02    0.241E-01
RMM:   3    -0.696869027432E+03    0.29396E-03   -0.17614E-04  8650   0.241E-02    0.757E-02
RMM:   4    -0.696869119492E+03   -0.92060E-04   -0.64435E-05  8200   0.158E-02    0.120E-01
RMM:   5    -0.696869085919E+03    0.33572E-04   -0.28849E-05  7889   0.115E-02    0.651E-02
RMM:   6    -0.696869116851E+03   -0.30932E-04   -0.17401E-05  7228   0.774E-03    0.701E-02
RMM:   7    -0.696869116299E+03    0.55227E-06   -0.93160E-06  6875   0.657E-03    0.310E-02
RMM:   8    -0.696869124975E+03   -0.86764E-05   -0.30136E-06  5210   0.389E-03
  23 F= -.69686912E+03 E0= -.69630058E+03  d E =-.880084E-02  mag=     3.7774
       N       E                     dE             d eps       ncg     rms          rms(c)
DAV:   1    -0.696872691658E+03   -0.35754E-02   -0.84878E-02 15328   0.400E-01    0.951E-02
RMM:   2    -0.696873057946E+03   -0.36629E-03   -0.16303E-03 12901   0.598E-02    0.204E-01
RMM:   3    -0.696873005427E+03    0.52518E-04   -0.23688E-04  9047   0.274E-02    0.197E-01
RMM:   4    -0.696872815266E+03    0.19016E-03   -0.73281E-05  8225   0.179E-02    0.633E-02
RMM:   5    -0.696872833944E+03   -0.18678E-04   -0.39321E-05  7980   0.124E-02    0.784E-02
RMM:   6    -0.696872833551E+03    0.39345E-06   -0.22891E-05  7458   0.980E-03    0.674E-02
RMM:   7    -0.696872821782E+03    0.11769E-04   -0.12370E-05  6944   0.719E-03    0.371E-02
RMM:   8    -0.696872821989E+03   -0.20696E-06   -0.50636E-06  6045   0.481E-03
  24 F= -.69687282E+03 E0= -.69630434E+03  d E =-.369701E-02  mag=     3.7765
       N       E                     dE             d eps       ncg     rms          rms(c)
DAV:   1    -0.696872835900E+03   -0.14118E-04   -0.21093E-04 14048   0.215E-02    0.171E-02
RMM:   2    -0.696872994236E+03   -0.15834E-03   -0.21225E-05  7702   0.721E-03    0.147E-01
RMM:   3    -0.696872854312E+03    0.13992E-03   -0.12214E-05  6944   0.762E-03    0.426E-02
RMM:   4    -0.696872849551E+03    0.47604E-05   -0.24075E-06  5158   0.376E-03    0.956E-03
RMM:   5    -0.696872852641E+03   -0.30894E-05   -0.90862E-08  1730   0.257E-03    0.425E-03
RMM:   6    -0.696872860159E+03   -0.75176E-05   -0.19439E-08  1248   0.244E-03    0.869E-03
RMM:   7    -0.696872864800E+03   -0.46413E-05   -0.11262E-08  1236   0.248E-03    0.601E-03
RMM:   8    -0.696872873588E+03   -0.87880E-05   -0.93286E-08  1446   0.259E-03
  25 F= -.69687287E+03 E0= -.69630438E+03  d E =-.374861E-02  mag=     3.7759
       N       E                     dE             d eps       ncg     rms          rms(c)
DAV:   1    -0.696874097644E+03   -0.12328E-02   -0.17371E-02 15360   0.187E-01    0.379E-02
RMM:   2    -0.696874134063E+03   -0.36419E-04   -0.35629E-04  9202   0.295E-02    0.527E-02
RMM:   3    -0.696874160566E+03   -0.26503E-04   -0.47884E-05  7895   0.135E-02    0.661E-02
RMM:   4    -0.696874153805E+03    0.67615E-05   -0.11955E-05  7073   0.681E-03    0.489E-02
RMM:   5    -0.696874158400E+03   -0.45952E-05   -0.67688E-06  6426   0.501E-03    0.514E-02
RMM:   6    -0.696874151879E+03    0.65209E-05   -0.32382E-06  5558   0.424E-03    0.248E-02
RMM:   7    -0.696874157532E+03   -0.56530E-05   -0.21631E-06  4117   0.345E-03    0.118E-02
RMM:   8    -0.696874162293E+03   -0.47604E-05   -0.33248E-07  2372   0.294E-03
  26 F= -.69687416E+03 E0= -.69630572E+03  d E =-.128870E-02  mag=     3.7754
       N       E                     dE             d eps       ncg     rms          rms(c)
DAV:   1    -0.696874199021E+03   -0.41489E-04   -0.66634E-04 14832   0.369E-02    0.147E-02
RMM:   2    -0.696874293894E+03   -0.94873E-04   -0.22165E-05  7455   0.716E-03    0.117E-01
RMM:   3    -0.696874202953E+03    0.90941E-04   -0.80224E-06  6683   0.620E-03    0.251E-02
RMM:   4    -0.696874206570E+03   -0.36173E-05   -0.15262E-06  4324   0.332E-03    0.171E-02
RMM:   5    -0.696874208952E+03   -0.23819E-05   -0.12755E-07  1648   0.254E-03    0.829E-03
RMM:   6    -0.696874211398E+03   -0.24459E-05   -0.26704E-08  1325   0.237E-03    0.105E-02
RMM:   7    -0.696874215022E+03   -0.36235E-05   -0.11770E-09  1138   0.228E-03    0.830E-03
RMM:   8    -0.696874216699E+03   -0.16778E-05   -0.36281E-10  1122   0.227E-03
  27 F= -.69687422E+03 E0= -.69630579E+03  d E =-.134311E-02  mag=     3.7749
       N       E                     dE             d eps       ncg     rms          rms(c)
DAV:   1    -0.696874548009E+03   -0.33299E-03   -0.19804E-03 14832   0.614E-02    0.143E-02
RMM:   2    -0.696874556275E+03   -0.82661E-05   -0.41809E-05  7852   0.117E-02    0.245E-02
RMM:   3    -0.696874557942E+03   -0.16665E-05   -0.64152E-06  7283   0.590E-03    0.200E-02
RMM:   4    -0.696874565820E+03   -0.78782E-05   -0.87789E-07  3028   0.304E-03    0.404E-02
RMM:   5    -0.696874560821E+03    0.49984E-05   -0.58147E-07  2839   0.299E-03    0.205E-02
RMM:   6    -0.696874560781E+03    0.40578E-07   -0.56193E-08  1567   0.275E-03    0.138E-02
RMM:   7    -0.696874561526E+03   -0.74498E-06   -0.93427E-08  1481   0.272E-03    0.632E-03
RMM:   8    -0.696874563240E+03   -0.17144E-05   -0.57507E-08  1234   0.271E-03
  28 F= -.69687456E+03 E0= -.69630614E+03  d E =-.346541E-03  mag=     3.7745
       N       E                     dE             d eps       ncg     rms          rms(c)
DAV:   1    -0.696874832794E+03   -0.27127E-03   -0.87181E-03 15360   0.129E-01    0.294E-02
RMM:   2    -0.696874862520E+03   -0.29727E-04   -0.18309E-04  8330   0.244E-02    0.594E-02
RMM:   3    -0.696874864414E+03   -0.18940E-05   -0.29695E-05  7816   0.122E-02    0.464E-02
RMM:   4    -0.696874874992E+03   -0.10577E-04   -0.10051E-05  7047   0.615E-03    0.657E-02
RMM:   5    -0.696874867292E+03    0.77001E-05   -0.54926E-06  6598   0.503E-03    0.470E-02
RMM:   6    -0.696874856732E+03    0.10559E-04   -0.24477E-06  5258   0.380E-03    0.281E-02
RMM:   7    -0.696874855144E+03    0.15889E-05   -0.11576E-06  3769   0.331E-03    0.828E-03
RMM:   8    -0.696874855931E+03   -0.78719E-06   -0.31022E-07  2163   0.294E-03
  29 F= -.69687486E+03 E0= -.69630646E+03  d E =-.639231E-03  mag=     3.7740
       N       E                     dE             d eps       ncg     rms          rms(c)
DAV:   1    -0.696875069075E+03   -0.21393E-03   -0.57286E-04 14848   0.306E-02    0.997E-03
RMM:   2    -0.696875079718E+03   -0.10643E-04   -0.10738E-05  7793   0.678E-03    0.339E-02
RMM:   3    -0.696875074684E+03    0.50334E-05   -0.23378E-06  5613   0.374E-03    0.240E-02
RMM:   4    -0.696875072430E+03    0.22544E-05   -0.64917E-08  1813   0.257E-03    0.150E-02
RMM:   5    -0.696875074329E+03   -0.18995E-05   -0.24650E-09  1169   0.246E-03    0.207E-02
RMM:   6    -0.696875075741E+03   -0.14122E-05   -0.11275E-07  1494   0.264E-03    0.186E-02
RMM:   7    -0.696875074909E+03    0.83261E-06   -0.16712E-08  1154   0.257E-03    0.700E-03
RMM:   8    -0.696875075284E+03   -0.37554E-06   -0.81858E-09  1084   0.252E-03
  30 F= -.69687508E+03 E0= -.69630669E+03  d E =-.219354E-03  mag=     3.7736
       N       E                     dE             d eps       ncg     rms          rms(c)
DAV:   1    -0.696875596079E+03   -0.52117E-03   -0.50469E-03 15328   0.895E-02    0.253E-02
RMM:   2    -0.696875616154E+03   -0.20075E-04   -0.84566E-05  7951   0.190E-02    0.532E-02
RMM:   3    -0.696875610473E+03    0.56813E-05   -0.17617E-05  7748   0.939E-03    0.335E-02
RMM:   4    -0.696875625626E+03   -0.15153E-04   -0.68646E-06  6694   0.504E-03    0.606E-02
RMM:   5    -0.696875615273E+03    0.10352E-04   -0.44637E-06  6694   0.457E-03    0.394E-02
RMM:   6    -0.696875608312E+03    0.69616E-05   -0.19433E-06  4827   0.354E-03    0.255E-02
RMM:   7    -0.696875606561E+03    0.17511E-05   -0.63026E-07  3004   0.308E-03    0.735E-03
RMM:   8    -0.696875606999E+03   -0.43878E-06   -0.42488E-08  1472   0.280E-03
  31 F= -.69687561E+03 E0= -.69630724E+03  d E =-.751069E-03  mag=     3.7732
       N       E                     dE             d eps       ncg     rms          rms(c)
DAV:   1    -0.696876034810E+03   -0.42825E-03   -0.20034E-02 15328   0.179E-01    0.491E-02
RMM:   2    -0.696876158402E+03   -0.12359E-03   -0.32920E-04 10521   0.376E-02    0.137E-01
RMM:   3    -0.696876065825E+03    0.92577E-04   -0.75341E-05  8062   0.175E-02    0.500E-02
RMM:   4    -0.696876111418E+03   -0.45594E-04   -0.24520E-05  7771   0.102E-02    0.963E-02
RMM:   5    -0.696876093722E+03    0.17697E-04   -0.16162E-05  7646   0.787E-03    0.775E-02
RMM:   6    -0.696876073659E+03    0.20063E-04   -0.10852E-05  7074   0.653E-03    0.527E-02
RMM:   7    -0.696876066201E+03    0.74574E-05   -0.57506E-06  6624   0.511E-03    0.295E-02
RMM:   8    -0.696876066487E+03   -0.28590E-06   -0.10869E-06  3515   0.316E-03
  32 F= -.69687607E+03 E0= -.69630775E+03  d E =-.121056E-02  mag=     3.7727
       N       E                     dE             d eps       ncg     rms          rms(c)
DAV:   1    -0.696876254163E+03   -0.18796E-03   -0.30692E-03 14752   0.798E-02    0.287E-02
RMM:   2    -0.696876521011E+03   -0.26685E-03   -0.83863E-05  7996   0.156E-02    0.198E-01
RMM:   3    -0.696876249856E+03    0.27116E-03   -0.29567E-05  7907   0.118E-02    0.549E-02
RMM:   4    -0.696876268949E+03   -0.19093E-04   -0.81499E-06  6908   0.593E-03    0.432E-02
RMM:   5    -0.696876261911E+03    0.70374E-05   -0.14248E-06  4594   0.351E-03    0.282E-02
RMM:   6    -0.696876266765E+03   -0.48541E-05   -0.48810E-07  2901   0.292E-03    0.310E-02
RMM:   7    -0.696876264340E+03    0.24256E-05   -0.38211E-07  2491   0.280E-03    0.190E-02
RMM:   8    -0.696876263983E+03    0.35706E-06   -0.11351E-07  1630   0.268E-03
  33 F= -.69687626E+03 E0= -.69630798E+03  d E =-.197496E-03  mag=     3.7724
       N       E                     dE             d eps       ncg     rms          rms(c)
DAV:   1    -0.696876269106E+03   -0.47660E-05   -0.11242E-04 11472   0.157E-02    0.895E-03
RMM:   2    -0.696876305698E+03   -0.36592E-04   -0.76851E-06  6302   0.544E-03    0.726E-02
RMM:   3    -0.696876270428E+03    0.35269E-04   -0.25794E-06  5447   0.404E-03    0.168E-02
RMM:   4    -0.696876272404E+03   -0.19761E-05   -0.46649E-08  1778   0.246E-03    0.974E-03
RMM:   5    -0.696876274301E+03   -0.18963E-05   -0.53391E-09  1162   0.244E-03    0.124E-02
RMM:   6    -0.696876275688E+03   -0.13867E-05   -0.78075E-09  1115   0.246E-03    0.762E-03
RMM:   7    -0.696876276400E+03   -0.71230E-06   -0.33267E-09  1085   0.244E-03    0.411E-03
RMM:   8    -0.696876278282E+03   -0.18822E-05   -0.67718E-09  1152   0.244E-03
  34 F= -.69687628E+03 E0= -.69630800E+03  d E =-.211795E-03  mag=     3.7720
       N       E                     dE             d eps       ncg     rms          rms(c)
DAV:   1    -0.696876342342E+03   -0.65942E-04   -0.36554E-04 14704   0.264E-02    0.617E-03
RMM:   2    -0.696876352693E+03   -0.10351E-04   -0.88590E-06  7692   0.634E-03    0.385E-02
RMM:   3    -0.696876345228E+03    0.74649E-05   -0.11744E-06  4271   0.333E-03    0.559E-03
RMM:   4    -0.696876346407E+03   -0.11790E-05   -0.19008E-08  1309   0.247E-03    0.957E-03
RMM:   5    -0.696876347669E+03   -0.12618E-05   -0.10207E-09  1041   0.242E-03    0.731E-03
RMM:   6    -0.696876348914E+03   -0.12450E-05   -0.49769E-09  1072   0.247E-03    0.462E-03
RMM:   7    -0.696876350632E+03   -0.17181E-05   -0.27423E-08  1200   0.251E-03    0.182E-03
RMM:   8    -0.696876351420E+03   -0.78783E-06   -0.64793E-09  1089   0.251E-03
  35 F= -.69687635E+03 E0= -.69630808E+03  d E =-.731378E-04  mag=     3.7718
       N       E                     dE             d eps       ncg     rms          rms(c)
DAV:   1    -0.696876432359E+03   -0.81727E-04   -0.26835E-03 14912   0.714E-02    0.156E-02
RMM:   2    -0.696876439273E+03   -0.69144E-05   -0.55827E-05  7837   0.154E-02    0.218E-02
RMM:   3    -0.696876440812E+03   -0.15386E-05   -0.10411E-05  7738   0.753E-03    0.178E-02
RMM:   4    -0.696876444033E+03   -0.32212E-05   -0.24618E-06  5194   0.365E-03    0.232E-02
RMM:   5    -0.696876447055E+03   -0.30221E-05   -0.65022E-07  3185   0.314E-03    0.302E-02
RMM:   6    -0.696876443631E+03    0.34240E-05   -0.21151E-07  2497   0.300E-03    0.122E-02
RMM:   7    -0.696876444599E+03   -0.96788E-06   -0.37834E-07  2033   0.305E-03    0.797E-03
RMM:   8    -0.696876445061E+03   -0.46255E-06   -0.27645E-07  1710   0.291E-03
  36 F= -.69687645E+03 E0= -.69630818E+03  d E =-.166779E-03  mag=     3.7715
       N       E                     dE             d eps       ncg     rms          rms(c)
DAV:   1    -0.696876498797E+03   -0.54198E-04   -0.10263E-03 14864   0.447E-02    0.108E-02
RMM:   2    -0.696876514486E+03   -0.15689E-04   -0.22461E-05  7833   0.892E-03    0.442E-02
RMM:   3    -0.696876503833E+03    0.10653E-04   -0.47279E-06  7062   0.487E-03    0.272E-02
RMM:   4    -0.696876503018E+03    0.81509E-06   -0.26437E-07  2487   0.274E-03    0.148E-02
RMM:   5    -0.696876503324E+03   -0.30588E-06   -0.31973E-08  1473   0.260E-03    0.135E-02
RMM:   6    -0.696876503674E+03   -0.35053E-06   -0.13584E-07  1547   0.267E-03    0.941E-03
RMM:   7    -0.696876504478E+03   -0.80329E-06   -0.69665E-08  1376   0.265E-03    0.775E-03
RMM:   8    -0.696876504636E+03   -0.15883E-06   -0.40516E-08  1230   0.263E-03
  37 F= -.69687650E+03 E0= -.69630825E+03  d E =-.595749E-04  mag=     3.7713
