       N       E                     dE             d eps       ncg     rms          rms(c)
DAV:   1     0.783204686443E+04    0.78320E+04   -0.31216E+05 13664   0.127E+03
DAV:   2     0.605783979242E+03   -0.72263E+04   -0.65366E+04 14528   0.373E+02
DAV:   3    -0.789750258552E+03   -0.13955E+04   -0.13369E+04 16944   0.165E+02
DAV:   4    -0.866487443887E+03   -0.76737E+02   -0.74732E+02 19056   0.430E+01
DAV:   5    -0.868043972707E+03   -0.15565E+01   -0.15345E+01 17168   0.571E+00    0.197E+02
RMM:   6    -0.765789523014E+03    0.10225E+03   -0.71040E+02 13482   0.426E+01    0.206E+02
RMM:   7    -0.106333442886E+04   -0.29754E+03   -0.26367E+02 14157   0.262E+01    0.359E+02
RMM:   8    -0.937783490621E+03    0.12555E+03   -0.76735E+01 16197   0.980E+00    0.324E+02
RMM:   9    -0.121498443875E+04   -0.27720E+03   -0.35123E+02 18745   0.244E+01    0.362E+02
RMM:  10    -0.889741103544E+03    0.32524E+03   -0.12070E+02 15872   0.154E+01    0.185E+02
RMM:  11    -0.732466927261E+03    0.15727E+03   -0.25124E+01 13440   0.865E+00    0.116E+02
RMM:  12    -0.652611752269E+03    0.79855E+02   -0.69901E+01 16645   0.111E+01    0.587E+01
RMM:  13    -0.650177555415E+03    0.24342E+01   -0.13038E+01 13678   0.580E+00    0.646E+01
RMM:  14    -0.643315967253E+03    0.68616E+01   -0.65021E+00 15316   0.383E+00    0.532E+01
RMM:  15    -0.648858533111E+03   -0.55426E+01   -0.61861E+00 14037   0.366E+00    0.381E+01
RMM:  16    -0.654109041819E+03   -0.52505E+01   -0.26198E+00 13689   0.259E+00    0.396E+01
RMM:  17    -0.668306137792E+03   -0.14197E+02   -0.11683E+01 16996   0.468E+00    0.278E+01
RMM:  18    -0.672904758779E+03   -0.45986E+01   -0.31350E+00 14297   0.256E+00    0.216E+01
RMM:  19    -0.674097592834E+03   -0.11928E+01   -0.14984E+00 13947   0.183E+00    0.188E+01
RMM:  20    -0.678452829356E+03   -0.43552E+01   -0.32594E+00 15409   0.240E+00    0.183E+01
RMM:  21    -0.682512668530E+03   -0.40598E+01   -0.23520E+00 14581   0.219E+00    0.175E+01
RMM:  22    -0.684050258316E+03   -0.15376E+01   -0.65617E-01 13491   0.136E+00    0.147E+01
RMM:  23    -0.686024842677E+03   -0.19746E+01   -0.43427E-01 13618   0.978E-01    0.123E+01
RMM:  24    -0.688235967649E+03   -0.22111E+01   -0.47496E-01 14328   0.943E-01    0.124E+01
RMM:  25    -0.689219606613E+03   -0.98364E+00   -0.17472E-01 13724   0.626E-01    0.120E+01
RMM:  26    -0.691272896851E+03   -0.20533E+01   -0.39619E-01 15330   0.832E-01    0.117E+01
RMM:  27    -0.696895494313E+03   -0.56226E+01   -0.20446E+00 19505   0.177E+00    0.836E+00
RMM:  28    -0.699274667279E+03   -0.23792E+01   -0.56578E-01 15901   0.939E-01    0.632E+00
RMM:  29    -0.700998736264E+03   -0.17241E+01   -0.31529E-01 15092   0.714E-01    0.596E+00
RMM:  30    -0.702197135072E+03   -0.11984E+01   -0.19380E-01 14689   0.583E-01    0.515E+00
RMM:  31    -0.703821299717E+03   -0.16242E+01   -0.33179E-01 16344   0.693E-01    0.426E+00
RMM:  32    -0.705079623246E+03   -0.12583E+01   -0.26809E-01 16025   0.616E-01    0.372E+00
RMM:  33    -0.705619426998E+03   -0.53980E+00   -0.14846E-01 14782   0.474E-01    0.310E+00
RMM:  34    -0.706143170829E+03   -0.52374E+00   -0.77207E-02 14226   0.355E-01    0.308E+00
RMM:  35    -0.706546314253E+03   -0.40314E+00   -0.42309E-02 14008   0.270E-01    0.264E+00
RMM:  36    -0.706829690821E+03   -0.28338E+00   -0.44159E-02 14731   0.260E-01    0.273E+00
RMM:  37    -0.707176767790E+03   -0.34708E+00   -0.39234E-02 14912   0.244E-01    0.221E+00
RMM:  38    -0.707325148761E+03   -0.14838E+00   -0.47062E-02 15642   0.261E-01    0.231E+00
RMM:  39    -0.707537224754E+03   -0.21208E+00   -0.24409E-02 14590   0.193E-01    0.231E+00
RMM:  40    -0.707815930047E+03   -0.27871E+00   -0.30074E-02 15508   0.203E-01    0.183E+00
RMM:  41    -0.707939780195E+03   -0.12385E+00   -0.21100E-02 15334   0.159E-01    0.165E+00
RMM:  42    -0.708092080664E+03   -0.15230E+00   -0.76006E-03 14030   0.105E-01    0.131E+00
RMM:  43    -0.708229055589E+03   -0.13697E+00   -0.37308E-03 13512   0.762E-02    0.101E+00
RMM:  44    -0.708300247768E+03   -0.71192E-01   -0.14497E-03 12941   0.559E-02    0.757E-01
RMM:  45    -0.708370446211E+03   -0.70198E-01   -0.98086E-04 12609   0.463E-02    0.563E-01
RMM:  46    -0.708440186872E+03   -0.69741E-01   -0.76802E-04 12486   0.403E-02    0.439E-01
RMM:  47    -0.708508598570E+03   -0.68412E-01   -0.95658E-04 12727   0.416E-02    0.259E-01
RMM:  48    -0.708555827167E+03   -0.47229E-01   -0.66233E-04 12338   0.347E-02    0.171E-01
RMM:  49    -0.708572910774E+03   -0.17084E-01   -0.27957E-04  9737   0.242E-02    0.142E-01
RMM:  50    -0.708583476121E+03   -0.10565E-01   -0.16837E-04  8590   0.203E-02    0.118E-01
RMM:  51    -0.708571410635E+03    0.12065E-01   -0.13757E-04  8538   0.189E-02    0.954E-02
RMM:  52    -0.708575333497E+03   -0.39229E-02   -0.36110E-05  8137   0.102E-02    0.820E-02
RMM:  53    -0.708578383654E+03   -0.30502E-02   -0.15058E-05  7227   0.657E-03    0.602E-02
RMM:  54    -0.708584370040E+03   -0.59864E-02   -0.17710E-05  6863   0.584E-03    0.489E-02
RMM:  55    -0.708587023016E+03   -0.26530E-02   -0.10972E-05  6727   0.503E-03    0.369E-02
RMM:  56    -0.708588637929E+03   -0.16149E-02   -0.92306E-06  6659   0.468E-03    0.256E-02
RMM:  57    -0.708590549443E+03   -0.19115E-02   -0.66208E-06  5067   0.380E-03    0.261E-02
RMM:  58    -0.708591059742E+03   -0.51030E-03   -0.31062E-06  4343   0.341E-03    0.208E-02
RMM:  59    -0.708591700896E+03   -0.64115E-03   -0.30793E-06  4165   0.324E-03    0.201E-02
RMM:  60    -0.708592540822E+03   -0.83993E-03   -0.63809E-06  5044   0.356E-03    0.113E-02
RMM:  61    -0.708592871400E+03   -0.33058E-03   -0.31356E-06  4282   0.334E-03    0.697E-03
RMM:  62    -0.708592939168E+03   -0.67768E-04   -0.10752E-06  3172   0.299E-03
   1 F= -.70859294E+03 E0= -.70796090E+03  d E =-.708593E+03  mag=     8.2029
       N       E                     dE             d eps       ncg     rms          rms(c)
DAV:   1    -0.707006252009E+03    0.15866E+01   -0.44279E+02 13632   0.263E+01    0.753E+00
RMM:   2    -0.708376849764E+03   -0.13706E+01   -0.14738E+01 13440   0.506E+00    0.782E+00
RMM:   3    -0.708590560028E+03   -0.21371E+00   -0.28514E+00 14832   0.225E+00    0.660E+00
RMM:   4    -0.709289529583E+03   -0.69897E+00   -0.41862E-01 13780   0.985E-01    0.128E+01
RMM:   5    -0.708469715373E+03    0.81981E+00   -0.12176E-01 13600   0.631E-01    0.335E+00
RMM:   6    -0.708448148202E+03    0.21567E-01   -0.62312E-02 13881   0.393E-01    0.279E+00
RMM:   7    -0.708380583502E+03    0.67565E-01   -0.97453E-02 14349   0.398E-01    0.231E+00
RMM:   8    -0.708327850514E+03    0.52733E-01   -0.35083E-02 13697   0.308E-01    0.140E+00
RMM:   9    -0.708325156017E+03    0.26945E-02   -0.14681E-02 13687   0.203E-01    0.875E-01
RMM:  10    -0.708338443768E+03   -0.13288E-01   -0.61870E-03 13481   0.129E-01    0.627E-01
RMM:  11    -0.708354449284E+03   -0.16006E-01   -0.44702E-03 13302   0.875E-02    0.394E-01
RMM:  12    -0.708363448073E+03   -0.89988E-02   -0.15664E-03 12918   0.571E-02    0.242E-01
RMM:  13    -0.708369662953E+03   -0.62149E-02   -0.57276E-04 11398   0.351E-02    0.202E-01
RMM:  14    -0.708374880137E+03   -0.52172E-02   -0.25220E-04  9252   0.241E-02    0.147E-01
RMM:  15    -0.708380329410E+03   -0.54493E-02   -0.19433E-04  8871   0.208E-02    0.821E-02
RMM:  16    -0.708385730798E+03   -0.54014E-02   -0.13242E-04  8377   0.164E-02    0.617E-02
RMM:  17    -0.708389452426E+03   -0.37216E-02   -0.65084E-05  7638   0.124E-02    0.542E-02
RMM:  18    -0.708394196708E+03   -0.47443E-02   -0.62144E-05  7510   0.956E-03    0.459E-02
RMM:  19    -0.708401181138E+03   -0.69844E-02   -0.10217E-04  7898   0.101E-02    0.411E-02
RMM:  20    -0.708408008199E+03   -0.68271E-02   -0.10655E-04  7924   0.103E-02    0.370E-02
RMM:  21    -0.708413228490E+03   -0.52203E-02   -0.82692E-05  7384   0.948E-03    0.328E-02
RMM:  22    -0.708418010088E+03   -0.47816E-02   -0.91293E-05  7537   0.936E-03    0.298E-02
RMM:  23    -0.708421299316E+03   -0.32892E-02   -0.81810E-05  7296   0.904E-03    0.209E-02
RMM:  24    -0.708422843429E+03   -0.15441E-02   -0.46887E-05  6723   0.785E-03    0.176E-02
RMM:  25    -0.708423840438E+03   -0.99701E-03   -0.27987E-05  6006   0.648E-03    0.136E-02
RMM:  26    -0.708424375870E+03   -0.53543E-03   -0.14737E-05  5373   0.523E-03    0.110E-02
RMM:  27    -0.708424901821E+03   -0.52595E-03   -0.92194E-06  4753   0.438E-03    0.939E-03
RMM:  28    -0.708425336487E+03   -0.43467E-03   -0.52068E-06  4348   0.393E-03    0.864E-03
RMM:  29    -0.708425895019E+03   -0.55853E-03   -0.45466E-06  4360   0.360E-03    0.734E-03
RMM:  30    -0.708426171237E+03   -0.27622E-03   -0.22631E-06  3806   0.335E-03    0.633E-03
RMM:  31    -0.708426350464E+03   -0.17923E-03   -0.11002E-06  3069   0.296E-03    0.582E-03
RMM:  32    -0.708426488996E+03   -0.13853E-03   -0.42940E-07  2635   0.284E-03    0.528E-03
RMM:  33    -0.708426661283E+03   -0.17229E-03   -0.65167E-07  2735   0.287E-03    0.458E-03
RMM:  34    -0.708426775254E+03   -0.11397E-03   -0.90090E-07  2853   0.291E-03    0.296E-03
RMM:  35    -0.708426896826E+03   -0.12157E-03   -0.12954E-06  2955   0.295E-03    0.359E-03
RMM:  36    -0.708426971069E+03   -0.74242E-04   -0.88455E-07  2748   0.285E-03
   2 F= -.70842697E+03 E0= -.70780451E+03  d E =0.165968E+00  mag=     8.5085
       N       E                     dE             d eps       ncg     rms          rms(c)
DAV:   1    -0.708487063467E+03   -0.60167E-01   -0.16039E+02 13552   0.154E+01    0.524E+00
RMM:   2    -0.708752270385E+03   -0.26521E+00   -0.38313E+00 13440   0.318E+00    0.529E+00
RMM:   3    -0.708885905885E+03   -0.13364E+00   -0.72309E-01 13582   0.140E+00    0.434E+00
RMM:   4    -0.709039329739E+03   -0.15342E+00   -0.29204E-01 15199   0.731E-01    0.652E+00
RMM:   5    -0.708830427538E+03    0.20890E+00   -0.49504E-02 13535   0.361E-01    0.232E+00
RMM:   6    -0.708810521362E+03    0.19906E-01   -0.26999E-02 13495   0.274E-01    0.145E+00
RMM:   7    -0.708818329531E+03   -0.78082E-02   -0.27243E-02 13861   0.228E-01    0.996E-01
RMM:   8    -0.708821728902E+03   -0.33994E-02   -0.10631E-02 13682   0.163E-01    0.747E-01
RMM:   9    -0.708825945408E+03   -0.42165E-02   -0.40397E-03 13667   0.101E-01    0.527E-01
RMM:  10    -0.708826995339E+03   -0.10499E-02   -0.12539E-03 13096   0.524E-02    0.382E-01
RMM:  11    -0.708828436011E+03   -0.14407E-02   -0.67420E-04 11628   0.367E-02    0.289E-01
RMM:  12    -0.708829459978E+03   -0.10240E-02   -0.34824E-04 10044   0.296E-02    0.114E-01
RMM:  13    -0.708831461742E+03   -0.20018E-02   -0.18392E-04  8714   0.212E-02    0.936E-02
RMM:  14    -0.708833592630E+03   -0.21309E-02   -0.99707E-05  8125   0.174E-02    0.470E-02
RMM:  15    -0.708834993026E+03   -0.14004E-02   -0.39292E-05  7591   0.109E-02    0.327E-02
RMM:  16    -0.708836082591E+03   -0.10896E-02   -0.17418E-05  7204   0.740E-03    0.257E-02
RMM:  17    -0.708837419897E+03   -0.13373E-02   -0.12639E-05  6281   0.509E-03    0.242E-02
RMM:  18    -0.708839178314E+03   -0.17584E-02   -0.15516E-05  6422   0.495E-03    0.194E-02
RMM:  19    -0.708841224619E+03   -0.20463E-02   -0.21778E-05  6692   0.530E-03    0.172E-02
RMM:  20    -0.708842784638E+03   -0.15600E-02   -0.17502E-05  5883   0.497E-03    0.179E-02
RMM:  21    -0.708843887359E+03   -0.11027E-02   -0.15364E-05  5808   0.485E-03    0.159E-02
RMM:  22    -0.708844966693E+03   -0.10793E-02   -0.17916E-05  5754   0.485E-03    0.138E-02
RMM:  23    -0.708846035604E+03   -0.10689E-02   -0.24771E-05  6457   0.527E-03    0.111E-02
RMM:  24    -0.708846571270E+03   -0.53567E-03   -0.12747E-05  5154   0.468E-03    0.978E-03
RMM:  25    -0.708846868322E+03   -0.29705E-03   -0.82815E-06  4661   0.415E-03    0.853E-03
RMM:  26    -0.708847097162E+03   -0.22884E-03   -0.50625E-06  4212   0.373E-03    0.555E-03
RMM:  27    -0.708847295058E+03   -0.19790E-03   -0.34965E-06  3897   0.343E-03    0.480E-03
RMM:  28    -0.708847446492E+03   -0.15143E-03   -0.19555E-06  3508   0.323E-03    0.394E-03
RMM:  29    -0.708847587140E+03   -0.14065E-03   -0.78676E-07  2777   0.298E-03    0.386E-03
RMM:  30    -0.708847719015E+03   -0.13188E-03   -0.35990E-07  2399   0.287E-03    0.359E-03
RMM:  31    -0.708847819382E+03   -0.10037E-03   -0.14306E-07  2145   0.282E-03    0.252E-03
RMM:  32    -0.708847884270E+03   -0.64888E-04   -0.10501E-07  2031   0.281E-03
   3 F= -.70884788E+03 E0= -.70822052E+03  d E =-.254945E+00  mag=     8.3525
       N       E                     dE             d eps       ncg     rms          rms(c)
DAV:   1    -0.707735578423E+03    0.11122E+01   -0.22346E+02 13520   0.204E+01    0.492E+00
RMM:   2    -0.708292942825E+03   -0.55736E+00   -0.60675E+00 13440   0.343E+00    0.526E+00
RMM:   3    -0.708829952980E+03   -0.53701E+00   -0.10359E+00 14494   0.146E+00    0.904E+00
RMM:   4    -0.708817561816E+03    0.12391E-01   -0.23832E-01 13615   0.803E-01    0.944E+00
RMM:   5    -0.708440660854E+03    0.37690E+00   -0.81472E-02 13469   0.547E-01    0.483E+00
RMM:   6    -0.708370733141E+03    0.69928E-01   -0.35038E-02 13650   0.316E-01    0.234E+00
RMM:   7    -0.708360845629E+03    0.98875E-02   -0.27115E-02 13674   0.250E-01    0.168E+00
RMM:   8    -0.708355514986E+03    0.53306E-02   -0.13160E-02 13651   0.202E-01    0.964E-01
RMM:   9    -0.708353807885E+03    0.17071E-02   -0.65460E-03 13592   0.122E-01    0.472E-01
RMM:  10    -0.708354341985E+03   -0.53410E-03   -0.34314E-03 13108   0.834E-02    0.425E-01
RMM:  11    -0.708354150260E+03    0.19173E-03   -0.83935E-04 12403   0.515E-02    0.194E-01
RMM:  12    -0.708354614612E+03   -0.46435E-03   -0.41978E-04 10260   0.291E-02    0.184E-01
RMM:  13    -0.708355185216E+03   -0.57060E-03   -0.29044E-04  9208   0.264E-02    0.136E-01
RMM:  14    -0.708355428023E+03   -0.24281E-03   -0.15841E-04  8425   0.204E-02    0.719E-02
RMM:  15    -0.708355682618E+03   -0.25459E-03   -0.56217E-05  7893   0.141E-02    0.508E-02
RMM:  16    -0.708355956367E+03   -0.27375E-03   -0.24022E-05  7349   0.879E-03    0.390E-02
RMM:  17    -0.708356304948E+03   -0.34858E-03   -0.15877E-05  7114   0.628E-03    0.273E-02
RMM:  18    -0.708356656338E+03   -0.35139E-03   -0.11650E-05  6677   0.520E-03    0.195E-02
RMM:  19    -0.708356912331E+03   -0.25599E-03   -0.68053E-06  5987   0.435E-03    0.147E-02
RMM:  20    -0.708357131817E+03   -0.21949E-03   -0.41530E-06  4750   0.354E-03    0.117E-02
RMM:  21    -0.708357255981E+03   -0.12416E-03   -0.19370E-06  3894   0.316E-03    0.106E-02
RMM:  22    -0.708357432955E+03   -0.17697E-03   -0.19563E-06  3735   0.303E-03    0.958E-03
RMM:  23    -0.708357743946E+03   -0.31099E-03   -0.61364E-06  4924   0.347E-03    0.963E-03
RMM:  24    -0.708358046757E+03   -0.30281E-03   -0.68525E-06  5035   0.358E-03    0.873E-03
RMM:  25    -0.708358257074E+03   -0.21032E-03   -0.59035E-06  4829   0.360E-03    0.749E-03
RMM:  26    -0.708358404252E+03   -0.14718E-03   -0.44792E-06  4347   0.345E-03    0.641E-03
RMM:  27    -0.708358505047E+03   -0.10079E-03   -0.28538E-06  3859   0.326E-03    0.533E-03
RMM:  28    -0.708358606965E+03   -0.10192E-03   -0.24606E-06  3591   0.312E-03    0.471E-03
RMM:  29    -0.708358694831E+03   -0.87866E-04   -0.17200E-06  3257   0.304E-03
   4 F= -.70835869E+03 E0= -.70773397E+03  d E =0.489189E+00  mag=     8.2207
       N       E                     dE             d eps       ncg     rms          rms(c)
DAV:   1    -0.708661629219E+03   -0.30302E+00   -0.54380E+01 13568   0.979E+00    0.246E+00
RMM:   2    -0.708774025848E+03   -0.11240E+00   -0.11666E+00 13440   0.164E+00    0.317E+00
RMM:   3    -0.708826137600E+03   -0.52112E-01   -0.17673E-01 13627   0.710E-01    0.305E+00
RMM:   4    -0.708932515062E+03   -0.10638E+00   -0.60930E-02 13945   0.389E-01    0.548E+00
RMM:   5    -0.708792975960E+03    0.13954E+00   -0.21543E-02 13492   0.265E-01    0.207E+00
RMM:   6    -0.708784504388E+03    0.84716E-02   -0.11199E-02 13533   0.169E-01    0.118E+00
RMM:   7    -0.708781383680E+03    0.31207E-02   -0.56892E-03 13580   0.126E-01    0.745E-01
RMM:   8    -0.708780340185E+03    0.10435E-02   -0.28058E-03 13031   0.889E-02    0.423E-01
RMM:   9    -0.708780570831E+03   -0.23065E-03   -0.13892E-03 13233   0.567E-02    0.357E-01
RMM:  10    -0.708780223978E+03    0.34685E-03   -0.38689E-04 10352   0.328E-02    0.219E-01
RMM:  11    -0.708780192875E+03    0.31103E-04   -0.13919E-04  8393   0.187E-02
   5 F= -.70878019E+03 E0= -.70815406E+03  d E =0.676914E-01  mag=     8.2263
       N       E                     dE             d eps       ncg     rms          rms(c)
DAV:   1    -0.708879593932E+03   -0.99370E-01   -0.88382E+00 13792   0.402E+00    0.970E-01
RMM:   2    -0.708895149088E+03   -0.15555E-01   -0.18056E-01 13440   0.635E-01    0.106E+00
RMM:   3    -0.708898318154E+03   -0.31691E-02   -0.23691E-02 13669   0.266E-01    0.530E-01
RMM:   4    -0.708920832815E+03   -0.22515E-01   -0.85736E-03 13822   0.148E-01    0.214E+00
RMM:   5    -0.708899381131E+03    0.21452E-01   -0.24742E-03 13023   0.892E-02    0.682E-01
RMM:   6    -0.708898122688E+03    0.12584E-02   -0.16070E-03 12866   0.642E-02    0.310E-01
RMM:   7    -0.708897886361E+03    0.23633E-03   -0.61472E-04 11824   0.441E-02    0.184E-01
RMM:   8    -0.708897799154E+03    0.87206E-04   -0.36430E-04  9971   0.304E-02
   6 F= -.70889780E+03 E0= -.70827138E+03  d E =-.499149E-01  mag=     8.2418
       N       E                     dE             d eps       ncg     rms          rms(c)
DAV:   1    -0.708932563056E+03   -0.34677E-01   -0.55180E+00 13856   0.319E+00    0.713E-01
RMM:   2    -0.708943216659E+03   -0.10654E-01   -0.11165E-01 13440   0.508E-01    0.102E+00
RMM:   3    -0.708944577870E+03   -0.13612E-02   -0.15506E-02 13684   0.215E-01    0.573E-01
RMM:   4    -0.708961750580E+03   -0.17173E-01   -0.58148E-03 14072   0.120E-01    0.175E+00
RMM:   5    -0.708946836202E+03    0.14914E-01   -0.24129E-03 12889   0.866E-02    0.907E-01
RMM:   6    -0.708944950640E+03    0.18856E-02   -0.10930E-03 12567   0.574E-02    0.488E-01
RMM:   7    -0.708944111979E+03    0.83866E-03   -0.57511E-04 11546   0.409E-02    0.180E-01
RMM:   8    -0.708944013656E+03    0.98323E-04   -0.30808E-04  9523   0.296E-02
   7 F= -.70894401E+03 E0= -.70831688E+03  d E =-.961294E-01  mag=     8.2597
       N       E                     dE             d eps       ncg     rms          rms(c)
DAV:   1    -0.708706920557E+03    0.23719E+00   -0.65329E+01 13696   0.109E+01    0.263E+00
RMM:   2    -0.708819260766E+03   -0.11234E+00   -0.14992E+00 13440   0.166E+00    0.245E+00
RMM:   3    -0.708893076500E+03   -0.73816E-01   -0.21790E-01 13761   0.702E-01    0.334E+00
RMM:   4    -0.708939672849E+03   -0.46596E-01   -0.50749E-02 13841   0.368E-01    0.428E+00
RMM:   5    -0.708854873870E+03    0.84799E-01   -0.22412E-02 13489   0.262E-01    0.232E+00
RMM:   6    -0.708841171859E+03    0.13702E-01   -0.95085E-03 13415   0.165E-01    0.107E+00
RMM:   7    -0.708837749822E+03    0.34220E-02   -0.51580E-03 13376   0.118E-01    0.689E-01
RMM:   8    -0.708837719763E+03    0.30059E-04   -0.29330E-03 13095   0.917E-02    0.359E-01
RMM:   9    -0.708837564204E+03    0.15556E-03   -0.10057E-03 12665   0.558E-02    0.250E-01
RMM:  10    -0.708837323421E+03    0.24078E-03   -0.45583E-04 10712   0.332E-02    0.135E-01
RMM:  11    -0.708837338259E+03   -0.14838E-04   -0.12132E-04  8191   0.199E-02
   8 F= -.70883734E+03 E0= -.70820953E+03  d E =0.106675E+00  mag=     8.2460
       N       E                     dE             d eps       ncg     rms          rms(c)
DAV:   1    -0.708953357741E+03   -0.11603E+00   -0.28400E+01 13840   0.708E+00    0.184E+00
RMM:   2    -0.709000577793E+03   -0.47220E-01   -0.61287E-01 13440   0.108E+00    0.204E+00
RMM:   3    -0.709009322104E+03   -0.87443E-02   -0.76117E-02 13494   0.469E-01    0.119E+00
RMM:   4    -0.709058539068E+03   -0.49217E-01   -0.24018E-02 13691   0.259E-01    0.331E+00
RMM:   5    -0.709009082471E+03    0.49457E-01   -0.79503E-03 13799   0.151E-01    0.117E+00
RMM:   6    -0.709005476698E+03    0.36058E-02   -0.42011E-03 13140   0.104E-01    0.646E-01
RMM:   7    -0.709005163173E+03    0.31352E-03   -0.21818E-03 12922   0.780E-02    0.484E-01
RMM:   8    -0.709004701347E+03    0.46183E-03   -0.12579E-03 12569   0.594E-02    0.255E-01
RMM:   9    -0.709004764991E+03   -0.63644E-04   -0.59129E-04 11847   0.385E-02
   9 F= -.70900476E+03 E0= -.70837791E+03  d E =-.607513E-01  mag=     8.2549
       N       E                     dE             d eps       ncg     rms          rms(c)
DAV:   1    -0.708996311962E+03    0.83894E-02   -0.29036E+01 13728   0.745E+00    0.178E+00
RMM:   2    -0.709039474178E+03   -0.43162E-01   -0.61343E-01 13440   0.113E+00    0.159E+00
RMM:   3    -0.709053414948E+03   -0.13941E-01   -0.79982E-02 13526   0.468E-01    0.142E+00
RMM:   4    -0.709099158835E+03   -0.45744E-01   -0.21603E-02 13661   0.250E-01    0.322E+00
RMM:   5    -0.709050019259E+03    0.49140E-01   -0.79636E-03 13713   0.153E-01    0.110E+00
RMM:   6    -0.709046982382E+03    0.30369E-02   -0.56806E-03 13267   0.110E-01    0.536E-01
RMM:   7    -0.709047792538E+03   -0.81016E-03   -0.26312E-03 13054   0.852E-02    0.527E-01
RMM:   8    -0.709046717433E+03    0.10751E-02   -0.10803E-03 12516   0.618E-02    0.221E-01
RMM:   9    -0.709047056278E+03   -0.33884E-03   -0.58029E-04 11687   0.387E-02    0.256E-01
RMM:  10    -0.709046863430E+03    0.19285E-03   -0.21443E-04  9027   0.274E-02    0.951E-02
RMM:  11    -0.709046911042E+03   -0.47612E-04   -0.84913E-05  8002   0.158E-02
  10 F= -.70904691E+03 E0= -.70841864E+03  d E =-.421461E-01  mag=     8.2458
       N       E                     dE             d eps       ncg     rms          rms(c)
DAV:   1    -0.709062871814E+03   -0.16008E-01   -0.48287E+00 13904   0.302E+00    0.725E-01
RMM:   2    -0.709069716782E+03   -0.68450E-02   -0.93099E-02 13440   0.454E-01    0.729E-01
RMM:   3    -0.709077412330E+03   -0.76955E-02   -0.11746E-02 13449   0.191E-01    0.115E+00
RMM:   4    -0.709078002923E+03   -0.59059E-03   -0.39415E-03 13399   0.105E-01    0.121E+00
RMM:   5    -0.709071163832E+03    0.68391E-02   -0.14946E-03 12679   0.699E-02    0.455E-01
RMM:   6    -0.709070710402E+03    0.45343E-03   -0.94262E-04 12212   0.471E-02    0.221E-01
RMM:   7    -0.709070781870E+03   -0.71468E-04   -0.38742E-04 10589   0.336E-02    0.183E-01
RMM:   8    -0.709070641671E+03    0.14020E-03   -0.19030E-04  8557   0.259E-02    0.109E-01
RMM:   9    -0.709070625888E+03    0.15783E-04   -0.78343E-05  7911   0.167E-02
  11 F= -.70907063E+03 E0= -.70844265E+03  d E =-.658609E-01  mag=     8.2494
       N       E                     dE             d eps       ncg     rms          rms(c)
DAV:   1    -0.709119163185E+03   -0.48522E-01   -0.60702E+00 13760   0.324E+00    0.847E-01
RMM:   2    -0.709128295901E+03   -0.91327E-02   -0.11820E-01 13440   0.459E-01    0.842E-01
RMM:   3    -0.709153043471E+03   -0.24748E-01   -0.16025E-02 13479   0.204E-01    0.217E+00
RMM:   4    -0.709130613403E+03    0.22430E-01   -0.50818E-03 13419   0.124E-01    0.920E-01
RMM:   5    -0.709127904197E+03    0.27092E-02   -0.19745E-03 12843   0.695E-02    0.395E-01
RMM:   6    -0.709127712878E+03    0.19132E-03   -0.10242E-03 12181   0.477E-02    0.268E-01
RMM:   7    -0.709127846183E+03   -0.13330E-03   -0.47718E-04 10897   0.370E-02    0.185E-01
RMM:   8    -0.709127831493E+03    0.14690E-04   -0.18548E-04  8569   0.253E-02
  12 F= -.70912783E+03 E0= -.70849940E+03  d E =-.572056E-01  mag=     8.2437
       N       E                     dE             d eps       ncg     rms          rms(c)
DAV:   1    -0.709015416087E+03    0.11243E+00   -0.53076E+01 13440   0.956E+00    0.251E+00
RMM:   2    -0.709097564484E+03   -0.82148E-01   -0.11775E+00 13440   0.139E+00    0.200E+00
RMM:   3    -0.709117381069E+03   -0.19817E-01   -0.15439E-01 13592   0.586E-01    0.248E+00
RMM:   4    -0.709195980263E+03   -0.78599E-01   -0.35496E-02 13656   0.312E-01    0.436E+00
RMM:   5    -0.709103316673E+03    0.92664E-01   -0.14693E-02 13606   0.202E-01    0.980E-01
RMM:   6    -0.709108176233E+03   -0.48596E-02   -0.10049E-02 13762   0.147E-01    0.952E-01
RMM:   7    -0.709107281578E+03    0.89465E-03   -0.49127E-03 13609   0.120E-01    0.633E-01
RMM:   8    -0.709106107682E+03    0.11739E-02   -0.19095E-03 12793   0.815E-02    0.456E-01
RMM:   9    -0.709105791914E+03    0.31577E-03   -0.93932E-04 12310   0.530E-02    0.210E-01
RMM:  10    -0.709105980589E+03   -0.18867E-03   -0.33892E-04  9860   0.291E-02    0.152E-01
RMM:  11    -0.709106156627E+03   -0.17604E-03   -0.13479E-04  8227   0.195E-02    0.875E-02
RMM:  12    -0.709106316255E+03   -0.15963E-03   -0.58684E-05  7638   0.135E-02    0.530E-02
RMM:  13    -0.709106425623E+03   -0.10937E-03   -0.34049E-05  7386   0.976E-03    0.309E-02
RMM:  14    -0.709106483351E+03   -0.57728E-04   -0.14315E-05  7043   0.702E-03
  13 F= -.70910648E+03 E0= -.70847617E+03  d E =-.358575E-01  mag=     8.2040
       N       E                     dE             d eps       ncg     rms          rms(c)
DAV:   1    -0.709126827655E+03   -0.20402E-01   -0.99730E+00 13760   0.415E+00    0.105E+00
RMM:   2    -0.709140701595E+03   -0.13874E-01   -0.18609E-01 13440   0.587E-01    0.897E-01
RMM:   3    -0.709173194278E+03   -0.32493E-01   -0.23516E-02 13495   0.253E-01    0.244E+00
RMM:   4    -0.709149048356E+03    0.24146E-01   -0.73386E-03 13574   0.150E-01    0.126E+00
RMM:   5    -0.709142538593E+03    0.65098E-02   -0.31229E-03 12951   0.891E-02    0.489E-01
RMM:   6    -0.709142632543E+03   -0.93950E-04   -0.19007E-03 12881   0.658E-02    0.383E-01
RMM:   7    -0.709142468797E+03    0.16375E-03   -0.74113E-04 12003   0.466E-02    0.230E-01
RMM:   8    -0.709142435688E+03    0.33109E-04   -0.33891E-04 10190   0.318E-02
  14 F= -.70914244E+03 E0= -.70851305E+03  d E =-.718098E-01  mag=     8.2019
       N       E                     dE             d eps       ncg     rms          rms(c)
DAV:   1    -0.709196426105E+03   -0.53957E-01   -0.98220E+00 13760   0.408E+00    0.104E+00
RMM:   2    -0.709211460969E+03   -0.15035E-01   -0.19369E-01 13440   0.565E-01    0.916E-01
RMM:   3    -0.709215308680E+03   -0.38477E-02   -0.24340E-02 13482   0.242E-01    0.122E+00
RMM:   4    -0.709226604249E+03   -0.11296E-01   -0.66151E-03 13678   0.133E-01    0.183E+00
RMM:   5    -0.709209780143E+03    0.16824E-01   -0.32413E-03 12832   0.933E-02    0.483E-01
RMM:   6    -0.709209826276E+03   -0.46133E-04   -0.17796E-03 12768   0.621E-02    0.291E-01
RMM:   7    -0.709209747788E+03    0.78488E-04   -0.77445E-04 12131   0.470E-02    0.199E-01
RMM:   8    -0.709209804068E+03   -0.56280E-04   -0.29019E-04  9625   0.308E-02
  15 F= -.70920980E+03 E0= -.70857967E+03  d E =-.673684E-01  mag=     8.1811
       N       E                     dE             d eps       ncg     rms          rms(c)
DAV:   1    -0.709207633623E+03    0.21142E-02   -0.48064E-01 13856   0.907E-01    0.255E-01
RMM:   2    -0.709209240268E+03   -0.16066E-02   -0.96378E-03 13438   0.129E-01    0.427E-01
RMM:   3    -0.709208487733E+03    0.75253E-03   -0.12923E-03 12466   0.632E-02    0.200E-01
RMM:   4    -0.709208514383E+03   -0.26650E-04   -0.50054E-04 10141   0.357E-02    0.255E-01
RMM:   5    -0.709208809931E+03   -0.29555E-03   -0.17550E-04  8306   0.231E-02    0.322E-01
RMM:   6    -0.709208310795E+03    0.49914E-03   -0.99674E-05  7866   0.179E-02    0.983E-02
RMM:   7    -0.709208450997E+03   -0.14020E-03   -0.78426E-05  7561   0.143E-02    0.926E-02
RMM:   8    -0.709208525183E+03   -0.74185E-04   -0.38466E-05  6907   0.122E-02
  16 F= -.70920853E+03 E0= -.70857854E+03  d E =-.660895E-01  mag=     8.1639
       N       E                     dE             d eps       ncg     rms          rms(c)
DAV:   1    -0.709210984725E+03   -0.25337E-02   -0.15283E-01 13872   0.511E-01    0.130E-01
RMM:   2    -0.709211525274E+03   -0.54055E-03   -0.27916E-03 12448   0.700E-02    0.155E-01
RMM:   3    -0.709212081492E+03   -0.55622E-03   -0.36369E-04  8863   0.316E-02    0.305E-01
RMM:   4    -0.709211778021E+03    0.30347E-03   -0.13779E-04  7697   0.211E-02    0.131E-01
RMM:   5    -0.709211861047E+03   -0.83026E-04   -0.53408E-05  7083   0.130E-02    0.637E-02
RMM:   6    -0.709211925339E+03   -0.64292E-04   -0.26679E-05  6415   0.863E-03    0.337E-02
RMM:   7    -0.709212140406E+03   -0.21507E-03   -0.15281E-05  6345   0.693E-03    0.268E-02
RMM:   8    -0.709212205276E+03   -0.64870E-04   -0.54809E-06  5736   0.491E-03
  17 F= -.70921221E+03 E0= -.70858220E+03  d E =-.697696E-01  mag=     8.1530
       N       E                     dE             d eps       ncg     rms          rms(c)
DAV:   1    -0.709252903130E+03   -0.40763E-01   -0.87367E-01 13840   0.148E+00    0.297E-01
RMM:   2    -0.709255796975E+03   -0.28938E-02   -0.19891E-02 13440   0.256E-01    0.667E-01
RMM:   3    -0.709255499808E+03    0.29717E-03   -0.28260E-03 13663   0.101E-01    0.443E-01
RMM:   4    -0.709255885321E+03   -0.38551E-03   -0.92626E-04 12808   0.545E-02    0.549E-01
RMM:   5    -0.709254706032E+03    0.11793E-02   -0.40510E-04 10744   0.356E-02    0.314E-01
RMM:   6    -0.709254402633E+03    0.30340E-03   -0.16168E-04  8231   0.251E-02    0.194E-01
RMM:   7    -0.709254415263E+03   -0.12630E-04   -0.19453E-04  8302   0.231E-02    0.172E-01
RMM:   8    -0.709254374850E+03    0.40412E-04   -0.93279E-05  7819   0.198E-02
  18 F= -.70925437E+03 E0= -.70862464E+03  d E =-.421696E-01  mag=     8.1409
       N       E                     dE             d eps       ncg     rms          rms(c)
DAV:   1    -0.709258382745E+03   -0.39675E-02   -0.14911E-01 13888   0.611E-01    0.129E-01
RMM:   2    -0.709258856885E+03   -0.47414E-03   -0.33276E-03 13426   0.106E-01    0.214E-01
RMM:   3    -0.709258851404E+03    0.54814E-05   -0.50607E-04 11242   0.415E-02    0.153E-01
RMM:   4    -0.709259164702E+03   -0.31330E-03   -0.17934E-04  8166   0.240E-02    0.303E-01
RMM:   5    -0.709258767920E+03    0.39678E-03   -0.71140E-05  7729   0.179E-02    0.136E-01
RMM:   6    -0.709258709246E+03    0.58675E-04   -0.30004E-05  7215   0.103E-02    0.646E-02
RMM:   7    -0.709258827830E+03   -0.11858E-03   -0.33298E-05  7126   0.920E-03    0.599E-02
RMM:   8    -0.709258856540E+03   -0.28709E-04   -0.12852E-05  6541   0.779E-03
  19 F= -.70925886E+03 E0= -.70862923E+03  d E =-.466513E-01  mag=     8.1293
       N       E                     dE             d eps       ncg     rms          rms(c)
DAV:   1    -0.709289349456E+03   -0.30522E-01   -0.64878E-01 13888   0.119E+00    0.244E-01
RMM:   2    -0.709291141536E+03   -0.17921E-02   -0.14497E-02 13440   0.208E-01    0.490E-01
RMM:   3    -0.709290723759E+03    0.41778E-03   -0.21629E-03 13666   0.856E-02    0.196E-01
RMM:   4    -0.709292513879E+03   -0.17901E-02   -0.76220E-04 12687   0.438E-02    0.596E-01
RMM:   5    -0.709290737571E+03    0.17763E-02   -0.28654E-04  9454   0.306E-02    0.249E-01
RMM:   6    -0.709290599876E+03    0.13770E-03   -0.11981E-04  8020   0.211E-02    0.102E-01
RMM:   7    -0.709290821252E+03   -0.22138E-03   -0.10460E-04  7909   0.167E-02    0.156E-01
RMM:   8    -0.709290876151E+03   -0.54899E-04   -0.54581E-05  7555   0.150E-02
  20 F= -.70929088E+03 E0= -.70866160E+03  d E =-.320196E-01  mag=     8.1196
       N       E                     dE             d eps       ncg     rms          rms(c)
DAV:   1    -0.709298665925E+03   -0.78447E-02   -0.31675E-01 13888   0.834E-01    0.173E-01
RMM:   2    -0.709299541466E+03   -0.87554E-03   -0.70600E-03 13440   0.145E-01    0.297E-01
RMM:   3    -0.709299431380E+03    0.11009E-03   -0.10944E-03 13162   0.591E-02    0.128E-01
RMM:   4    -0.709299725447E+03   -0.29407E-03   -0.35242E-04  9388   0.308E-02    0.290E-01
RMM:   5    -0.709299617151E+03    0.10830E-03   -0.11550E-04  7961   0.218E-02    0.206E-01
RMM:   6    -0.709299472366E+03    0.14478E-03   -0.58819E-05  7777   0.142E-02    0.107E-01
RMM:   7    -0.709299584743E+03   -0.11238E-03   -0.58607E-05  7639   0.137E-02    0.885E-02
RMM:   8    -0.709299632720E+03   -0.47976E-04   -0.32053E-05  7371   0.115E-02
  21 F= -.70929963E+03 E0= -.70867041E+03  d E =-.407762E-01  mag=     8.1121
       N       E                     dE             d eps       ncg     rms          rms(c)
DAV:   1    -0.709320443959E+03   -0.20859E-01   -0.33576E-01 13888   0.846E-01    0.177E-01
RMM:   2    -0.709321696225E+03   -0.12523E-02   -0.72652E-03 13440   0.148E-01    0.400E-01
RMM:   3    -0.709321512150E+03    0.18407E-03   -0.11870E-03 13395   0.613E-02    0.228E-01
RMM:   4    -0.709321865860E+03   -0.35371E-03   -0.40209E-04 10096   0.332E-02    0.364E-01
RMM:   5    -0.709321436546E+03    0.42931E-03   -0.14503E-04  8032   0.248E-02    0.198E-01
RMM:   6    -0.709321386079E+03    0.50467E-04   -0.71611E-05  7726   0.164E-02    0.130E-01
RMM:   7    -0.709321480158E+03   -0.94079E-04   -0.59786E-05  7604   0.133E-02    0.811E-02
RMM:   8    -0.709321532690E+03   -0.52531E-04   -0.30586E-05  7293   0.107E-02
  22 F= -.70932153E+03 E0= -.70869263E+03  d E =-.219000E-01  mag=     8.1073
       N       E                     dE             d eps       ncg     rms          rms(c)
DAV:   1    -0.709332102707E+03   -0.10623E-01   -0.34187E-01 13856   0.855E-01    0.178E-01
RMM:   2    -0.709333013998E+03   -0.91129E-03   -0.74167E-03 13440   0.149E-01    0.301E-01
RMM:   3    -0.709332952982E+03    0.61016E-04   -0.11997E-03 13313   0.616E-02    0.123E-01
RMM:   4    -0.709334153034E+03   -0.12001E-02   -0.41604E-04 10488   0.327E-02    0.506E-01
RMM:   5    -0.709333032538E+03    0.11205E-02   -0.13172E-04  7960   0.237E-02    0.165E-01
RMM:   6    -0.709333054116E+03   -0.21579E-04   -0.78354E-05  7764   0.162E-02    0.145E-01
RMM:   7    -0.709333091460E+03   -0.37343E-04   -0.60842E-05  7665   0.139E-02    0.895E-02
RMM:   8    -0.709333120650E+03   -0.29190E-04   -0.34744E-05  7402   0.115E-02
  23 F= -.70933312E+03 E0= -.70870441E+03  d E =-.334879E-01  mag=     8.1049
       N       E                     dE             d eps       ncg     rms          rms(c)
DAV:   1    -0.709327171601E+03    0.59199E-02   -0.13677E+00 13664   0.171E+00    0.353E-01
RMM:   2    -0.709330855096E+03   -0.36835E-02   -0.29612E-02 13440   0.298E-01    0.684E-01
RMM:   3    -0.709330566711E+03    0.28838E-03   -0.47239E-03 14258   0.123E-01    0.339E-01
RMM:   4    -0.709334719326E+03   -0.41526E-02   -0.16590E-03 13348   0.652E-02    0.973E-01
RMM:   5    -0.709330574061E+03    0.41453E-02   -0.54370E-04 11984   0.451E-02    0.373E-01
RMM:   6    -0.709330302439E+03    0.27162E-03   -0.28283E-04  9103   0.290E-02    0.266E-01
RMM:   7    -0.709330310279E+03   -0.78403E-05   -0.23581E-04  8823   0.265E-02    0.183E-01
RMM:   8    -0.709330266512E+03    0.43767E-04   -0.13682E-04  8045   0.211E-02
  24 F= -.70933027E+03 E0= -.70870221E+03  d E =-.306338E-01  mag=     8.1047
       N       E                     dE             d eps       ncg     rms          rms(c)
DAV:   1    -0.709334525740E+03   -0.42155E-02   -0.47638E-01 13872   0.101E+00    0.226E-01
RMM:   2    -0.709336350345E+03   -0.18246E-02   -0.10571E-02 13440   0.179E-01    0.527E-01
RMM:   3    -0.709335891541E+03    0.45880E-03   -0.15605E-03 13193   0.774E-02    0.283E-01
RMM:   4    -0.709336520422E+03   -0.62888E-03   -0.67116E-04 12053   0.412E-02    0.457E-01
RMM:   5    -0.709335631614E+03    0.88881E-03   -0.21367E-04  8445   0.272E-02    0.197E-01
RMM:   6    -0.709335533380E+03    0.98233E-04   -0.10801E-04  7796   0.207E-02    0.147E-01
RMM:   7    -0.709335629388E+03   -0.96007E-04   -0.80179E-05  7643   0.154E-02    0.141E-01
RMM:   8    -0.709335579395E+03    0.49992E-04   -0.59870E-05  7381   0.134E-02
  25 F= -.70933558E+03 E0= -.70870717E+03  d E =-.359467E-01  mag=     8.1053
       N       E                     dE             d eps       ncg     rms          rms(c)
DAV:   1    -0.709352463029E+03   -0.16834E-01   -0.45157E-01 13856   0.975E-01    0.217E-01
RMM:   2    -0.709354283968E+03   -0.18209E-02   -0.95048E-03 13440   0.176E-01    0.532E-01
RMM:   3    -0.709353769902E+03    0.51407E-03   -0.16860E-03 13754   0.738E-02    0.269E-01
RMM:   4    -0.709354292432E+03   -0.52253E-03   -0.50951E-04 11860   0.393E-02    0.429E-01
RMM:   5    -0.709353579471E+03    0.71296E-03   -0.18958E-04  8265   0.275E-02    0.213E-01
RMM:   6    -0.709353516419E+03    0.63052E-04   -0.14426E-04  8082   0.208E-02    0.136E-01
RMM:   7    -0.709353468927E+03    0.47493E-04   -0.74555E-05  7700   0.172E-02    0.601E-02
RMM:   8    -0.709353482197E+03   -0.13270E-04   -0.28838E-05  7233   0.979E-03
  26 F= -.70935348E+03 E0= -.70872537E+03  d E =-.179028E-01  mag=     8.1050
       N       E                     dE             d eps       ncg     rms          rms(c)
DAV:   1    -0.709364053533E+03   -0.10585E-01   -0.72468E-01 13744   0.123E+00    0.250E-01
RMM:   2    -0.709365515925E+03   -0.14624E-02   -0.14925E-02 13440   0.220E-01    0.369E-01
RMM:   3    -0.709365604939E+03   -0.89014E-04   -0.26953E-03 14623   0.892E-02    0.168E-01
RMM:   4    -0.709367999137E+03   -0.23942E-02   -0.66405E-04 12530   0.436E-02    0.724E-01
RMM:   5    -0.709365740531E+03    0.22586E-02   -0.22113E-04  8495   0.294E-02    0.247E-01
RMM:   6    -0.709365757042E+03   -0.16511E-04   -0.20200E-04  8589   0.244E-02    0.190E-01
RMM:   7    -0.709365651646E+03    0.10540E-03   -0.10459E-04  7861   0.200E-02    0.747E-02
RMM:   8    -0.709365672260E+03   -0.20614E-04   -0.45492E-05  7683   0.128E-02
  27 F= -.70936567E+03 E0= -.70873792E+03  d E =-.300929E-01  mag=     8.1054
       N       E                     dE             d eps       ncg     rms          rms(c)
DAV:   1    -0.709387792987E+03   -0.22141E-01   -0.60925E-01 13888   0.114E+00    0.282E-01
RMM:   2    -0.709388760517E+03   -0.96753E-03   -0.13770E-02 13440   0.202E-01    0.399E-01
RMM:   3    -0.709389866357E+03   -0.11058E-02   -0.21778E-03 13839   0.821E-02    0.455E-01
RMM:   4    -0.709389583016E+03    0.28334E-03   -0.66502E-04 12397   0.439E-02    0.402E-01
RMM:   5    -0.709389015520E+03    0.56750E-03   -0.29263E-04  9363   0.306E-02    0.224E-01
RMM:   6    -0.709388899894E+03    0.11563E-03   -0.12647E-04  7986   0.233E-02    0.987E-02
RMM:   7    -0.709388964446E+03   -0.64553E-04   -0.89183E-05  7842   0.167E-02    0.113E-01
RMM:   8    -0.709388926316E+03    0.38130E-04   -0.43781E-05  7583   0.140E-02
  28 F= -.70938893E+03 E0= -.70876130E+03  d E =-.232541E-01  mag=     8.1052
       N       E                     dE             d eps       ncg     rms          rms(c)
DAV:   1    -0.709399351463E+03   -0.10387E-01   -0.13465E+00 13872   0.170E+00    0.395E-01
RMM:   2    -0.709401597112E+03   -0.22456E-02   -0.29929E-02 13440   0.300E-01    0.599E-01
RMM:   3    -0.709403520869E+03   -0.19238E-02   -0.47859E-03 14015   0.122E-01    0.639E-01
RMM:   4    -0.709403026806E+03    0.49406E-03   -0.13602E-03 13190   0.634E-02    0.557E-01
RMM:   5    -0.709402019701E+03    0.10071E-02   -0.67236E-04 12270   0.455E-02    0.372E-01
RMM:   6    -0.709401647430E+03    0.37227E-03   -0.23715E-04  8869   0.295E-02    0.150E-01
RMM:   7    -0.709401724569E+03   -0.77139E-04   -0.18442E-04  8503   0.223E-02    0.147E-01
RMM:   8    -0.709401701700E+03    0.22869E-04   -0.82935E-05  7876   0.187E-02
  29 F= -.70940170E+03 E0= -.70877430E+03  d E =-.360294E-01  mag=     8.1036
       N       E                     dE             d eps       ncg     rms          rms(c)
DAV:   1    -0.709413909028E+03   -0.12184E-01   -0.33951E-01 13888   0.853E-01    0.231E-01
RMM:   2    -0.709414352729E+03   -0.44370E-03   -0.77165E-03 13440   0.149E-01    0.287E-01
RMM:   3    -0.709415628080E+03   -0.12754E-02   -0.12659E-03 13241   0.622E-02    0.503E-01
RMM:   4    -0.709414341044E+03    0.12870E-02   -0.34895E-04  9593   0.335E-02    0.133E-01
RMM:   5    -0.709414480799E+03   -0.13976E-03   -0.18416E-04  8207   0.244E-02    0.211E-01
RMM:   6    -0.709414336556E+03    0.14424E-03   -0.11010E-04  7891   0.208E-02    0.839E-02
RMM:   7    -0.709414347179E+03   -0.10623E-04   -0.56196E-05  7695   0.134E-02    0.865E-02
RMM:   8    -0.709414320254E+03    0.26924E-04   -0.27761E-05  7307   0.113E-02
  30 F= -.70941432E+03 E0= -.70878703E+03  d E =-.126186E-01  mag=     8.1006
       N       E                     dE             d eps       ncg     rms          rms(c)
DAV:   1    -0.709416197320E+03   -0.18501E-02   -0.11465E-01 13888   0.495E-01    0.134E-01
RMM:   2    -0.709416281441E+03   -0.84121E-04   -0.26277E-03 13333   0.863E-02    0.163E-01
RMM:   3    -0.709416655763E+03   -0.37432E-03   -0.40914E-04  9884   0.359E-02    0.272E-01
RMM:   4    -0.709416296333E+03    0.35943E-03   -0.12027E-04  7834   0.215E-02    0.805E-02
RMM:   5    -0.709416327894E+03   -0.31561E-04   -0.65537E-05  7601   0.144E-02    0.109E-01
RMM:   6    -0.709416290230E+03    0.37664E-04   -0.28698E-05  7177   0.112E-02    0.341E-02
RMM:   7    -0.709416313526E+03   -0.23296E-04   -0.18246E-05  6680   0.711E-03    0.479E-02
RMM:   8    -0.709416315358E+03   -0.18323E-05   -0.83300E-06  6398   0.628E-03
  31 F= -.70941632E+03 E0= -.70878908E+03  d E =-.146137E-01  mag=     8.0968
       N       E                     dE             d eps       ncg     rms          rms(c)
DAV:   1    -0.709428345765E+03   -0.12032E-01   -0.75386E-02 13888   0.441E-01    0.784E-02
RMM:   2    -0.709428603070E+03   -0.25731E-03   -0.17970E-03 13357   0.766E-02    0.163E-01
RMM:   3    -0.709428586458E+03    0.16612E-04   -0.24362E-04  8105   0.305E-02    0.655E-02
RMM:   4    -0.709428893788E+03   -0.30733E-03   -0.78188E-05  7542   0.179E-02    0.254E-01
RMM:   5    -0.709428614995E+03    0.27879E-03   -0.29183E-05  7279   0.113E-02    0.749E-02
RMM:   6    -0.709428621300E+03   -0.63051E-05   -0.12391E-05  6576   0.632E-03    0.613E-02
RMM:   7    -0.709428633896E+03   -0.12595E-04   -0.61960E-06  5980   0.511E-03    0.563E-02
RMM:   8    -0.709428649839E+03   -0.15943E-04   -0.57816E-06  6035   0.453E-03
  32 F= -.70942865E+03 E0= -.70880139E+03  d E =-.123345E-01  mag=     8.0934
       N       E                     dE             d eps       ncg     rms          rms(c)
DAV:   1    -0.709437710172E+03   -0.90763E-02   -0.39414E-01 13872   0.101E+00    0.184E-01
RMM:   2    -0.709439097831E+03   -0.13877E-02   -0.92784E-03 13440   0.174E-01    0.444E-01
RMM:   3    -0.709438668497E+03    0.42933E-03   -0.12940E-03 13475   0.689E-02    0.213E-01
RMM:   4    -0.709439462968E+03   -0.79447E-03   -0.35095E-04  9579   0.345E-02    0.423E-01
RMM:   5    -0.709438772327E+03    0.69064E-03   -0.19142E-04  8268   0.280E-02    0.233E-01
RMM:   6    -0.709438614371E+03    0.15796E-03   -0.77638E-05  7744   0.177E-02    0.132E-01
RMM:   7    -0.709438615068E+03   -0.69742E-06   -0.70404E-05  7697   0.140E-02    0.120E-01
RMM:   8    -0.709438569826E+03    0.45242E-04   -0.40300E-05  7382   0.131E-02
  33 F= -.70943857E+03 E0= -.70881128E+03  d E =-.222545E-01  mag=     8.0886
       N       E                     dE             d eps       ncg     rms          rms(c)
DAV:   1    -0.709445748223E+03   -0.71332E-02   -0.83363E-02 13888   0.456E-01    0.108E-01
RMM:   2    -0.709446018914E+03   -0.27069E-03   -0.20260E-03 13396   0.805E-02    0.168E-01
RMM:   3    -0.709446084401E+03   -0.65487E-04   -0.30653E-04  8645   0.333E-02    0.167E-01
RMM:   4    -0.709446109117E+03   -0.24716E-04   -0.10237E-04  7692   0.211E-02    0.186E-01
RMM:   5    -0.709445990947E+03    0.11817E-03   -0.37863E-05  7457   0.123E-02    0.774E-02
RMM:   6    -0.709445978664E+03    0.12283E-04   -0.23554E-05  7064   0.886E-03    0.556E-02
RMM:   7    -0.709445987917E+03   -0.92525E-05   -0.16338E-05  6598   0.790E-03    0.468E-02
RMM:   8    -0.709445987840E+03    0.76376E-07   -0.67447E-06  6153   0.572E-03
  34 F= -.70944599E+03 E0= -.70881859E+03  d E =-.741801E-02  mag=     8.0840
       N       E                     dE             d eps       ncg     rms          rms(c)
DAV:   1    -0.709448930538E+03   -0.29426E-02   -0.12416E-01 13888   0.557E-01    0.105E-01
RMM:   2    -0.709449292887E+03   -0.36235E-03   -0.30178E-03 13429   0.977E-02    0.190E-01
RMM:   3    -0.709449289299E+03    0.35872E-05   -0.41437E-04  9981   0.389E-02    0.106E-01
RMM:   4    -0.709449656428E+03   -0.36713E-03   -0.13277E-04  7867   0.223E-02    0.281E-01
RMM:   5    -0.709449341140E+03    0.31529E-03   -0.61994E-05  7562   0.161E-02    0.111E-01
RMM:   6    -0.709449316986E+03    0.24154E-04   -0.26321E-05  7278   0.101E-02    0.654E-02
RMM:   7    -0.709449334820E+03   -0.17834E-04   -0.17332E-05  6696   0.763E-03    0.483E-02
RMM:   8    -0.709449356074E+03   -0.21254E-04   -0.10405E-05  6522   0.648E-03
  35 F= -.70944936E+03 E0= -.70882188E+03  d E =-.107862E-01  mag=     8.0805
       N       E                     dE             d eps       ncg     rms          rms(c)
DAV:   1    -0.709452420775E+03   -0.30860E-02   -0.18446E-02 13904   0.223E-01    0.422E-02
RMM:   2    -0.709452479092E+03   -0.58317E-04   -0.39619E-04  9106   0.379E-02    0.917E-02
RMM:   3    -0.709452457718E+03    0.21373E-04   -0.60934E-05  7189   0.185E-02    0.242E-02
RMM:   4    -0.709452506140E+03   -0.48422E-04   -0.16000E-05  7148   0.790E-03    0.934E-02
RMM:   5    -0.709452463629E+03    0.42511E-04   -0.58528E-06  6277   0.534E-03    0.267E-02
RMM:   6    -0.709452468728E+03   -0.50992E-05   -0.20891E-06  3792   0.332E-03    0.243E-02
RMM:   7    -0.709452484979E+03   -0.16251E-04   -0.20214E-06  4347   0.340E-03    0.122E-02
RMM:   8    -0.709452500794E+03   -0.15815E-04   -0.28256E-07  2142   0.285E-03
  36 F= -.70945250E+03 E0= -.70882501E+03  d E =-.314472E-02  mag=     8.0772
       N       E                     dE             d eps       ncg     rms          rms(c)
DAV:   1    -0.709454445657E+03   -0.19607E-02   -0.58477E-02 13888   0.397E-01    0.588E-02
RMM:   2    -0.709454570375E+03   -0.12472E-03   -0.11711E-03 13209   0.657E-02    0.104E-01
RMM:   3    -0.709454577767E+03   -0.73925E-05   -0.17622E-04  7588   0.258E-02    0.470E-02
RMM:   4    -0.709454750251E+03   -0.17248E-03   -0.45594E-05  7279   0.149E-02    0.185E-01
RMM:   5    -0.709454586767E+03    0.16348E-03   -0.16367E-05  7083   0.856E-03    0.495E-02
RMM:   6    -0.709454607551E+03   -0.20784E-04   -0.99789E-06  6341   0.547E-03    0.490E-02
RMM:   7    -0.709454623974E+03   -0.16423E-04   -0.44013E-06  5761   0.460E-03    0.432E-02
RMM:   8    -0.709454640636E+03   -0.16662E-04   -0.21986E-06  4147   0.344E-03
  37 F= -.70945464E+03 E0= -.70882714E+03  d E =-.528456E-02  mag=     8.0749
       N       E                     dE             d eps       ncg     rms          rms(c)
DAV:   1    -0.709457083852E+03   -0.24599E-02   -0.28004E-02 13888   0.273E-01    0.549E-02
RMM:   2    -0.709457167753E+03   -0.83901E-04   -0.57318E-04 11214   0.472E-02    0.100E-01
RMM:   3    -0.709457161915E+03    0.58379E-05   -0.91493E-05  7237   0.198E-02    0.582E-02
RMM:   4    -0.709457211176E+03   -0.49262E-04   -0.24874E-05  7168   0.110E-02    0.107E-01
RMM:   5    -0.709457168544E+03    0.42632E-04   -0.13574E-05  6925   0.722E-03    0.558E-02
RMM:   6    -0.709457169773E+03   -0.12281E-05   -0.61927E-06  6100   0.512E-03    0.333E-02
RMM:   7    -0.709457177610E+03   -0.78377E-05   -0.26664E-06  4949   0.376E-03    0.296E-02
RMM:   8    -0.709457182155E+03   -0.45443E-05   -0.10967E-06  3279   0.318E-03
  38 F= -.70945718E+03 E0= -.70882971E+03  d E =-.254152E-02  mag=     8.0728
       N       E                     dE             d eps       ncg     rms          rms(c)
DAV:   1    -0.709458894351E+03   -0.17167E-02   -0.13217E-01 13888   0.592E-01    0.100E-01
RMM:   2    -0.709459308473E+03   -0.41412E-03   -0.26768E-03 13440   0.102E-01    0.249E-01
RMM:   3    -0.709459180456E+03    0.12802E-03   -0.45366E-04 11354   0.405E-02    0.130E-01
RMM:   4    -0.709459365142E+03   -0.18469E-03   -0.10401E-04  7799   0.213E-02    0.218E-01
RMM:   5    -0.709459186973E+03    0.17817E-03   -0.56578E-05  7465   0.155E-02    0.129E-01
RMM:   6    -0.709459142617E+03    0.44356E-04   -0.25549E-05  7198   0.934E-03    0.749E-02
RMM:   7    -0.709459151654E+03   -0.90376E-05   -0.18440E-05  7010   0.789E-03    0.669E-02
RMM:   8    -0.709459141672E+03    0.99827E-05   -0.10486E-05  6401   0.675E-03
  39 F= -.70945914E+03 E0= -.70883171E+03  d E =-.450104E-02  mag=     8.0707
       N       E                     dE             d eps       ncg     rms          rms(c)
DAV:   1    -0.709461073457E+03   -0.19218E-02   -0.28007E-02 13872   0.266E-01    0.560E-02
RMM:   2    -0.709461182442E+03   -0.10899E-03   -0.54502E-04 10881   0.446E-02    0.112E-01
RMM:   3    -0.709461206096E+03   -0.23653E-04   -0.96009E-05  7343   0.204E-02    0.115E-01
RMM:   4    -0.709461152510E+03    0.53586E-04   -0.29516E-05  7151   0.116E-02    0.595E-02
RMM:   5    -0.709461154915E+03   -0.24046E-05   -0.11326E-05  6731   0.668E-03    0.380E-02
RMM:   6    -0.709461159537E+03   -0.46227E-05   -0.59184E-06  6177   0.512E-03    0.273E-02
RMM:   7    -0.709461166686E+03   -0.71489E-05   -0.35142E-06  5271   0.398E-03    0.222E-02
RMM:   8    -0.709461177044E+03   -0.10358E-04   -0.10113E-06  3276   0.322E-03
  40 F= -.70946118E+03 E0= -.70883378E+03  d E =-.203537E-02  mag=     8.0692
       N       E                     dE             d eps       ncg     rms          rms(c)
DAV:   1    -0.709462967262E+03   -0.18006E-02   -0.25229E-01 13728   0.799E-01    0.132E-01
RMM:   2    -0.709463534334E+03   -0.56707E-03   -0.46772E-03 13439   0.132E-01    0.250E-01
RMM:   3    -0.709463496754E+03    0.37579E-04   -0.74434E-04 12837   0.541E-02    0.160E-01
RMM:   4    -0.709463621495E+03   -0.12474E-03   -0.21670E-04  8506   0.269E-02    0.199E-01
RMM:   5    -0.709463470631E+03    0.15086E-03   -0.95900E-05  7860   0.205E-02    0.122E-01
RMM:   6    -0.709463434258E+03    0.36374E-04   -0.36483E-05  7433   0.117E-02    0.505E-02
RMM:   7    -0.709463465759E+03   -0.31502E-04   -0.32671E-05  7355   0.957E-03    0.654E-02
RMM:   8    -0.709463458384E+03    0.73754E-05   -0.15867E-05  6670   0.865E-03
  41 F= -.70946346E+03 E0= -.70883611E+03  d E =-.431671E-02  mag=     8.0691
       N       E                     dE             d eps       ncg     rms          rms(c)
DAV:   1    -0.709466186135E+03   -0.27204E-02   -0.26376E-02 13920   0.259E-01    0.577E-02
RMM:   2    -0.709466316187E+03   -0.13005E-03   -0.71051E-04 11443   0.506E-02    0.153E-01
RMM:   3    -0.709466279987E+03    0.36200E-04   -0.10997E-04  7435   0.210E-02    0.103E-01
RMM:   4    -0.709466264727E+03    0.15260E-04   -0.27054E-05  7250   0.120E-02    0.691E-02
RMM:   5    -0.709466279341E+03   -0.14614E-04   -0.18584E-05  6834   0.711E-03    0.729E-02
RMM:   6    -0.709466268597E+03    0.10744E-04   -0.71710E-06  6213   0.603E-03    0.348E-02
RMM:   7    -0.709466277783E+03   -0.91861E-05   -0.81347E-06  6461   0.449E-03    0.338E-02
RMM:   8    -0.709466276267E+03    0.15157E-05   -0.35993E-06  5472   0.442E-03
  42 F= -.70946628E+03 E0= -.70883895E+03  d E =-.281788E-02  mag=     8.0696
       N       E                     dE             d eps       ncg     rms          rms(c)
DAV:   1    -0.709467728605E+03   -0.14508E-02   -0.65939E-02 13904   0.409E-01    0.912E-02
RMM:   2    -0.709467994483E+03   -0.26588E-03   -0.17797E-03 13409   0.799E-02    0.230E-01
RMM:   3    -0.709467923619E+03    0.70864E-04   -0.27069E-04  8463   0.311E-02    0.158E-01
RMM:   4    -0.709467882319E+03    0.41301E-04   -0.68720E-05  7478   0.190E-02    0.109E-01
RMM:   5    -0.709467894325E+03   -0.12007E-04   -0.42135E-05  7336   0.108E-02    0.113E-01
RMM:   6    -0.709467856876E+03    0.37450E-04   -0.19500E-05  6843   0.939E-03    0.546E-02
RMM:   7    -0.709467867832E+03   -0.10956E-04   -0.24346E-05  7115   0.789E-03    0.690E-02
RMM:   8    -0.709467848940E+03    0.18891E-04   -0.13622E-05  6456   0.811E-03
  43 F= -.70946785E+03 E0= -.70884057E+03  d E =-.439056E-02  mag=     8.0711
       N       E                     dE             d eps       ncg     rms          rms(c)
DAV:   1    -0.709470092808E+03   -0.22250E-02   -0.30927E-02 13920   0.273E-01    0.631E-02
RMM:   2    -0.709470257132E+03   -0.16432E-03   -0.83008E-04 11796   0.510E-02    0.190E-01
RMM:   3    -0.709470168883E+03    0.88249E-04   -0.12241E-04  7417   0.218E-02    0.106E-01
RMM:   4    -0.709470166085E+03    0.27978E-05   -0.33590E-05  7223   0.130E-02    0.885E-02
RMM:   5    -0.709470170566E+03   -0.44807E-05   -0.20895E-05  6851   0.764E-03    0.784E-02
RMM:   6    -0.709470160574E+03    0.99921E-05   -0.95821E-06  6336   0.654E-03    0.375E-02
RMM:   7    -0.709470175360E+03   -0.14786E-04   -0.94960E-06  6427   0.512E-03    0.408E-02
RMM:   8    -0.709470176722E+03   -0.13620E-05   -0.50180E-06  5873   0.507E-03
  44 F= -.70947018E+03 E0= -.70884296E+03  d E =-.232778E-02  mag=     8.0722
       N       E                     dE             d eps       ncg     rms          rms(c)
DAV:   1    -0.709471371283E+03   -0.11959E-02   -0.68609E-02 13872   0.406E-01    0.953E-02
RMM:   2    -0.709471737212E+03   -0.36593E-03   -0.18776E-03 13363   0.763E-02    0.276E-01
RMM:   3    -0.709471569682E+03    0.16753E-03   -0.27343E-04  8456   0.311E-02    0.166E-01
RMM:   4    -0.709471547073E+03    0.22608E-04   -0.80406E-05  7456   0.199E-02    0.135E-01
RMM:   5    -0.709471547964E+03   -0.89017E-06   -0.48037E-05  7331   0.116E-02    0.120E-01
RMM:   6    -0.709471513087E+03    0.34876E-04   -0.22136E-05  6852   0.982E-03    0.618E-02
RMM:   7    -0.709471536308E+03   -0.23221E-04   -0.23530E-05  7039   0.790E-03    0.652E-02
RMM:   8    -0.709471526344E+03    0.99643E-05   -0.12733E-05  6422   0.784E-03
  45 F= -.70947153E+03 E0= -.70884442E+03  d E =-.367740E-02  mag=     8.0730
       N       E                     dE             d eps       ncg     rms          rms(c)
DAV:   1    -0.709473645940E+03   -0.21096E-02   -0.32429E-02 14000   0.269E-01    0.608E-02
RMM:   2    -0.709473773835E+03   -0.12789E-03   -0.81132E-04 11040   0.452E-02    0.147E-01
RMM:   3    -0.709473765564E+03    0.82708E-05   -0.10738E-04  7351   0.204E-02    0.122E-01
RMM:   4    -0.709473722767E+03    0.42798E-04   -0.32657E-05  7191   0.121E-02    0.737E-02
RMM:   5    -0.709473719799E+03    0.29681E-05   -0.15372E-05  6668   0.701E-03    0.535E-02
RMM:   6    -0.709473711354E+03    0.84448E-05   -0.84266E-06  6067   0.581E-03    0.213E-02
RMM:   7    -0.709473720000E+03   -0.86463E-05   -0.58323E-06  5963   0.439E-03    0.270E-02
RMM:   8    -0.709473719216E+03    0.78380E-06   -0.26089E-06  4966   0.399E-03
  46 F= -.70947372E+03 E0= -.70884668E+03  d E =-.219287E-02  mag=     8.0736
       N       E                     dE             d eps       ncg     rms          rms(c)
DAV:   1    -0.709476368720E+03   -0.26487E-02   -0.29154E-01 13856   0.806E-01    0.191E-01
RMM:   2    -0.709477716049E+03   -0.13473E-02   -0.76691E-03 13440   0.137E-01    0.513E-01
RMM:   3    -0.709477551367E+03    0.16468E-03   -0.97596E-04 12962   0.594E-02    0.406E-01
RMM:   4    -0.709476932475E+03    0.61889E-03   -0.30176E-04  9105   0.320E-02    0.198E-01
RMM:   5    -0.709476904496E+03    0.27980E-04   -0.16295E-04  8105   0.235E-02    0.164E-01
RMM:   6    -0.709476825640E+03    0.78856E-04   -0.84101E-05  7647   0.173E-02    0.742E-02
RMM:   7    -0.709476868510E+03   -0.42870E-04   -0.63747E-05  7478   0.139E-02    0.970E-02
RMM:   8    -0.709476837851E+03    0.30659E-04   -0.33345E-05  7237   0.124E-02
  47 F= -.70947684E+03 E0= -.70885004E+03  d E =-.531151E-02  mag=     8.0754
       N       E                     dE             d eps       ncg     rms          rms(c)
DAV:   1    -0.709478887185E+03   -0.20187E-02   -0.56229E-02 13888   0.341E-01    0.788E-02
RMM:   2    -0.709479127179E+03   -0.23999E-03   -0.12907E-03 12225   0.533E-02    0.194E-01
RMM:   3    -0.709479112459E+03    0.14720E-04   -0.16710E-04  7686   0.237E-02    0.180E-01
RMM:   4    -0.709478974523E+03    0.13794E-03   -0.45677E-05  7305   0.146E-02    0.489E-02
RMM:   5    -0.709478988778E+03   -0.14255E-04   -0.25920E-05  6816   0.827E-03    0.663E-02
RMM:   6    -0.709478973869E+03    0.14910E-04   -0.10912E-05  6249   0.702E-03    0.270E-02
RMM:   7    -0.709478972965E+03    0.90376E-06   -0.93621E-06  6375   0.517E-03    0.373E-02
RMM:   8    -0.709478966670E+03    0.62944E-05   -0.45629E-06  5649   0.487E-03
  48 F= -.70947897E+03 E0= -.70885224E+03  d E =-.212882E-02  mag=     8.0775
       N       E                     dE             d eps       ncg     rms          rms(c)
DAV:   1    -0.709479179300E+03   -0.20634E-03   -0.15971E-02 13824   0.181E-01    0.467E-02
RMM:   2    -0.709479289616E+03   -0.11032E-03   -0.39740E-04  8222   0.291E-02    0.147E-01
RMM:   3    -0.709479243174E+03    0.46442E-04   -0.57430E-05  7251   0.154E-02    0.115E-01
RMM:   4    -0.709479189148E+03    0.54026E-04   -0.15024E-05  6815   0.794E-03    0.250E-02
RMM:   5    -0.709479188675E+03    0.47336E-06   -0.79405E-06  5945   0.503E-03    0.349E-02
RMM:   6    -0.709479181105E+03    0.75695E-05   -0.35930E-06  5205   0.433E-03    0.135E-02
RMM:   7    -0.709479178912E+03    0.21932E-05   -0.21047E-06  4123   0.343E-03    0.254E-02
RMM:   8    -0.709479175890E+03    0.30215E-05   -0.76599E-07  3207   0.301E-03
  49 F= -.70947918E+03 E0= -.70885250E+03  d E =-.233804E-02  mag=     8.0797
       N       E                     dE             d eps       ncg     rms          rms(c)
DAV:   1    -0.709480430948E+03   -0.12520E-02   -0.19957E-02 13888   0.229E-01    0.385E-02
RMM:   2    -0.709480506303E+03   -0.75355E-04   -0.41567E-04  8824   0.377E-02    0.110E-01
RMM:   3    -0.709480476389E+03    0.29914E-04   -0.56729E-05  7191   0.170E-02    0.577E-02
RMM:   4    -0.709480473348E+03    0.30414E-05   -0.11930E-05  7072   0.760E-03    0.422E-02
RMM:   5    -0.709480489952E+03   -0.16605E-04   -0.66466E-06  6403   0.497E-03    0.517E-02
RMM:   6    -0.709480487531E+03    0.24218E-05   -0.33430E-06  5422   0.419E-03    0.257E-02
RMM:   7    -0.709480495872E+03   -0.83411E-05   -0.36642E-06  5084   0.381E-03    0.214E-02
RMM:   8    -0.709480496893E+03   -0.10210E-05   -0.11116E-06  3523   0.336E-03
  50 F= -.70948050E+03 E0= -.70885382E+03  d E =-.132100E-02  mag=     8.0816
       N       E                     dE             d eps       ncg     rms          rms(c)
DAV:   1    -0.709480747900E+03   -0.25203E-03   -0.10023E-02 13728   0.162E-01    0.298E-02
RMM:   2    -0.709480793135E+03   -0.45234E-04   -0.21333E-04  7607   0.269E-02    0.844E-02
RMM:   3    -0.709480770411E+03    0.22724E-04   -0.28533E-05  7157   0.124E-02    0.420E-02
RMM:   4    -0.709480769161E+03    0.12502E-05   -0.63829E-06  6800   0.548E-03    0.222E-02
RMM:   5    -0.709480779952E+03   -0.10791E-04   -0.31873E-06  5456   0.388E-03    0.359E-02
RMM:   6    -0.709480781405E+03   -0.14530E-05   -0.12596E-06  3739   0.332E-03    0.200E-02
RMM:   7    -0.709480785657E+03   -0.42526E-05   -0.75945E-07  2963   0.308E-03    0.151E-02
RMM:   8    -0.709480786139E+03   -0.48139E-06   -0.16998E-07  2142   0.266E-03
  51 F= -.70948079E+03 E0= -.70885414E+03  d E =-.161025E-02  mag=     8.0830
       N       E                     dE             d eps       ncg     rms          rms(c)
DAV:   1    -0.709481751070E+03   -0.96541E-03   -0.25460E-02 13888   0.246E-01    0.423E-02
RMM:   2    -0.709481805545E+03   -0.54475E-04   -0.54205E-04  9242   0.400E-02    0.733E-02
RMM:   3    -0.709481808578E+03   -0.30322E-05   -0.67863E-05  7208   0.175E-02    0.380E-02
RMM:   4    -0.709481880875E+03   -0.72297E-04   -0.21089E-05  7133   0.877E-03    0.117E-01
RMM:   5    -0.709481818061E+03    0.62814E-04   -0.10166E-05  6526   0.675E-03    0.351E-02
RMM:   6    -0.709481824004E+03   -0.59432E-05   -0.32852E-06  5076   0.382E-03    0.226E-02
RMM:   7    -0.709481829172E+03   -0.51684E-05   -0.15844E-06  3865   0.335E-03    0.254E-02
RMM:   8    -0.709481828725E+03    0.44767E-06   -0.44471E-07  2521   0.293E-03
  52 F= -.70948183E+03 E0= -.70885517E+03  d E =-.104259E-02  mag=     8.0843
       N       E                     dE             d eps       ncg     rms          rms(c)
DAV:   1    -0.709482015025E+03   -0.18585E-03   -0.12023E-02 13568   0.169E-01    0.339E-02
RMM:   2    -0.709482047783E+03   -0.32758E-04   -0.26299E-04  7681   0.277E-02    0.663E-02
RMM:   3    -0.709482040621E+03    0.71620E-05   -0.31990E-05  7160   0.126E-02    0.320E-02
RMM:   4    -0.709482065128E+03   -0.24507E-04   -0.10299E-05  6830   0.600E-03    0.705E-02
RMM:   5    -0.709482048800E+03    0.16328E-04   -0.52917E-06  6114   0.512E-03    0.310E-02
RMM:   6    -0.709482049072E+03   -0.27183E-06   -0.17275E-06  3646   0.329E-03    0.172E-02
RMM:   7    -0.709482052358E+03   -0.32862E-05   -0.95669E-07  3011   0.313E-03    0.123E-02
RMM:   8    -0.709482051745E+03    0.61370E-06   -0.10438E-07  1931   0.271E-03
  53 F= -.70948205E+03 E0= -.70885534E+03  d E =-.126561E-02  mag=     8.0854
       N       E                     dE             d eps       ncg     rms          rms(c)
DAV:   1    -0.709483131567E+03   -0.10792E-02   -0.22494E-02 13840   0.211E-01    0.413E-02
RMM:   2    -0.709483176685E+03   -0.45119E-04   -0.44658E-04  8220   0.315E-02    0.599E-02
RMM:   3    -0.709483195965E+03   -0.19279E-04   -0.51582E-05  7224   0.144E-02    0.590E-02
RMM:   4    -0.709483211758E+03   -0.15794E-04   -0.15782E-05  6924   0.723E-03    0.798E-02
RMM:   5    -0.709483189899E+03    0.21859E-04   -0.65630E-06  6153   0.551E-03    0.336E-02
RMM:   6    -0.709483192242E+03   -0.23431E-05   -0.29896E-06  3867   0.352E-03    0.133E-02
RMM:   7    -0.709483198406E+03   -0.61639E-05   -0.17626E-06  3948   0.336E-03    0.124E-02
RMM:   8    -0.709483199934E+03   -0.15275E-05   -0.21154E-07  2194   0.278E-03
  54 F= -.70948320E+03 E0= -.70885652E+03  d E =-.114819E-02  mag=     8.0857
       N       E                     dE             d eps       ncg     rms          rms(c)
DAV:   1    -0.709484535545E+03   -0.13371E-02   -0.20240E-01 13872   0.633E-01    0.122E-01
RMM:   2    -0.709484885890E+03   -0.35035E-03   -0.39501E-03 13412   0.937E-02    0.136E-01
RMM:   3    -0.709484906975E+03   -0.21085E-04   -0.46356E-04  9360   0.382E-02    0.813E-02
RMM:   4    -0.709485232648E+03   -0.32567E-03   -0.15978E-04  8027   0.228E-02    0.272E-01
RMM:   5    -0.709484869312E+03    0.36334E-03   -0.44850E-05  7447   0.141E-02    0.912E-02
RMM:   6    -0.709484851333E+03    0.17978E-04   -0.29298E-05  6749   0.860E-03    0.509E-02
RMM:   7    -0.709484852369E+03   -0.10360E-05   -0.16751E-05  6885   0.742E-03    0.521E-02
RMM:   8    -0.709484840268E+03    0.12101E-04   -0.73365E-06  6306   0.586E-03
  55 F= -.70948484E+03 E0= -.70885817E+03  d E =-.278852E-02  mag=     8.0841
       N       E                     dE             d eps       ncg     rms          rms(c)
DAV:   1    -0.709484886546E+03   -0.34177E-04   -0.70615E-03 13280   0.119E-01    0.266E-02
RMM:   2    -0.709484932875E+03   -0.46329E-04   -0.14767E-04  7386   0.183E-02    0.640E-02
RMM:   3    -0.709484935037E+03   -0.21611E-05   -0.20716E-05  7121   0.977E-03    0.537E-02
RMM:   4    -0.709484927583E+03    0.74532E-05   -0.46279E-06  5763   0.424E-03    0.286E-02
RMM:   5    -0.709484937985E+03   -0.10402E-04   -0.11574E-06  3363   0.324E-03    0.192E-02
RMM:   6    -0.709484946861E+03   -0.88760E-05   -0.53999E-07  2460   0.302E-03    0.106E-02
RMM:   7    -0.709484958317E+03   -0.11456E-04   -0.11306E-06  2878   0.308E-03    0.101E-02
RMM:   8    -0.709484965538E+03   -0.72213E-05   -0.24740E-07  1798   0.271E-03
  56 F= -.70948497E+03 E0= -.70885831E+03  d E =-.291379E-02  mag=     8.0834
       N       E                     dE             d eps       ncg     rms          rms(c)
DAV:   1    -0.709486075822E+03   -0.11175E-02   -0.29128E-02 13520   0.239E-01    0.506E-02
RMM:   2    -0.709486115279E+03   -0.39457E-04   -0.52583E-04  8617   0.338E-02    0.551E-02
RMM:   3    -0.709486115468E+03   -0.18995E-06   -0.59399E-05  7246   0.154E-02    0.387E-02
RMM:   4    -0.709486175823E+03   -0.60355E-04   -0.19587E-05  7060   0.816E-03    0.116E-01
RMM:   5    -0.709486103635E+03    0.72188E-04   -0.95708E-06  6198   0.630E-03    0.355E-02
RMM:   6    -0.709486101966E+03    0.16696E-05   -0.53473E-06  5470   0.439E-03    0.174E-02
RMM:   7    -0.709486100765E+03    0.12006E-05   -0.13998E-06  3374   0.335E-03    0.104E-02
RMM:   8    -0.709486102970E+03   -0.22049E-05   -0.20980E-07  2023   0.280E-03
  57 F= -.70948610E+03 E0= -.70885947E+03  d E =-.113743E-02  mag=     8.0823
       N       E                     dE             d eps       ncg     rms          rms(c)
DAV:   1    -0.709486377962E+03   -0.27720E-03   -0.55262E-02 13872   0.329E-01    0.704E-02
RMM:   2    -0.709486461543E+03   -0.83581E-04   -0.10098E-03 10551   0.466E-02    0.804E-02
RMM:   3    -0.709486479787E+03   -0.18244E-04   -0.11909E-04  7455   0.206E-02    0.782E-02
RMM:   4    -0.709486549344E+03   -0.69557E-04   -0.40015E-05  7275   0.120E-02    0.142E-01
RMM:   5    -0.709486447271E+03    0.10207E-03   -0.19380E-05  6845   0.839E-03    0.577E-02
RMM:   6    -0.709486435961E+03    0.11310E-04   -0.95356E-06  6209   0.597E-03    0.257E-02
RMM:   7    -0.709486434681E+03    0.12800E-05   -0.61224E-06  5862   0.481E-03    0.253E-02
RMM:   8    -0.709486434187E+03    0.49413E-06   -0.22241E-06  4747   0.382E-03
  58 F= -.70948643E+03 E0= -.70885986E+03  d E =-.146865E-02  mag=     8.0807
       N       E                     dE             d eps       ncg     rms          rms(c)
DAV:   1    -0.709487587417E+03   -0.11527E-02   -0.24552E-02 13888   0.235E-01    0.538E-02
RMM:   2    -0.709487633805E+03   -0.46387E-04   -0.49020E-04  8889   0.362E-02    0.717E-02
RMM:   3    -0.709487627201E+03    0.66037E-05   -0.58066E-05  7220   0.163E-02    0.253E-02
RMM:   4    -0.709487641492E+03   -0.14291E-04   -0.17380E-05  7070   0.785E-03    0.595E-02
RMM:   5    -0.709487640357E+03    0.11352E-05   -0.58628E-06  6203   0.533E-03    0.431E-02
RMM:   6    -0.709487638846E+03    0.15108E-05   -0.15588E-06  3245   0.315E-03    0.304E-02
RMM:   7    -0.709487645079E+03   -0.62333E-05   -0.22525E-06  4300   0.350E-03    0.201E-02
RMM:   8    -0.709487647212E+03   -0.21323E-05   -0.60227E-07  3022   0.304E-03
  59 F= -.70948765E+03 E0= -.70886108E+03  d E =-.121302E-02  mag=     8.0796
       N       E                     dE             d eps       ncg     rms          rms(c)
DAV:   1    -0.709487999584E+03   -0.35450E-03   -0.20238E-02 13824   0.213E-01    0.489E-02
RMM:   2    -0.709488039810E+03   -0.40226E-04   -0.40617E-04  8396   0.329E-02    0.720E-02
RMM:   3    -0.709488043646E+03   -0.38354E-05   -0.48834E-05  7220   0.150E-02    0.549E-02
RMM:   4    -0.709488082605E+03   -0.38960E-04   -0.16212E-05  7059   0.751E-03    0.100E-01
RMM:   5    -0.709488037574E+03    0.45031E-04   -0.95566E-06  6355   0.630E-03    0.411E-02
RMM:   6    -0.709488036156E+03    0.14181E-05   -0.34098E-06  5273   0.405E-03    0.146E-02
RMM:   7    -0.709488043345E+03   -0.71890E-05   -0.11876E-06  3124   0.313E-03    0.113E-02
RMM:   8    -0.709488045753E+03   -0.24076E-05   -0.25086E-07  2310   0.274E-03
  60 F= -.70948805E+03 E0= -.70886148E+03  d E =-.161157E-02  mag=     8.0786
       N       E                     dE             d eps       ncg     rms          rms(c)
DAV:   1    -0.709488581889E+03   -0.53854E-03   -0.11596E-02 13552   0.160E-01    0.349E-02
RMM:   2    -0.709488634874E+03   -0.52986E-04   -0.25665E-04  7799   0.262E-02    0.920E-02
RMM:   3    -0.709488618307E+03    0.16568E-04   -0.33778E-05  7210   0.122E-02    0.519E-02
RMM:   4    -0.709488621372E+03   -0.30649E-05   -0.93680E-06  6596   0.599E-03    0.496E-02
RMM:   5    -0.709488617729E+03    0.36426E-05   -0.48284E-06  5720   0.446E-03    0.348E-02
RMM:   6    -0.709488615478E+03    0.22511E-05   -0.79917E-07  2831   0.299E-03    0.159E-02
RMM:   7    -0.709488616156E+03   -0.67830E-06   -0.66255E-07  2416   0.296E-03    0.151E-02
RMM:   8    -0.709488614807E+03    0.13493E-05   -0.44672E-07  2296   0.286E-03
  61 F= -.70948861E+03 E0= -.70886205E+03  d E =-.569054E-03  mag=     8.0777
       N       E                     dE             d eps       ncg     rms          rms(c)
DAV:   1    -0.709488638426E+03   -0.22269E-04   -0.10220E-03 13408   0.475E-02    0.120E-02
RMM:   2    -0.709488643458E+03   -0.50327E-05   -0.23611E-05  7088   0.797E-03    0.310E-02
RMM:   3    -0.709488640687E+03    0.27714E-05   -0.27446E-06  4944   0.395E-03    0.165E-02
RMM:   4    -0.709488641248E+03   -0.56130E-06   -0.18867E-07  1487   0.240E-03    0.159E-02
RMM:   5    -0.709488640063E+03    0.11850E-05   -0.14119E-07  1289   0.228E-03    0.747E-03
RMM:   6    -0.709488640031E+03    0.32524E-07   -0.27119E-08  1107   0.219E-03    0.513E-03
RMM:   7    -0.709488640221E+03   -0.19022E-06   -0.19312E-08  1008   0.221E-03    0.501E-03
RMM:   8    -0.709488640396E+03   -0.17479E-06    0.00000E+00   926   0.217E-03
  62 F= -.70948864E+03 E0= -.70886207E+03  d E =-.594643E-03  mag=     8.0767
       N       E                     dE             d eps       ncg     rms          rms(c)
DAV:   1    -0.709489036536E+03   -0.39631E-03   -0.11420E-02 13664   0.160E-01    0.332E-02
RMM:   2    -0.709489069665E+03   -0.33130E-04   -0.25644E-04  7700   0.254E-02    0.629E-02
RMM:   3    -0.709489086160E+03   -0.16495E-04   -0.33858E-05  7181   0.125E-02    0.735E-02
RMM:   4    -0.709489064307E+03    0.21853E-04   -0.84143E-06  6753   0.590E-03    0.278E-02
RMM:   5    -0.709489067855E+03   -0.35479E-05   -0.35012E-06  5195   0.397E-03    0.233E-02
RMM:   6    -0.709489069015E+03   -0.11605E-05   -0.83555E-07  2859   0.307E-03    0.963E-03
RMM:   7    -0.709489073626E+03   -0.46106E-05   -0.76249E-07  2611   0.304E-03    0.128E-02
RMM:   8    -0.709489074440E+03   -0.81419E-06   -0.23321E-07  1902   0.279E-03
  63 F= -.70948907E+03 E0= -.70886249E+03  d E =-.434045E-03  mag=     8.0761
       N       E                     dE             d eps       ncg     rms          rms(c)
DAV:   1    -0.709489157685E+03   -0.84059E-04   -0.11395E-02 13568   0.160E-01    0.339E-02
RMM:   2    -0.709489205352E+03   -0.47667E-04   -0.25833E-04  7708   0.254E-02    0.826E-02
RMM:   3    -0.709489203779E+03    0.15731E-05   -0.35938E-05  7178   0.128E-02    0.777E-02
RMM:   4    -0.709489180505E+03    0.23273E-04   -0.92619E-06  6824   0.618E-03    0.225E-02
RMM:   5    -0.709489184364E+03   -0.38588E-05   -0.35185E-06  5104   0.395E-03    0.220E-02
RMM:   6    -0.709489185254E+03   -0.89027E-06   -0.72975E-07  2675   0.298E-03    0.108E-02
RMM:   7    -0.709489189326E+03   -0.40720E-05   -0.81069E-07  2750   0.308E-03    0.141E-02
RMM:   8    -0.709489189619E+03   -0.29265E-06   -0.16670E-07  1820   0.278E-03
  64 F= -.70948919E+03 E0= -.70886258E+03  d E =-.549223E-03  mag=     8.0757
       N       E                     dE             d eps       ncg     rms          rms(c)
DAV:   1    -0.709489370623E+03   -0.18130E-03   -0.21098E-03 13360   0.663E-02    0.166E-02
RMM:   2    -0.709489384706E+03   -0.14083E-04   -0.50097E-05  7179   0.104E-02    0.522E-02
RMM:   3    -0.709489377998E+03    0.67080E-05   -0.73793E-06  6485   0.582E-03    0.357E-02
RMM:   4    -0.709489374428E+03    0.35698E-05   -0.88395E-07  2695   0.294E-03    0.119E-02
RMM:   5    -0.709489375083E+03   -0.65464E-06   -0.54428E-07  1859   0.277E-03    0.889E-03
RMM:   6    -0.709489376004E+03   -0.92135E-06   -0.98916E-08  1382   0.263E-03    0.688E-03
RMM:   7    -0.709489376309E+03   -0.30457E-06   -0.12607E-08  1033   0.257E-03    0.457E-03
RMM:   8    -0.709489377050E+03   -0.74093E-06   -0.57884E-08  1002   0.262E-03
  65 F= -.70948938E+03 E0= -.70886279E+03  d E =-.187431E-03  mag=     8.0754
       N       E                     dE             d eps       ncg     rms          rms(c)
DAV:   1    -0.709489917880E+03   -0.54157E-03   -0.19150E-02 13680   0.200E-01    0.465E-02
RMM:   2    -0.709489960932E+03   -0.43052E-04   -0.43150E-04  8406   0.306E-02    0.801E-02
RMM:   3    -0.709489983327E+03   -0.22394E-04   -0.53990E-05  7224   0.149E-02    0.904E-02
RMM:   4    -0.709489952735E+03    0.30591E-04   -0.14261E-05  7000   0.753E-03    0.462E-02
RMM:   5    -0.709489951602E+03    0.11333E-05   -0.74929E-06  6024   0.528E-03    0.343E-02
RMM:   6    -0.709489949034E+03    0.25685E-05   -0.28454E-06  4906   0.402E-03    0.125E-02
RMM:   7    -0.709489951926E+03   -0.28921E-05   -0.12821E-06  3347   0.313E-03    0.162E-02
RMM:   8    -0.709489951872E+03    0.53667E-07   -0.63453E-07  2826   0.286E-03
  66 F= -.70948995E+03 E0= -.70886337E+03  d E =-.762253E-03  mag=     8.0752
       N       E                     dE             d eps       ncg     rms          rms(c)
DAV:   1    -0.709490741906E+03   -0.78998E-03   -0.76724E-02 13856   0.399E-01    0.935E-02
RMM:   2    -0.709491005720E+03   -0.26381E-03   -0.17085E-03 12723   0.606E-02    0.201E-01
RMM:   3    -0.709491076138E+03   -0.70418E-04   -0.22337E-04  7887   0.273E-02    0.222E-01
RMM:   4    -0.709490857018E+03    0.21912E-03   -0.75532E-05  7399   0.180E-02    0.684E-02
RMM:   5    -0.709490867032E+03   -0.10014E-04   -0.31476E-05  7137   0.102E-02    0.641E-02
RMM:   6    -0.709490854268E+03    0.12765E-04   -0.13028E-05  6401   0.764E-03    0.233E-02
RMM:   7    -0.709490865256E+03   -0.10988E-04   -0.96159E-06  6343   0.535E-03    0.388E-02
RMM:   8    -0.709490860388E+03    0.48676E-05   -0.49489E-06  5798   0.504E-03
  67 F= -.70949086E+03 E0= -.70886428E+03  d E =-.167077E-02  mag=     8.0751
       N       E                     dE             d eps       ncg     rms          rms(c)
DAV:   1    -0.709492053915E+03   -0.11887E-02   -0.30776E-01 13872   0.799E-01    0.186E-01
RMM:   2    -0.709493059956E+03   -0.10060E-02   -0.68733E-03 13423   0.121E-01    0.382E-01
RMM:   3    -0.709493456153E+03   -0.39620E-03   -0.86128E-04 12487   0.537E-02    0.440E-01
RMM:   4    -0.709492553107E+03    0.90305E-03   -0.27280E-04  8640   0.303E-02    0.138E-01
RMM:   5    -0.709492569510E+03   -0.16402E-04   -0.13146E-04  7884   0.218E-02    0.125E-01
RMM:   6    -0.709492517319E+03    0.52191E-04   -0.52101E-05  7446   0.147E-02    0.477E-02
RMM:   7    -0.709492559409E+03   -0.42090E-04   -0.39395E-05  7325   0.106E-02    0.803E-02
RMM:   8    -0.709492534299E+03    0.25109E-04   -0.20196E-05  6563   0.963E-03
  68 F= -.70949253E+03 E0= -.70886596E+03  d E =-.334468E-02  mag=     8.0752
       N       E                     dE             d eps       ncg     rms          rms(c)
DAV:   1    -0.709494352625E+03   -0.17932E-02   -0.12331E+00 13696   0.160E+00    0.369E-01
RMM:   2    -0.709498602055E+03   -0.42494E-02   -0.27717E-02 13440   0.242E-01    0.772E-01
RMM:   3    -0.709500136179E+03   -0.15341E-02   -0.34458E-03 13448   0.107E-01    0.883E-01
RMM:   4    -0.709496442902E+03    0.36933E-02   -0.10626E-03 12569   0.597E-02    0.249E-01
RMM:   5    -0.709496496851E+03   -0.53949E-04   -0.49298E-04 10873   0.381E-02    0.243E-01
RMM:   6    -0.709496282768E+03    0.21408E-03   -0.20729E-04  8726   0.282E-02    0.964E-02
RMM:   7    -0.709496416119E+03   -0.13335E-03   -0.15965E-04  8230   0.213E-02    0.146E-01
RMM:   8    -0.709496329858E+03    0.86261E-04   -0.79756E-05  7741   0.184E-02
  69 F= -.70949633E+03 E0= -.70886980E+03  d E =-.714024E-02  mag=     8.0756
       N       E                     dE             d eps       ncg     rms          rms(c)
DAV:   1    -0.709496551577E+03   -0.13546E-03   -0.25285E-03 13616   0.744E-02    0.442E-02
RMM:   2    -0.709496861859E+03   -0.31028E-03   -0.12243E-04  7720   0.180E-02    0.225E-01
RMM:   3    -0.709496619179E+03    0.24268E-03   -0.49105E-05  7264   0.154E-02    0.106E-01
RMM:   4    -0.709496570839E+03    0.48340E-04   -0.11841E-05  6558   0.636E-03    0.199E-02
RMM:   5    -0.709496577379E+03   -0.65406E-05   -0.35053E-06  5413   0.418E-03    0.188E-02
RMM:   6    -0.709496582930E+03   -0.55505E-05   -0.47658E-07  2687   0.279E-03    0.122E-02
RMM:   7    -0.709496586144E+03   -0.32140E-05   -0.10016E-07  1953   0.266E-03    0.110E-02
RMM:   8    -0.709496589470E+03   -0.33259E-05   -0.65327E-08  1818   0.266E-03
  70 F= -.70949659E+03 E0= -.70887006E+03  d E =-.259612E-03  mag=     8.0748
       N       E                     dE             d eps       ncg     rms          rms(c)
DAV:   1    -0.709497125124E+03   -0.53898E-03   -0.22327E-02 13664   0.211E-01    0.528E-02
RMM:   2    -0.709497256102E+03   -0.13098E-03   -0.51846E-04  8752   0.320E-02    0.146E-01
RMM:   3    -0.709497216099E+03    0.40003E-04   -0.69622E-05  7263   0.165E-02    0.118E-01
RMM:   4    -0.709497161845E+03    0.54254E-04   -0.21740E-05  7023   0.926E-03    0.338E-02
RMM:   5    -0.709497170055E+03   -0.82099E-05   -0.10424E-05  6082   0.590E-03    0.371E-02
RMM:   6    -0.709497167543E+03    0.25119E-05   -0.42339E-06  5419   0.459E-03    0.134E-02
RMM:   7    -0.709497172301E+03   -0.47580E-05   -0.19701E-06  3810   0.335E-03    0.203E-02
RMM:   8    -0.709497171434E+03    0.86651E-06   -0.87988E-07  3226   0.306E-03
  71 F= -.70949717E+03 E0= -.70887065E+03  d E =-.841576E-03  mag=     8.0744
       N       E                     dE             d eps       ncg     rms          rms(c)
DAV:   1    -0.709497489564E+03   -0.31726E-03   -0.89221E-02 13808   0.422E-01    0.102E-01
RMM:   2    -0.709497816959E+03   -0.32739E-03   -0.19776E-03 12599   0.627E-02    0.224E-01
RMM:   3    -0.709497885395E+03   -0.68436E-04   -0.24921E-04  8059   0.283E-02    0.242E-01
RMM:   4    -0.709497623747E+03    0.26165E-03   -0.87815E-05  7441   0.191E-02    0.741E-02
RMM:   5    -0.709497638787E+03   -0.15040E-04   -0.38716E-05  7164   0.111E-02    0.707E-02
RMM:   6    -0.709497621983E+03    0.16804E-04   -0.15714E-05  6500   0.836E-03    0.248E-02
RMM:   7    -0.709497634497E+03   -0.12514E-04   -0.11188E-05  6411   0.574E-03    0.402E-02
RMM:   8    -0.709497627963E+03    0.65339E-05   -0.54946E-06  5862   0.528E-03
  72 F= -.70949763E+03 E0= -.70887113E+03  d E =-.129811E-02  mag=     8.0742
       N       E                     dE             d eps       ncg     rms          rms(c)
DAV:   1    -0.709498404668E+03   -0.77017E-03   -0.47573E-04 13408   0.362E-02    0.121E-02
RMM:   2    -0.709498418756E+03   -0.14089E-04   -0.15625E-05  7125   0.733E-03    0.515E-02
RMM:   3    -0.709498407511E+03    0.11245E-04   -0.34440E-06  6194   0.460E-03    0.276E-02
RMM:   4    -0.709498404358E+03    0.31535E-05   -0.74482E-08  1302   0.214E-03    0.580E-03
RMM:   5    -0.709498404513E+03   -0.15530E-06   -0.18248E-08  1164   0.205E-03    0.718E-03
RMM:   6    -0.709498404313E+03    0.19991E-06   -0.47672E-08  1238   0.211E-03    0.108E-02
RMM:   7    -0.709498402897E+03    0.14161E-05   -0.32985E-09  1107   0.212E-03    0.560E-03
RMM:   8    -0.709498402230E+03    0.66674E-06   -0.24603E-08  1163   0.222E-03
  73 F= -.70949840E+03 E0= -.70887191E+03  d E =-.774267E-03  mag=     8.0737
       N       E                     dE             d eps       ncg     rms          rms(c)
DAV:   1    -0.709500574732E+03   -0.21718E-02   -0.42348E-03 13120   0.107E-01    0.173E-02
RMM:   2    -0.709500582659E+03   -0.79276E-05   -0.92059E-05  7191   0.183E-02    0.340E-02
RMM:   3    -0.709500582319E+03    0.34078E-06   -0.11295E-05  7054   0.819E-03    0.169E-02
RMM:   4    -0.709500596991E+03   -0.14672E-04   -0.30448E-06  5511   0.372E-03    0.569E-02
RMM:   5    -0.709500581866E+03    0.15125E-04   -0.98645E-07  3550   0.319E-03    0.143E-02
RMM:   6    -0.709500583334E+03   -0.14677E-05   -0.24565E-07  1754   0.259E-03    0.109E-02
RMM:   7    -0.709500584952E+03   -0.16180E-05   -0.34560E-07  1991   0.262E-03    0.128E-02
RMM:   8    -0.709500585096E+03   -0.14377E-06   -0.22208E-08  1261   0.243E-03
[...]
RMM:   8    -0.709653613790E+03    0.37206E-04   -0.25045E-05  7038   0.103E-02
 138 F= -.70965361E+03 E0= -.70902711E+03  d E =-.126902E-01  mag=     8.0617
       N       E                     dE             d eps       ncg     rms          rms(c)
DAV:   1    -0.709656418731E+03   -0.27677E-02   -0.12076E-01 14064   0.559E-01    0.787E-02
RMM:   2    -0.709656709145E+03   -0.29041E-03   -0.22013E-03 13403   0.883E-02    0.178E-01
RMM:   3    -0.709656664186E+03    0.44959E-04   -0.31543E-04  9120   0.369E-02    0.753E-02
RMM:   4    -0.709656692036E+03   -0.27850E-04   -0.77638E-05  7381   0.185E-02    0.112E-01
RMM:   5    -0.709656654455E+03    0.37581E-04   -0.21545E-05  7136   0.934E-03    0.528E-02
RMM:   6    -0.709656655594E+03   -0.11389E-05   -0.12016E-05  6639   0.621E-03    0.498E-02
RMM:   7    -0.709656655516E+03    0.78122E-07   -0.12012E-05  6676   0.640E-03    0.277E-02
RMM:   8    -0.709656663989E+03   -0.84725E-05   -0.86410E-06  6450   0.542E-03
 139 F= -.70965666E+03 E0= -.70903015E+03  d E =-.157404E-01  mag=     8.0615
       N       E                     dE             d eps       ncg     rms          rms(c)
DAV:   1    -0.709661155780E+03   -0.45003E-02   -0.44693E-02 13824   0.345E-01    0.513E-02
RMM:   2    -0.709661260883E+03   -0.10510E-03   -0.94682E-04 12934   0.614E-02    0.114E-01
RMM:   3    -0.709661256547E+03    0.43351E-05   -0.15415E-04  7481   0.239E-02    0.510E-02
RMM:   4    -0.709661373022E+03   -0.11647E-03   -0.38943E-05  7248   0.139E-02    0.158E-01
RMM:   5    -0.709661249716E+03    0.12331E-03   -0.15439E-05  6971   0.810E-03    0.495E-02
RMM:   6    -0.709661259032E+03   -0.93164E-05   -0.64237E-06  6184   0.508E-03    0.519E-02
RMM:   7    -0.709661265615E+03   -0.65827E-05   -0.45633E-06  5853   0.421E-03    0.514E-02
RMM:   8    -0.709661263042E+03    0.25730E-05   -0.29418E-06  5408   0.379E-03
 140 F= -.70966126E+03 E0= -.70903476E+03  d E =-.459905E-02  mag=     8.0616
       N       E                     dE             d eps       ncg     rms          rms(c)
DAV:   1    -0.709662580236E+03   -0.13146E-02   -0.40356E-02 14096   0.328E-01    0.605E-02
RMM:   2    -0.709662700032E+03   -0.11980E-03   -0.86752E-04 12696   0.583E-02    0.134E-01
RMM:   3    -0.709662670854E+03    0.29178E-04   -0.14456E-04  7450   0.229E-02    0.640E-02
RMM:   4    -0.709662750785E+03   -0.79931E-04   -0.35996E-05  7234   0.138E-02    0.131E-01
RMM:   5    -0.709662677674E+03    0.73111E-04   -0.19616E-05  7070   0.876E-03    0.773E-02
RMM:   6    -0.709662672992E+03    0.46816E-05   -0.65486E-06  6305   0.543E-03    0.587E-02
RMM:   7    -0.709662674957E+03   -0.19650E-05   -0.37800E-06  5361   0.404E-03    0.551E-02
RMM:   8    -0.709662666426E+03    0.85315E-05   -0.36276E-06  5521   0.391E-03
 141 F= -.70966267E+03 E0= -.70903611E+03  d E =-.600244E-02  mag=     8.0622
       N       E                     dE             d eps       ncg     rms          rms(c)
DAV:   1    -0.709664802853E+03   -0.21279E-02   -0.21683E-02 14064   0.234E-01    0.509E-02
RMM:   2    -0.709664952051E+03   -0.14920E-03   -0.48664E-04 10269   0.435E-02    0.164E-01
RMM:   3    -0.709664845882E+03    0.10617E-03   -0.83003E-05  7241   0.192E-02    0.482E-02
RMM:   4    -0.709664864581E+03   -0.18699E-04   -0.21277E-05  7120   0.103E-02    0.626E-02
RMM:   5    -0.709664863758E+03    0.82313E-06   -0.11752E-05  6810   0.695E-03    0.588E-02
RMM:   6    -0.709664867247E+03   -0.34886E-05   -0.82715E-06  6409   0.561E-03    0.497E-02
RMM:   7    -0.709664859128E+03    0.81183E-05   -0.40408E-06  5597   0.443E-03    0.240E-02
RMM:   8    -0.709664858692E+03    0.43660E-06   -0.82814E-07  3025   0.303E-03
 142 F= -.70966486E+03 E0= -.70903833E+03  d E =-.219227E-02  mag=     8.0624
       N       E                     dE             d eps       ncg     rms          rms(c)
DAV:   1    -0.709666579053E+03   -0.17199E-02   -0.10300E-01 13872   0.509E-01    0.875E-02
RMM:   2    -0.709666815376E+03   -0.23632E-03   -0.22124E-03 13388   0.938E-02    0.172E-01
RMM:   3    -0.709666806128E+03    0.92481E-05   -0.40015E-04 10555   0.364E-02    0.101E-01
RMM:   4    -0.709667164799E+03   -0.35867E-03   -0.10077E-04  7772   0.204E-02    0.279E-01
RMM:   5    -0.709666789088E+03    0.37571E-03   -0.49949E-05  7494   0.151E-02    0.103E-01
RMM:   6    -0.709666780831E+03    0.82571E-05   -0.23300E-05  7224   0.926E-03    0.771E-02
RMM:   7    -0.709666769757E+03    0.11074E-04   -0.14197E-05  6845   0.721E-03    0.521E-02
RMM:   8    -0.709666766351E+03    0.34059E-05   -0.74037E-06  6532   0.552E-03
 143 F= -.70966677E+03 E0= -.70904029E+03  d E =-.409993E-02  mag=     8.0616
       N       E                     dE             d eps       ncg     rms          rms(c)
DAV:   1    -0.709668327789E+03   -0.15580E-02   -0.29926E-02 13888   0.268E-01    0.650E-02
RMM:   2    -0.709668420090E+03   -0.92300E-04   -0.63999E-04 12050   0.490E-02    0.114E-01
RMM:   3    -0.709668450959E+03   -0.30869E-04   -0.11825E-04  7491   0.212E-02    0.123E-01
RMM:   4    -0.709668392117E+03    0.58842E-04   -0.35811E-05  7252   0.134E-02    0.733E-02
RMM:   5    -0.709668384647E+03    0.74694E-05   -0.15100E-05  6919   0.743E-03    0.505E-02
RMM:   6    -0.709668381223E+03    0.34242E-05   -0.10891E-05  6652   0.622E-03    0.387E-02
RMM:   7    -0.709668375429E+03    0.57943E-05   -0.61154E-06  6095   0.533E-03    0.218E-02
RMM:   8    -0.709668377272E+03   -0.18431E-05   -0.13716E-06  3746   0.326E-03
 144 F= -.70966838E+03 E0= -.70904191E+03  d E =-.161092E-02  mag=     8.0608
       N       E                     dE             d eps       ncg     rms          rms(c)
DAV:   1    -0.709668972189E+03   -0.59676E-03   -0.48766E-02 13936   0.342E-01    0.590E-02
RMM:   2    -0.709669074098E+03   -0.10191E-03   -0.99327E-04 13104   0.617E-02    0.107E-01
RMM:   3    -0.709669066752E+03    0.73454E-05   -0.17443E-04  7829   0.244E-02    0.561E-02
RMM:   4    -0.709669167551E+03   -0.10080E-03   -0.45838E-05  7373   0.155E-02    0.147E-01
RMM:   5    -0.709669069748E+03    0.97804E-04   -0.22234E-05  7213   0.900E-03    0.767E-02
RMM:   6    -0.709669057034E+03    0.12713E-04   -0.11726E-05  6681   0.701E-03    0.512E-02
RMM:   7    -0.709669054512E+03    0.25219E-05   -0.67813E-06  6230   0.501E-03    0.390E-02
RMM:   8    -0.709669055852E+03   -0.13396E-05   -0.46435E-06  5929   0.436E-03
 145 F= -.70966906E+03 E0= -.70904259E+03  d E =-.228950E-02  mag=     8.0599
       N       E                     dE             d eps       ncg     rms          rms(c)
DAV:   1    -0.709669985364E+03   -0.93085E-03   -0.36131E-02 14016   0.292E-01    0.591E-02
RMM:   2    -0.709670096450E+03   -0.11109E-03   -0.75511E-04 12608   0.536E-02    0.128E-01
RMM:   3    -0.709670062941E+03    0.33509E-04   -0.13532E-04  7534   0.216E-02    0.617E-02
RMM:   4    -0.709670092448E+03   -0.29508E-04   -0.35340E-05  7238   0.138E-02    0.101E-01
RMM:   5    -0.709670061947E+03    0.30501E-04   -0.18849E-05  7062   0.829E-03    0.726E-02
RMM:   6    -0.709670045867E+03    0.16080E-04   -0.10474E-05  6584   0.660E-03    0.396E-02
RMM:   7    -0.709670046200E+03   -0.33326E-06   -0.55879E-06  5922   0.458E-03    0.379E-02
RMM:   8    -0.709670041520E+03    0.46801E-05   -0.26328E-06  4924   0.383E-03
 146 F= -.70967004E+03 E0= -.70904357E+03  d E =-.985668E-03  mag=     8.0585
       N       E                     dE             d eps       ncg     rms          rms(c)
DAV:   1    -0.709670074663E+03   -0.28463E-04   -0.25679E-03 13504   0.781E-02    0.265E-02
RMM:   2    -0.709670173000E+03   -0.98337E-04   -0.69483E-05  7211   0.157E-02    0.131E-01
RMM:   3    -0.709670085581E+03    0.87419E-04   -0.17052E-05  7126   0.943E-03    0.377E-02
RMM:   4    -0.709670086206E+03   -0.62539E-06   -0.41720E-06  6004   0.425E-03    0.232E-02
RMM:   5    -0.709670086694E+03   -0.48749E-06   -0.49109E-07  2818   0.292E-03    0.125E-02
RMM:   6    -0.709670093123E+03   -0.64295E-05   -0.28510E-07  2143   0.285E-03    0.123E-02
RMM:   7    -0.709670096971E+03   -0.38479E-05   -0.30148E-08  1653   0.262E-03    0.116E-02
RMM:   8    -0.709670098786E+03   -0.18146E-05   -0.15301E-08  1325   0.255E-03
 147 F= -.70967010E+03 E0= -.70904365E+03  d E =-.104293E-02  mag=     8.0574
       N       E                     dE             d eps       ncg     rms          rms(c)
DAV:   1    -0.709670555254E+03   -0.45828E-03   -0.60158E-03 14064   0.125E-01    0.191E-02
RMM:   2    -0.709670576189E+03   -0.20935E-04   -0.13399E-04  7356   0.228E-02    0.554E-02
RMM:   3    -0.709670574819E+03    0.13703E-05   -0.18436E-05  7073   0.103E-02    0.273E-02
RMM:   4    -0.709670591678E+03   -0.16859E-04   -0.57676E-06  6473   0.467E-03    0.605E-02
RMM:   5    -0.709670577855E+03    0.13823E-04   -0.25297E-06  5083   0.382E-03    0.223E-02
RMM:   6    -0.709670579706E+03   -0.18504E-05   -0.16063E-07  2096   0.252E-03    0.214E-02
RMM:   7    -0.709670585019E+03   -0.53133E-05   -0.24787E-07  2050   0.272E-03    0.190E-02
RMM:   8    -0.709670586976E+03   -0.19569E-05   -0.86454E-08  1499   0.265E-03
 148 F= -.70967059E+03 E0= -.70904412E+03  d E =-.488190E-03  mag=     8.0566
       N       E                     dE             d eps       ncg     rms          rms(c)
DAV:   1    -0.709670841819E+03   -0.25680E-03   -0.18318E-02 13904   0.219E-01    0.364E-02
RMM:   2    -0.709670890025E+03   -0.48206E-04   -0.40245E-04  9019   0.399E-02    0.874E-02
RMM:   3    -0.709670895943E+03   -0.59176E-05   -0.61776E-05  7159   0.171E-02    0.620E-02
RMM:   4    -0.709670903932E+03   -0.79893E-05   -0.19749E-05  7082   0.928E-03    0.703E-02
RMM:   5    -0.709670898561E+03    0.53708E-05   -0.72080E-06  6501   0.545E-03    0.544E-02
RMM:   6    -0.709670889687E+03    0.88739E-05   -0.18428E-06  4542   0.347E-03    0.467E-02
RMM:   7    -0.709670893901E+03   -0.42143E-05   -0.10924E-06  3196   0.307E-03    0.518E-02
RMM:   8    -0.709670894529E+03   -0.62797E-06   -0.17068E-06  3669   0.333E-03
 149 F= -.70967089E+03 E0= -.70904440E+03  d E =-.795744E-03  mag=     8.0560
       N       E                     dE             d eps       ncg     rms          rms(c)
DAV:   1    -0.709671004633E+03   -0.11073E-03   -0.47820E-03 13856   0.112E-01    0.499E-02
RMM:   2    -0.709671022981E+03   -0.18348E-04   -0.10884E-04  7297   0.204E-02    0.634E-02
RMM:   3    -0.709671030899E+03   -0.79179E-05   -0.17470E-05  7113   0.976E-03    0.580E-02
RMM:   4    -0.709671060247E+03   -0.29349E-04   -0.98816E-06  6806   0.573E-03    0.936E-02
RMM:   5    -0.709671026973E+03    0.33274E-04   -0.87539E-06  6373   0.623E-03    0.328E-02
RMM:   6    -0.709671025308E+03    0.16645E-05   -0.32482E-06  5182   0.400E-03    0.167E-02
RMM:   7    -0.709671026013E+03   -0.70480E-06   -0.24537E-07  2173   0.266E-03    0.719E-03
RMM:   8    -0.709671027274E+03   -0.12609E-05   -0.12921E-15  1293   0.229E-03
 150 F= -.70967103E+03 E0= -.70904451E+03  d E =-.132745E-03  mag=     8.0555
       N       E                     dE             d eps       ncg     rms          rms(c)
DAV:   1    -0.709671029238E+03   -0.32251E-05   -0.57336E-05  7744   0.127E-02    0.563E-03
RMM:   2    -0.709671031902E+03   -0.26641E-05   -0.34772E-06  6221   0.444E-03    0.139E-02
RMM:   3    -0.709671032214E+03   -0.31145E-06   -0.91977E-09  1016   0.221E-03    0.111E-02
RMM:   4    -0.709671031983E+03    0.23124E-06   -0.70706E-09   926   0.220E-03    0.557E-03
RMM:   5    -0.709671032557E+03   -0.57445E-06    0.00000E+00   835   0.210E-03    0.460E-03
RMM:   6    -0.709671033004E+03   -0.44673E-06    0.00000E+00   779   0.214E-03    0.332E-03
RMM:   7    -0.709671034621E+03   -0.16172E-05    0.00000E+00   819   0.216E-03    0.294E-03
RMM:   8    -0.709671036073E+03   -0.14516E-05   -0.23038E-10   875   0.226E-03
 151 F= -.70967104E+03 E0= -.70904453E+03  d E =-.141543E-03  mag=     8.0551
       N       E                     dE             d eps       ncg     rms          rms(c)
DAV:   1    -0.709671144231E+03   -0.10961E-03   -0.31331E-03 13744   0.898E-02    0.156E-02
RMM:   2    -0.709671154271E+03   -0.10040E-04   -0.69051E-05  7155   0.165E-02    0.401E-02
RMM:   3    -0.709671152529E+03    0.17413E-05   -0.96381E-06  6999   0.743E-03    0.243E-02
RMM:   4    -0.709671155789E+03   -0.32594E-05   -0.29423E-06  5401   0.372E-03    0.323E-02
RMM:   5    -0.709671151858E+03    0.39305E-05   -0.49389E-07  2835   0.292E-03    0.177E-02
RMM:   6    -0.709671151715E+03    0.14369E-06   -0.75112E-08  1359   0.257E-03    0.170E-02
RMM:   7    -0.709671151806E+03   -0.91888E-07   -0.12961E-07  1402   0.268E-03    0.153E-02
RMM:   8    -0.709671151729E+03    0.77292E-07   -0.32178E-07  1677   0.276E-03
 152 F= -.70967115E+03 E0= -.70904462E+03  d E =-.115657E-03  mag=     8.0548
       N       E                     dE             d eps       ncg     rms          rms(c)
DAV:   1    -0.709671172460E+03   -0.20654E-04   -0.15247E-03 13520   0.629E-02    0.194E-02
RMM:   2    -0.709671185749E+03   -0.13289E-04   -0.37310E-05  7096   0.119E-02    0.528E-02
RMM:   3    -0.709671175864E+03    0.98856E-05   -0.52898E-06  6841   0.558E-03    0.212E-02
RMM:   4    -0.709671179419E+03   -0.35550E-05   -0.15261E-06  3649   0.316E-03    0.280E-02
RMM:   5    -0.709671176143E+03    0.32756E-05   -0.64394E-07  3025   0.290E-03    0.133E-02
RMM:   6    -0.709671176355E+03   -0.21215E-06   -0.13180E-07  1355   0.240E-03    0.123E-02
RMM:   7    -0.709671175686E+03    0.66903E-06   -0.34043E-09  1157   0.233E-03    0.761E-03
RMM:   8    -0.709671175930E+03   -0.24349E-06    0.00000E+00   865   0.226E-03
 153 F= -.70967118E+03 E0= -.70904465E+03  d E =-.139857E-03  mag=     8.0543
       N       E                     dE             d eps       ncg     rms          rms(c)
DAV:   1    -0.709671265633E+03   -0.89947E-04   -0.38016E-03 13776   0.962E-02    0.185E-02
RMM:   2    -0.709671278695E+03   -0.13062E-04   -0.79877E-05  7219   0.174E-02    0.439E-02
RMM:   3    -0.709671274851E+03    0.38438E-05   -0.12145E-05  6982   0.819E-03    0.279E-02
RMM:   4    -0.709671272886E+03    0.19653E-05   -0.24428E-06  5197   0.368E-03    0.143E-02
RMM:   5    -0.709671275097E+03   -0.22115E-05   -0.50027E-07  2668   0.297E-03    0.248E-02
RMM:   6    -0.709671274554E+03    0.54378E-06   -0.27308E-07  2348   0.289E-03    0.205E-02
RMM:   7    -0.709671272855E+03    0.16990E-05   -0.35897E-07  2240   0.298E-03    0.760E-03
RMM:   8    -0.709671273005E+03   -0.15008E-06   -0.38268E-07  1646   0.292E-03
 154 F= -.70967127E+03 E0= -.70904472E+03  d E =-.970751E-04  mag=     8.0540
       N       E                     dE             d eps       ncg     rms          rms(c)
DAV:   1    -0.709671294144E+03   -0.21289E-04   -0.46033E-03 13968   0.106E-01    0.195E-02
RMM:   2    -0.709671306957E+03   -0.12813E-04   -0.96716E-05  7249   0.187E-02    0.403E-02
RMM:   3    -0.709671304803E+03    0.21538E-05   -0.13960E-05  7014   0.879E-03    0.263E-02
RMM:   4    -0.709671304135E+03    0.66796E-06   -0.29266E-06  5362   0.388E-03    0.178E-02
RMM:   5    -0.709671305790E+03   -0.16549E-05   -0.10215E-06  3516   0.316E-03    0.260E-02
RMM:   6    -0.709671304320E+03    0.14700E-05   -0.21841E-07  2277   0.290E-03    0.163E-02
RMM:   7    -0.709671304426E+03   -0.10619E-06   -0.23855E-07  1999   0.296E-03    0.886E-03
RMM:   8    -0.709671304637E+03   -0.21086E-06   -0.73855E-07  2344   0.303E-03
 155 F= -.70967130E+03 E0= -.70904473E+03  d E =-.128708E-03  mag=     8.0537
       N       E                     dE             d eps       ncg     rms          rms(c)
DAV:   1    -0.709671358604E+03   -0.54178E-04   -0.54852E-03 13984   0.115E-01    0.191E-02
RMM:   2    -0.709671369571E+03   -0.10966E-04   -0.11213E-04  7291   0.206E-02    0.356E-02
RMM:   3    -0.709671370048E+03   -0.47772E-06   -0.16078E-05  6994   0.927E-03    0.176E-02
RMM:   4    -0.709671373037E+03   -0.29881E-05   -0.44862E-06  6063   0.433E-03    0.264E-02
RMM:   5    -0.709671372850E+03    0.18687E-06   -0.10352E-06  3580   0.317E-03    0.304E-02
RMM:   6    -0.709671369949E+03    0.29005E-05   -0.11501E-07  1765   0.264E-03    0.185E-02
RMM:   7    -0.709671370374E+03   -0.42516E-06   -0.56307E-08  1615   0.265E-03    0.184E-02
RMM:   8    -0.709671369166E+03    0.12082E-05   -0.21124E-07  1624   0.272E-03
 156 F= -.70967137E+03 E0= -.70904480E+03  d E =-.645290E-04  mag=     8.0534
       N       E                     dE             d eps       ncg     rms          rms(c)
DAV:   1    -0.709671368978E+03    0.13963E-05   -0.63982E-05  8000   0.130E-02    0.135E-02
RMM:   2    -0.709671389287E+03   -0.20309E-04   -0.63942E-06  6480   0.517E-03    0.568E-02
RMM:   3    -0.709671368547E+03    0.20740E-04   -0.12624E-06  4017   0.325E-03    0.143E-02
RMM:   4    -0.709671372504E+03   -0.39568E-05   -0.93066E-07  2665   0.281E-03    0.206E-02
RMM:   5    -0.709671372344E+03    0.15972E-06   -0.24600E-08  1278   0.225E-03    0.227E-02
RMM:   6    -0.709671370834E+03    0.15101E-05   -0.16470E-10   887   0.222E-03    0.125E-02
RMM:   7    -0.709671370312E+03    0.52257E-06    0.00000E+00   792   0.215E-03    0.382E-03
RMM:   8    -0.709671370716E+03   -0.40465E-06    0.00000E+00   875   0.212E-03
 157 F= -.70967137E+03 E0= -.70904479E+03  d E =-.660792E-04  mag=     8.0531
       N       E                     dE             d eps       ncg     rms          rms(c)
DAV:   1    -0.709671420930E+03   -0.50619E-04   -0.33458E-03 13760   0.910E-02    0.137E-02
RMM:   2    -0.709671428828E+03   -0.78982E-05   -0.66709E-05  7176   0.160E-02    0.298E-02
RMM:   3    -0.709671428558E+03    0.27094E-06   -0.95598E-06  6887   0.732E-03    0.141E-02
RMM:   4    -0.709671431622E+03   -0.30649E-05   -0.17394E-06  4299   0.343E-03    0.268E-02
RMM:   5    -0.709671429553E+03    0.20695E-05   -0.18722E-07  2239   0.282E-03    0.145E-02
RMM:   6    -0.709671430261E+03   -0.70817E-06   -0.10262E-07  1517   0.278E-03    0.107E-02
RMM:   7    -0.709671430914E+03   -0.65282E-06   -0.11354E-07  1408   0.284E-03    0.983E-03
RMM:   8    -0.709671431046E+03   -0.13201E-06   -0.17856E-07  1269   0.286E-03
 158 F= -.70967143E+03 E0= -.70904484E+03  d E =-.603295E-04  mag=     8.0529
       N       E                     dE             d eps       ncg     rms          rms(c)
DAV:   1    -0.709671431477E+03   -0.56338E-06   -0.41817E-06  7824   0.369E-03    0.502E-03
RMM:   2    -0.709671431970E+03   -0.49301E-06   -0.26072E-11   938   0.181E-03    0.441E-03
RMM:   3    -0.709671432315E+03   -0.34452E-06   -0.27681E-13   875   0.168E-03    0.950E-03
RMM:   4    -0.709671431982E+03    0.33250E-06    0.00000E+00   766   0.167E-03    0.557E-03
RMM:   5    -0.709671432370E+03   -0.38798E-06    0.00000E+00   837   0.168E-03    0.384E-03
RMM:   6    -0.709671432461E+03   -0.90884E-07    0.00000E+00   758   0.171E-03    0.953E-04
RMM:   7    -0.709671432685E+03   -0.22436E-06    0.00000E+00   750   0.173E-03    0.446E-04
RMM:   8    -0.709671432818E+03   -0.13264E-06    0.00000E+00   725   0.172E-03
 159 F= -.70967143E+03 E0= -.70904484E+03  d E =-.621018E-04  mag=     8.0527
       N       E                     dE             d eps       ncg     rms          rms(c)
DAV:   1    -0.709671476673E+03   -0.43988E-04   -0.28220E-03 13632   0.829E-02    0.136E-02
RMM:   2    -0.709671483672E+03   -0.69981E-05   -0.59958E-05  7146   0.151E-02    0.313E-02
RMM:   3    -0.709671483394E+03    0.27799E-06   -0.84899E-06  6860   0.681E-03    0.180E-02
RMM:   4    -0.709671489899E+03   -0.65051E-05   -0.20036E-06  4264   0.344E-03    0.365E-02
RMM:   5    -0.709671482414E+03    0.74847E-05   -0.27788E-07  2409   0.283E-03    0.122E-02
RMM:   6    -0.709671483332E+03   -0.91792E-06   -0.19824E-07  1634   0.266E-03    0.135E-02
RMM:   7    -0.709671483698E+03   -0.36587E-06   -0.14212E-07  1325   0.268E-03    0.125E-02
RMM:   8    -0.709671483366E+03    0.33202E-06   -0.19849E-07  1386   0.271E-03
 160 F= -.70967148E+03 E0= -.70904489E+03  d E =-.505476E-04  mag=     8.0525
