 ----------------------------------------------------
    OOO  PPPP  EEEEE N   N M   M PPPP
   O   O P   P E     NN  N MM MM P   P
   O   O PPPP  EEEEE N N N M M M PPPP   -- VERSION
   O   O P     E     N  NN M   M P
    OOO  P     EEEEE N   N M   M P
 ----------------------------------------------------
 running   16 mpi-ranks, with    4 threads/rank
 distrk:  each k-point on   16 cores,    1 groups
 distr:  one band on    1 cores,   16 groups
 vasp.6.2.1 16May21 (build Jul 28 2021 23:24:15) complex                        
  
 POSCAR found type information on POSCAR IrO 
 POSCAR found :  2 types and     104 ions
 scaLAPACK will be used
 -----------------------------------------------------------------------------
|                                                                             |
|           W    W    AA    RRRRR   N    N  II  N    N   GGGG   !!!           |
|           W    W   A  A   R    R  NN   N  II  NN   N  G    G  !!!           |
|           W    W  A    A  R    R  N N  N  II  N N  N  G       !!!           |
|           W WW W  AAAAAA  RRRRR   N  N N  II  N  N N  G  GGG   !            |
|           WW  WW  A    A  R   R   N   NN  II  N   NN  G    G                |
|           W    W  A    A  R    R  N    N  II  N    N   GGGG   !!!           |
|                                                                             |
|     The real-space projection scheme for the treatment of the non-local     |
|     pseudopotentials has been switched on but on file POTCAR I have not     |
|     found any entries, signalling me that you have never performed a        |
|     real-space optimization of all non-local projectors! BE WARNED that     |
|     a calculation using the real-space projection scheme together with      |
|     non-local projectors which were not real-space optimized (according     |
|     to the plane-wave cutoff used in this calculation) might give more      |
|     or less inaccurate results. I hope you know what you are doing.         |
|                                                                             |
 -----------------------------------------------------------------------------

 LDA part: xc-table for Pade appr. of Perdew
 POSCAR, INCAR and KPOINTS ok, starting setup
 FFT: planning ...
 WAVECAR not read
 WARNING: random wavefunctions but no delay for mixing, default for NELMDL
 entering main loop
       N       E                     dE             d eps       ncg     rms          rms(c)
DAV:   1     0.773067256395E+04    0.77307E+04   -0.30782E+05 13648   0.125E+03
DAV:   2     0.588960960684E+03   -0.71417E+04   -0.64459E+04 14544   0.369E+02
DAV:   3    -0.785074956283E+03   -0.13740E+04   -0.13135E+04 16768   0.163E+02
DAV:   4    -0.859315546248E+03   -0.74241E+02   -0.72373E+02 18256   0.426E+01
DAV:   5    -0.861036765310E+03   -0.17212E+01   -0.17006E+01 17344   0.608E+00    0.191E+02
RMM:   6    -0.880963385833E+03   -0.19927E+02   -0.70365E+02 13461   0.427E+01    0.267E+02
RMM:   7    -0.678792814950E+03    0.20217E+03   -0.15110E+02 14122   0.211E+01    0.102E+02
RMM:   8    -0.122731586630E+04   -0.54852E+03   -0.22140E+02 14541   0.177E+01    0.331E+02
RMM:   9    -0.920097949665E+03    0.30722E+03   -0.61733E+01 13522   0.137E+01    0.200E+02
RMM:  10    -0.650213063741E+03    0.26988E+03   -0.36293E+01 13443   0.848E+00    0.576E+01
RMM:  11    -0.639544840178E+03    0.10668E+02   -0.26833E+01 13500   0.828E+00    0.327E+01
RMM:  12    -0.641486767848E+03   -0.19419E+01   -0.11056E+01 13588   0.532E+00    0.424E+01
RMM:  13    -0.636831600844E+03    0.46552E+01   -0.40776E+00 14056   0.326E+00    0.268E+01
RMM:  14    -0.643631436064E+03   -0.67998E+01   -0.24939E+00 14330   0.218E+00    0.228E+01
RMM:  15    -0.653841940043E+03   -0.10211E+02   -0.44593E+00 14920   0.276E+00    0.228E+01
RMM:  16    -0.670920085626E+03   -0.17078E+02   -0.16830E+01 17523   0.494E+00    0.163E+01
RMM:  17    -0.675364695337E+03   -0.44446E+01   -0.34304E+00 14849   0.253E+00    0.157E+01
RMM:  18    -0.677210969442E+03   -0.18463E+01   -0.12101E+00 14182   0.161E+00    0.140E+01
RMM:  19    -0.676557602361E+03    0.65337E+00   -0.40794E-01 14087   0.884E-01    0.134E+01
RMM:  20    -0.677222507845E+03   -0.66491E+00   -0.45123E-01 14161   0.924E-01    0.121E+01
RMM:  21    -0.678717961300E+03   -0.14955E+01   -0.74302E-01 15508   0.116E+00    0.112E+01
RMM:  22    -0.680475088957E+03   -0.17571E+01   -0.16582E+00 17170   0.162E+00    0.927E+00
RMM:  23    -0.681333078276E+03   -0.85799E+00   -0.40378E-01 14795   0.843E-01    0.808E+00
RMM:  24    -0.682703218730E+03   -0.13701E+01   -0.23663E-01 14171   0.683E-01    0.779E+00
RMM:  25    -0.685214113804E+03   -0.25109E+01   -0.61214E-01 15781   0.957E-01    0.707E+00
RMM:  26    -0.689090202437E+03   -0.38761E+01   -0.10988E+00 17907   0.123E+00    0.551E+00
RMM:  27    -0.691487941831E+03   -0.23977E+01   -0.43190E-01 15743   0.794E-01    0.418E+00
RMM:  28    -0.692817082795E+03   -0.13291E+01   -0.13098E-01 14149   0.488E-01    0.361E+00
RMM:  29    -0.693663448543E+03   -0.84637E+00   -0.13193E-01 14552   0.475E-01    0.324E+00
RMM:  30    -0.694375446796E+03   -0.71200E+00   -0.72950E-02 13975   0.378E-01    0.250E+00
RMM:  31    -0.695207065689E+03   -0.83162E+00   -0.79179E-02 14792   0.368E-01    0.191E+00
RMM:  32    -0.695530267164E+03   -0.32320E+00   -0.55888E-02 14367   0.312E-01    0.163E+00
RMM:  33    -0.695738693573E+03   -0.20843E+00   -0.24618E-02 13794   0.215E-01    0.142E+00
RMM:  34    -0.695918515377E+03   -0.17982E+00   -0.36292E-02 14831   0.219E-01    0.130E+00
RMM:  35    -0.696013277147E+03   -0.94762E-01   -0.13594E-02 13921   0.145E-01    0.115E+00
RMM:  36    -0.696193355237E+03   -0.18008E+00   -0.22561E-02 15320   0.167E-01    0.942E-01
RMM:  37    -0.696359060990E+03   -0.16571E+00   -0.18084E-02 15107   0.143E-01    0.833E-01
RMM:  38    -0.696471581589E+03   -0.11252E+00   -0.52053E-03 13706   0.907E-02    0.741E-01
RMM:  39    -0.696554163154E+03   -0.82582E-01   -0.17352E-03 12838   0.626E-02    0.615E-01
RMM:  40    -0.696630771206E+03   -0.76608E-01   -0.91340E-04 12057   0.433E-02    0.503E-01
RMM:  41    -0.696687797872E+03   -0.57027E-01   -0.46275E-04 11055   0.351E-02    0.451E-01
RMM:  42    -0.696772103928E+03   -0.84306E-01   -0.47700E-04 10779   0.333E-02    0.316E-01
RMM:  43    -0.696820475559E+03   -0.48372E-01   -0.23880E-04  9478   0.242E-02    0.240E-01
RMM:  44    -0.696844873235E+03   -0.24398E-01   -0.12216E-04  8316   0.188E-02    0.179E-01
RMM:  45    -0.696856658682E+03   -0.11785E-01   -0.87949E-05  8231   0.140E-02    0.139E-01
RMM:  46    -0.696863553398E+03   -0.68947E-02   -0.68744E-05  8211   0.124E-02    0.966E-02
RMM:  47    -0.696866782549E+03   -0.32292E-02   -0.56009E-05  7931   0.108E-02    0.612E-02
RMM:  48    -0.696867639659E+03   -0.85711E-03   -0.25564E-05  7603   0.810E-03    0.508E-02
RMM:  49    -0.696868019992E+03   -0.38033E-03   -0.14778E-05  6898   0.589E-03    0.437E-02
RMM:  50    -0.696868145742E+03   -0.12575E-03   -0.59844E-06  5480   0.436E-03    0.336E-02
RMM:  51    -0.696868589848E+03   -0.44411E-03   -0.22141E-05  7338   0.578E-03    0.268E-02
RMM:  52    -0.696868626564E+03   -0.36716E-04   -0.97865E-06  6275   0.488E-03
   1 F= -.69686863E+03 E0= -.69626655E+03  d E =-.696869E+03  mag=    10.5778
 curvature:   0.00 expect dE= 0.000E+00 dE for cont linesearch  0.000E+00
 trial: gam= 0.00000 g(F)=  0.983E+01 g(S)=  0.000E+00 ort = 0.000E+00 (trialstep = 0.100E+01)
 search vector abs. value=  0.983E+01
 bond charge predicted
       N       E                     dE             d eps       ncg     rms          rms(c)
DAV:   1    -0.690654066190E+03    0.62145E+01   -0.21673E+03 13760   0.638E+01    0.260E+01
RMM:   2    -0.771225062408E+03   -0.80571E+02   -0.10796E+02 13440   0.189E+01    0.191E+02
RMM:   3    -0.780578534551E+03   -0.93535E+01   -0.33672E+01 15244   0.732E+00    0.191E+02
RMM:   4    -0.746859976164E+03    0.33719E+02   -0.48701E+00 15362   0.301E+00    0.138E+02
RMM:   5    -0.719607772824E+03    0.27252E+02   -0.44026E+00 13983   0.302E+00    0.104E+02
RMM:   6    -0.696098636930E+03    0.23509E+02   -0.21013E+00 13901   0.231E+00    0.627E+01
RMM:   7    -0.696518316314E+03   -0.41968E+00   -0.25482E+00 14274   0.239E+00    0.493E+01
RMM:   8    -0.696279244143E+03    0.23907E+00   -0.30178E+00 14854   0.213E+00    0.466E+01
RMM:   9    -0.695689806895E+03    0.58944E+00   -0.12805E+00 13904   0.172E+00    0.385E+01
RMM:  10    -0.695453854922E+03    0.23595E+00   -0.98822E-01 14224   0.149E+00    0.329E+01
RMM:  11    -0.695342597240E+03    0.11126E+00   -0.35617E-01 13772   0.985E-01    0.320E+01
RMM:  12    -0.695018890197E+03    0.32371E+00   -0.30370E-01 13764   0.838E-01    0.314E+01
RMM:  13    -0.694195805944E+03    0.82308E+00   -0.55633E-01 15436   0.983E-01    0.310E+01
RMM:  14    -0.693885611326E+03    0.31019E+00   -0.98443E-02 14582   0.425E-01    0.313E+01
RMM:  15    -0.693535704377E+03    0.34991E+00   -0.10518E-01 14052   0.447E-01    0.330E+01
RMM:  16    -0.693324524021E+03    0.21118E+00   -0.15758E-01 14832   0.531E-01    0.354E+01
RMM:  17    -0.693514673206E+03   -0.19015E+00   -0.71011E-02 14024   0.381E-01    0.376E+01
RMM:  18    -0.694069648983E+03   -0.55498E+00   -0.14073E-01 16208   0.455E-01    0.406E+01
RMM:  19    -0.694647001793E+03   -0.57735E+00   -0.10664E-01 15608   0.395E-01    0.435E+01
RMM:  20    -0.695389793332E+03   -0.74279E+00   -0.16130E-01 17124   0.471E-01    0.476E+01
RMM:  21    -0.696004410978E+03   -0.61462E+00   -0.95106E-02 16107   0.381E-01    0.513E+01
RMM:  22    -0.696400948476E+03   -0.39654E+00   -0.47418E-02 14815   0.280E-01    0.540E+01
RMM:  23    -0.696745707001E+03   -0.34476E+00   -0.44939E-02 14610   0.265E-01    0.565E+01
RMM:  24    -0.696480972702E+03    0.26473E+00   -0.13902E-02 13475   0.198E-01    0.544E+01
RMM:  25    -0.696179703301E+03    0.30127E+00   -0.34094E-02 14064   0.241E-01    0.520E+01
RMM:  26    -0.695373437746E+03    0.80627E+00   -0.30706E-01 21838   0.688E-01    0.444E+01
RMM:  27    -0.694279368516E+03    0.10941E+01   -0.10321E+00 23582   0.129E+00    0.292E+01
RMM:  28    -0.693921933603E+03    0.35743E+00   -0.26344E-01 21944   0.637E-01    0.212E+01
RMM:  29    -0.693806529616E+03    0.11540E+00   -0.21547E-01 20977   0.595E-01    0.141E+01
RMM:  30    -0.693997956269E+03   -0.19143E+00   -0.29963E-02 16588   0.238E-01    0.111E+01
RMM:  31    -0.694314961601E+03   -0.31701E+00   -0.20081E-02 14608   0.214E-01    0.777E+00
RMM:  32    -0.694498678656E+03   -0.18372E+00   -0.18145E-02 14462   0.190E-01    0.503E+00
RMM:  33    -0.694587360243E+03   -0.88682E-01   -0.74806E-03 13556   0.132E-01    0.428E+00
RMM:  34    -0.694685735933E+03   -0.98376E-01   -0.53387E-03 13866   0.103E-01    0.402E+00
RMM:  35    -0.694790593020E+03   -0.10486E+00   -0.13793E-02 16643   0.147E-01    0.240E+00
RMM:  36    -0.694880390966E+03   -0.89798E-01   -0.30916E-02 18399   0.221E-01    0.990E-01
RMM:  37    -0.694900677435E+03   -0.20286E-01   -0.41931E-03 15724   0.864E-02    0.124E+00
RMM:  38    -0.694922333374E+03   -0.21656E-01   -0.14715E-03 13333   0.517E-02    0.133E+00
RMM:  39    -0.694970315530E+03   -0.47982E-01   -0.74636E-04 12671   0.434E-02    0.891E-01
RMM:  40    -0.694995581129E+03   -0.25266E-01   -0.34928E-04 10298   0.285E-02    0.931E-01
RMM:  41    -0.695018028024E+03   -0.22447E-01   -0.26283E-04  9268   0.241E-02    0.100E+00
RMM:  42    -0.695059525452E+03   -0.41497E-01   -0.21856E-04  8786   0.239E-02    0.824E-01
RMM:  43    -0.695097699378E+03   -0.38174E-01   -0.36005E-04 10174   0.260E-02    0.676E-01
RMM:  44    -0.695130915799E+03   -0.33216E-01   -0.16609E-04  8645   0.206E-02    0.757E-01
RMM:  45    -0.695152549573E+03   -0.21634E-01   -0.12787E-04  8533   0.155E-02    0.781E-01
RMM:  46    -0.695170290272E+03   -0.17741E-01   -0.11061E-04  8528   0.136E-02    0.741E-01
RMM:  47    -0.695194076623E+03   -0.23786E-01   -0.26512E-03 14983   0.658E-02    0.697E-02
RMM:  48    -0.695214478667E+03   -0.20402E-01   -0.21833E-04  9000   0.232E-02    0.451E-02
RMM:  49    -0.695224548751E+03   -0.10070E-01   -0.12997E-04  8618   0.126E-02    0.377E-02
RMM:  50    -0.695227917640E+03   -0.33689E-02   -0.45986E-05  7738   0.887E-03    0.285E-02
RMM:  51    -0.695230566994E+03   -0.26494E-02   -0.40482E-05  6805   0.733E-03    0.198E-02
RMM:  52    -0.695231478962E+03   -0.91197E-03   -0.18058E-05  6555   0.579E-03    0.192E-02
RMM:  53    -0.695232575951E+03   -0.10970E-02   -0.18940E-05  5516   0.506E-03    0.142E-02
RMM:  54    -0.695232958190E+03   -0.38224E-03   -0.90376E-06  4735   0.437E-03    0.941E-03
RMM:  55    -0.695233140869E+03   -0.18268E-03   -0.49537E-06  4078   0.366E-03    0.626E-03
RMM:  56    -0.695233274461E+03   -0.13359E-03   -0.41055E-06  3786   0.342E-03    0.496E-03
RMM:  57    -0.695233232617E+03    0.41844E-04   -0.32762E-06  3902   0.337E-03
   2 F= -.69523323E+03 E0= -.69461989E+03  d E =0.163539E+01  mag=     6.6532
 trial-energy change:    1.635394  1 .order    1.181754   -9.829378   12.192886
 step:   0.4163(harm=  0.4463)  dis= 0.06597  next Energy=  -698.881907 (dE=-0.201E+01)
 bond charge predicted
       N       E                     dE             d eps       ncg     rms          rms(c)
DAV:   1    -0.697773917608E+03   -0.25406E+01   -0.71771E+02 13792   0.366E+01    0.208E+01
RMM:   2    -0.761232980113E+03   -0.63459E+02   -0.24428E+01 13442   0.821E+00    0.927E+01
RMM:   3    -0.714300065949E+03    0.46933E+02   -0.51041E+00 14535   0.383E+00    0.562E+01
RMM:   4    -0.712082514668E+03    0.22176E+01   -0.11220E+00 15868   0.153E+00    0.551E+01
RMM:   5    -0.715537013333E+03   -0.34545E+01   -0.33468E-01 13614   0.856E-01    0.610E+01
RMM:   6    -0.714928978794E+03    0.60803E+00   -0.17278E-01 14322   0.522E-01    0.596E+01
RMM:   7    -0.700720217785E+03    0.14209E+02   -0.60115E+00 21898   0.280E+00    0.254E+01
RMM:   8    -0.696588444314E+03    0.41318E+01   -0.48431E+00 20957   0.253E+00    0.162E+01
RMM:   9    -0.696221156838E+03    0.36729E+00   -0.76044E-01 17372   0.121E+00    0.130E+01
RMM:  10    -0.696664859998E+03   -0.44370E+00   -0.46869E-01 15754   0.872E-01    0.128E+01
RMM:  11    -0.697336268707E+03   -0.67141E+00   -0.25176E-01 14525   0.643E-01    0.137E+01
RMM:  12    -0.697590923322E+03   -0.25465E+00   -0.84928E-02 14048   0.385E-01    0.132E+01
RMM:  13    -0.698058431133E+03   -0.46751E+00   -0.18937E-01 15610   0.515E-01    0.106E+01
RMM:  14    -0.698453458039E+03   -0.39503E+00   -0.22581E-01 16360   0.569E-01    0.827E+00
RMM:  15    -0.698638482780E+03   -0.18502E+00   -0.12245E-01 15290   0.456E-01    0.576E+00
RMM:  16    -0.698687508583E+03   -0.49026E-01   -0.55692E-02 14298   0.338E-01    0.481E+00
RMM:  17    -0.698658289851E+03    0.29219E-01   -0.42976E-02 14302   0.305E-01    0.384E+00
RMM:  18    -0.698573362387E+03    0.84927E-01   -0.41769E-02 14570   0.263E-01    0.328E+00
RMM:  19    -0.698541541795E+03    0.31821E-01   -0.24928E-02 14443   0.216E-01    0.314E+00
RMM:  20    -0.698537965233E+03    0.35766E-02   -0.10658E-02 14234   0.154E-01    0.281E+00
RMM:  21    -0.698510505654E+03    0.27460E-01   -0.77729E-03 13914   0.129E-01    0.224E+00
RMM:  22    -0.698514679449E+03   -0.41738E-02   -0.44269E-03 13675   0.105E-01    0.214E+00
RMM:  23    -0.698506162244E+03    0.85172E-02   -0.25070E-03 13734   0.783E-02    0.192E+00
RMM:  24    -0.698502547354E+03    0.36149E-02   -0.47968E-03 15616   0.102E-01    0.141E+00
RMM:  25    -0.698513980787E+03   -0.11433E-01   -0.20386E-03 13651   0.729E-02    0.116E+00
RMM:  26    -0.698527112412E+03   -0.13132E-01   -0.22715E-03 14252   0.713E-02    0.896E-01
RMM:  27    -0.698555851788E+03   -0.28739E-01   -0.13457E-03 13048   0.552E-02    0.830E-01
RMM:  28    -0.698581012319E+03   -0.25161E-01   -0.16808E-03 13723   0.541E-02    0.790E-01
RMM:  29    -0.698596630433E+03   -0.15618E-01   -0.18361E-03 13759   0.558E-02    0.595E-01
RMM:  30    -0.698618657138E+03   -0.22027E-01   -0.20383E-03 14102   0.574E-02    0.486E-01
RMM:  31    -0.698650326604E+03   -0.31669E-01   -0.18748E-03 13559   0.508E-02    0.457E-01
RMM:  32    -0.698682132989E+03   -0.31806E-01   -0.16493E-03 13186   0.472E-02    0.387E-01
RMM:  33    -0.698719132253E+03   -0.36999E-01   -0.15060E-03 12930   0.438E-02    0.312E-01
RMM:  34    -0.698744395360E+03   -0.25263E-01   -0.49216E-04 10488   0.276E-02    0.223E-01
RMM:  35    -0.698772211199E+03   -0.27816E-01   -0.44900E-04 10410   0.256E-02    0.135E-01
RMM:  36    -0.698793385177E+03   -0.21174E-01   -0.25225E-04  9188   0.201E-02    0.909E-02
RMM:  37    -0.698809613736E+03   -0.16229E-01   -0.14711E-04  8555   0.161E-02    0.767E-02
RMM:  38    -0.698821262341E+03   -0.11649E-01   -0.60908E-05  8029   0.125E-02    0.777E-02
RMM:  39    -0.698831059442E+03   -0.97971E-02   -0.43830E-05  7869   0.106E-02    0.780E-02
RMM:  40    -0.698841425721E+03   -0.10366E-01   -0.40450E-05  7653   0.919E-03    0.809E-02
RMM:  41    -0.698850730121E+03   -0.93044E-02   -0.40109E-05  7409   0.872E-03    0.711E-02
RMM:  42    -0.698862054759E+03   -0.11325E-01   -0.67916E-05  7894   0.954E-03    0.625E-02
RMM:  43    -0.698871523106E+03   -0.94683E-02   -0.60871E-05  7435   0.843E-03    0.560E-02
RMM:  44    -0.698876194121E+03   -0.46710E-02   -0.40090E-05  7292   0.788E-03    0.462E-02
RMM:  45    -0.698879019857E+03   -0.28257E-02   -0.32486E-05  7026   0.705E-03    0.314E-02
RMM:  46    -0.698880811106E+03   -0.17912E-02   -0.23689E-05  6472   0.611E-03    0.196E-02
RMM:  47    -0.698882039441E+03   -0.12283E-02   -0.20996E-05  6992   0.602E-03    0.128E-02
RMM:  48    -0.698882615272E+03   -0.57583E-03   -0.99811E-06  4925   0.453E-03    0.988E-03
RMM:  49    -0.698882922144E+03   -0.30687E-03   -0.55716E-06  4077   0.371E-03    0.672E-03
RMM:  50    -0.698883136471E+03   -0.21433E-03   -0.35224E-06  3779   0.338E-03    0.546E-03
RMM:  51    -0.698883312604E+03   -0.17613E-03   -0.25741E-06  3490   0.317E-03    0.393E-03
RMM:  52    -0.698883466021E+03   -0.15342E-03   -0.20834E-06  3227   0.306E-03    0.319E-03
RMM:  53    -0.698883524123E+03   -0.58102E-04   -0.11315E-06  2815   0.293E-03
   3 F= -.69888352E+03 E0= -.69827221E+03  d E =-.201490E+01  mag=     9.6927
 curvature:  -0.22 expect dE=-0.740E+00 dE for cont linesearch -0.318E-02
 trial: gam= 0.29998 g(F)=  0.332E+01 g(S)=  0.000E+00 ort = 0.375E+00 (trialstep = 0.883E+00)
 search vector abs. value=  0.443E+01
 bond charge predicted
       N       E                     dE             d eps       ncg     rms          rms(c)
DAV:   1    -0.696193190287E+03    0.26903E+01   -0.81532E+02 13440   0.439E+01    0.949E+00
RMM:   2    -0.704962423138E+03   -0.87692E+01   -0.22599E+01 13440   0.931E+00    0.444E+01
RMM:   3    -0.698493615474E+03    0.64688E+01   -0.40777E+00 13940   0.376E+00    0.871E+00
RMM:   4    -0.699007941515E+03   -0.51433E+00   -0.12249E+00 14289   0.197E+00    0.144E+01
RMM:   5    -0.698162588538E+03    0.84535E+00   -0.38226E-01 13542   0.120E+00    0.776E+00
RMM:   6    -0.698101135270E+03    0.61453E-01   -0.24330E-01 13478   0.832E-01    0.615E+00
RMM:   7    -0.697975516646E+03    0.12562E+00   -0.15983E-01 13525   0.687E-01    0.386E+00
RMM:   8    -0.697991784692E+03   -0.16268E-01   -0.10000E-01 13671   0.522E-01    0.422E+00
RMM:   9    -0.697998135677E+03   -0.63510E-02   -0.26350E-02 13571   0.304E-01    0.324E+00
RMM:  10    -0.697956841573E+03    0.41294E-01   -0.14893E-02 14554   0.160E-01    0.170E+00
RMM:  11    -0.697969788000E+03   -0.12946E-01   -0.34482E-03 13891   0.846E-02    0.142E+00
RMM:  12    -0.697974632716E+03   -0.48447E-02   -0.96733E-04 12541   0.414E-02    0.137E+00
RMM:  13    -0.697978412825E+03   -0.37801E-02   -0.21675E-03 13629   0.625E-02    0.101E+00
RMM:  14    -0.697997825231E+03   -0.19412E-01   -0.15615E-03 13336   0.532E-02    0.724E-01
RMM:  15    -0.698017157012E+03   -0.19332E-01   -0.85859E-04 12457   0.426E-02    0.526E-01
RMM:  16    -0.698043170406E+03   -0.26013E-01   -0.17946E-03 13539   0.521E-02    0.320E-01
RMM:  17    -0.698068239152E+03   -0.25069E-01   -0.15946E-03 13348   0.487E-02    0.335E-01
RMM:  18    -0.698102652091E+03   -0.34413E-01   -0.25790E-03 14055   0.561E-02    0.354E-01
RMM:  19    -0.698174705227E+03   -0.72053E-01   -0.66134E-03 15653   0.791E-02    0.443E-01
RMM:  20    -0.698203647363E+03   -0.28942E-01   -0.10611E-03 11968   0.359E-02    0.389E-01
RMM:  21    -0.698242782796E+03   -0.39135E-01   -0.13349E-03 12187   0.370E-02    0.259E-01
RMM:  22    -0.698273662436E+03   -0.30880E-01   -0.56629E-04 10850   0.276E-02    0.158E-01
RMM:  23    -0.698311348945E+03   -0.37687E-01   -0.70251E-04 11314   0.304E-02    0.102E-01
RMM:  24    -0.698332376513E+03   -0.21028E-01   -0.28595E-04  9400   0.198E-02    0.113E-01
RMM:  25    -0.698343994865E+03   -0.11618E-01   -0.81009E-05  8205   0.131E-02    0.122E-01
RMM:  26    -0.698357962134E+03   -0.13967E-01   -0.49586E-05  8029   0.102E-02    0.123E-01
RMM:  27    -0.698367989761E+03   -0.10028E-01   -0.28653E-05  7464   0.867E-03    0.109E-01
RMM:  28    -0.698376149806E+03   -0.81600E-02   -0.16664E-05  7568   0.713E-03    0.833E-02
RMM:  29    -0.698382882874E+03   -0.67331E-02   -0.14827E-05  7260   0.569E-03    0.607E-02
RMM:  30    -0.698388065559E+03   -0.51827E-02   -0.13232E-05  7060   0.542E-03    0.423E-02
RMM:  31    -0.698396207366E+03   -0.81418E-02   -0.40362E-05  7748   0.761E-03    0.344E-02
RMM:  32    -0.698402179127E+03   -0.59718E-02   -0.43000E-05  7541   0.736E-03    0.459E-02
RMM:  33    -0.698404701072E+03   -0.25219E-02   -0.19620E-05  6404   0.562E-03    0.463E-02
RMM:  34    -0.698406175164E+03   -0.14741E-02   -0.12060E-05  5322   0.462E-03    0.375E-02
RMM:  35    -0.698408351253E+03   -0.21761E-02   -0.23384E-05  5962   0.510E-03    0.275E-02
RMM:  36    -0.698409263664E+03   -0.91241E-03   -0.11134E-05  4830   0.424E-03    0.182E-02
RMM:  37    -0.698410322328E+03   -0.10587E-02   -0.18141E-05  5749   0.471E-03    0.122E-02
RMM:  38    -0.698410526442E+03   -0.20411E-03   -0.56072E-06  4042   0.383E-03    0.723E-03
RMM:  39    -0.698410697034E+03   -0.17059E-03   -0.36408E-06  3562   0.321E-03    0.688E-03
RMM:  40    -0.698410767009E+03   -0.69975E-04   -0.18710E-06  3298   0.312E-03
   4 F= -.69841077E+03 E0= -.69778651E+03  d E =0.472757E+00  mag=     7.2642
 trial-energy change:    0.472757  1 .order   -0.336321   -3.034850    2.362209
 step:   0.3145(harm=  0.4967)  dis= 0.02276  next Energy=  -699.387320 (dE=-0.504E+00)
 bond charge predicted
       N       E                     dE             d eps       ncg     rms          rms(c)
DAV:   1    -0.698443411628E+03   -0.32715E-01   -0.33843E+02 13648   0.283E+01    0.562E+00
RMM:   2    -0.701885335923E+03   -0.34419E+01   -0.75626E+00 13440   0.530E+00    0.228E+01
RMM:   3    -0.699393215374E+03    0.24921E+01   -0.15178E+00 14431   0.217E+00    0.667E+00
RMM:   4    -0.699682399848E+03   -0.28918E+00   -0.41663E-01 13773   0.114E+00    0.987E+00
RMM:   5    -0.699183006501E+03    0.49939E+00   -0.15985E-01 13467   0.762E-01    0.606E+00
RMM:   6    -0.698898150827E+03    0.28486E+00   -0.12823E-01 13595   0.553E-01    0.420E+00
RMM:   7    -0.698675140263E+03    0.22301E+00   -0.11635E-01 14061   0.515E-01    0.193E+00
RMM:   8    -0.698709938016E+03   -0.34798E-01   -0.39655E-02 13692   0.320E-01    0.123E+00
RMM:   9    -0.698787916189E+03   -0.77978E-01   -0.10503E-02 13741   0.168E-01    0.744E-01
RMM:  10    -0.698893715923E+03   -0.10580E+00   -0.16639E-02 13979   0.157E-01    0.664E-01
RMM:  11    -0.698936836227E+03   -0.43120E-01   -0.93430E-03 13871   0.123E-01    0.562E-01
RMM:  12    -0.698941539993E+03   -0.47038E-02   -0.17268E-03 12992   0.697E-02    0.454E-01
RMM:  13    -0.698941108256E+03    0.43174E-03   -0.67788E-04 11633   0.415E-02    0.260E-01
RMM:  14    -0.698972853115E+03   -0.31745E-01   -0.15356E-03 12982   0.429E-02    0.248E-01
RMM:  15    -0.699021016179E+03   -0.48163E-01   -0.40396E-03 14640   0.629E-02    0.271E-01
RMM:  16    -0.699058951175E+03   -0.37935E-01   -0.22744E-03 13597   0.488E-02    0.230E-01
RMM:  17    -0.699089387275E+03   -0.30436E-01   -0.11538E-03 12241   0.379E-02    0.199E-01
RMM:  18    -0.699113921115E+03   -0.24534E-01   -0.80542E-04 11530   0.330E-02    0.165E-01
RMM:  19    -0.699144433992E+03   -0.30513E-01   -0.11011E-03 11840   0.344E-02    0.135E-01
RMM:  20    -0.699165650174E+03   -0.21216E-01   -0.42370E-04 10023   0.226E-02    0.108E-01
RMM:  21    -0.699179526722E+03   -0.13877E-01   -0.17836E-04  8808   0.168E-02    0.861E-02
RMM:  22    -0.699193464077E+03   -0.13937E-01   -0.13898E-04  8608   0.145E-02    0.735E-02
RMM:  23    -0.699202193217E+03   -0.87291E-02   -0.60223E-05  7991   0.111E-02    0.539E-02
RMM:  24    -0.699211145621E+03   -0.89524E-02   -0.42293E-05  7481   0.874E-03    0.435E-02
RMM:  25    -0.699217610555E+03   -0.64649E-02   -0.21310E-05  7451   0.679E-03    0.424E-02
RMM:  26    -0.699226195503E+03   -0.85849E-02   -0.22677E-05  7355   0.638E-03    0.361E-02
RMM:  27    -0.699232348207E+03   -0.61527E-02   -0.17230E-05  7278   0.601E-03    0.293E-02
RMM:  28    -0.699235560937E+03   -0.32127E-02   -0.12438E-05  6218   0.486E-03    0.253E-02
RMM:  29    -0.699238873524E+03   -0.33126E-02   -0.17722E-05  6418   0.505E-03    0.231E-02
RMM:  30    -0.699241980685E+03   -0.31072E-02   -0.24033E-05  6546   0.538E-03    0.202E-02
RMM:  31    -0.699243992261E+03   -0.20116E-02   -0.20645E-05  5700   0.502E-03    0.149E-02
RMM:  32    -0.699245292395E+03   -0.13001E-02   -0.18547E-05  5655   0.483E-03    0.126E-02
RMM:  33    -0.699245827647E+03   -0.53525E-03   -0.86203E-06  4538   0.411E-03    0.103E-02
RMM:  34    -0.699246330387E+03   -0.50274E-03   -0.64954E-06  4113   0.367E-03    0.991E-03
RMM:  35    -0.699246757477E+03   -0.42709E-03   -0.55452E-06  4059   0.359E-03    0.622E-03
RMM:  36    -0.699247032261E+03   -0.27478E-03   -0.42322E-06  3861   0.342E-03    0.571E-03
RMM:  37    -0.699247189070E+03   -0.15681E-03   -0.31826E-06  3634   0.329E-03    0.390E-03
RMM:  38    -0.699247239956E+03   -0.50886E-04   -0.15029E-06  3009   0.307E-03
   5 F= -.69924724E+03 E0= -.69862870E+03  d E =-.363716E+00  mag=     8.9266
 curvature:  -0.25 expect dE=-0.125E+01 dE for cont linesearch -0.114E-01
 trial: gam= 1.58350 g(F)=  0.503E+01 g(S)=  0.000E+00 ort =-0.450E+00 (trialstep = 0.232E+00)
 search vector abs. value=  0.147E+02
 bond charge predicted
       N       E                     dE             d eps       ncg     rms          rms(c)
DAV:   1    -0.698546577624E+03    0.70061E+00   -0.18971E+02 13664   0.209E+01    0.433E+00
RMM:   2    -0.699489213830E+03   -0.94264E+00   -0.43668E+00 13440   0.402E+00    0.111E+01
RMM:   3    -0.699349941022E+03    0.13927E+00   -0.79913E-01 13785   0.162E+00    0.805E+00
RMM:   4    -0.699068096263E+03    0.28184E+00   -0.23614E-01 13985   0.886E-01    0.380E+00
RMM:   5    -0.698984481200E+03    0.83615E-01   -0.83377E-02 13842   0.516E-01    0.266E+00
RMM:   6    -0.698923940018E+03    0.60541E-01   -0.46176E-02 13484   0.368E-01    0.191E+00
RMM:   7    -0.698876006485E+03    0.47934E-01   -0.30582E-02 13562   0.300E-01    0.130E+00
RMM:   8    -0.698871673667E+03    0.43328E-02   -0.13044E-02 13521   0.204E-01    0.588E-01
RMM:   9    -0.698873448941E+03   -0.17753E-02   -0.42248E-03 13977   0.107E-01    0.327E-01
RMM:  10    -0.698877144902E+03   -0.36960E-02   -0.12361E-03 13393   0.497E-02    0.246E-01
RMM:  11    -0.698883007930E+03   -0.58630E-02   -0.44722E-04 11373   0.321E-02    0.202E-01
RMM:  12    -0.698893240183E+03   -0.10232E-01   -0.69710E-04 11887   0.346E-02    0.195E-01
RMM:  13    -0.698905681655E+03   -0.12441E-01   -0.76887E-04 11764   0.334E-02    0.185E-01
RMM:  14    -0.698916425649E+03   -0.10744E-01   -0.30615E-04  9682   0.234E-02    0.162E-01
RMM:  15    -0.698930972350E+03   -0.14547E-01   -0.41401E-04  9846   0.231E-02    0.130E-01
RMM:  16    -0.698957122633E+03   -0.26150E-01   -0.10886E-03 11357   0.311E-02    0.111E-01
RMM:  17    -0.698976578751E+03   -0.19456E-01   -0.85423E-04 10867   0.271E-02    0.105E-01
RMM:  18    -0.698988880623E+03   -0.12302E-01   -0.42544E-04  9730   0.203E-02    0.658E-02
RMM:  19    -0.699001309952E+03   -0.12429E-01   -0.19834E-04  8842   0.145E-02    0.625E-02
RMM:  20    -0.699012254563E+03   -0.10945E-01   -0.10370E-04  8095   0.117E-02    0.424E-02
RMM:  21    -0.699022487396E+03   -0.10233E-01   -0.72523E-05  7936   0.100E-02    0.343E-02
RMM:  22    -0.699028097634E+03   -0.56102E-02   -0.28089E-05  7083   0.723E-03    0.326E-02
RMM:  23    -0.699034314603E+03   -0.62170E-02   -0.21045E-05  6739   0.592E-03    0.275E-02
RMM:  24    -0.699039287611E+03   -0.49730E-02   -0.19314E-05  6943   0.546E-03    0.244E-02
RMM:  25    -0.699042077036E+03   -0.27894E-02   -0.15337E-05  6751   0.522E-03    0.202E-02
RMM:  26    -0.699043218417E+03   -0.11414E-02   -0.58847E-06  4967   0.416E-03    0.156E-02
RMM:  27    -0.699044738449E+03   -0.15200E-02   -0.42643E-06  4622   0.356E-03    0.133E-02
RMM:  28    -0.699046689635E+03   -0.19512E-02   -0.72846E-06  5266   0.383E-03    0.132E-02
RMM:  29    -0.699048519407E+03   -0.18298E-02   -0.99470E-06  5359   0.395E-03    0.131E-02
RMM:  30    -0.699050211635E+03   -0.16922E-02   -0.14593E-05  5597   0.432E-03    0.124E-02
RMM:  31    -0.699050882802E+03   -0.67117E-03   -0.69973E-06  4565   0.367E-03    0.822E-03
RMM:  32    -0.699051381439E+03   -0.49864E-03   -0.59505E-06  4384   0.355E-03    0.618E-03
RMM:  33    -0.699051856038E+03   -0.47460E-03   -0.70088E-06  4450   0.354E-03    0.491E-03
RMM:  34    -0.699052025959E+03   -0.16992E-03   -0.35006E-06  3862   0.334E-03    0.385E-03
RMM:  35    -0.699052128962E+03   -0.10300E-03   -0.25693E-06  3411   0.309E-03    0.313E-03
RMM:  36    -0.699052167981E+03   -0.39020E-04   -0.14810E-06  3033   0.299E-03
   6 F= -.69905217E+03 E0= -.69842955E+03  d E =0.195072E+00  mag=     7.8899
 trial-energy change:    0.195072  1 .order   -0.128832   -1.000304    0.742640
 step:   0.0760(harm=  0.1330)  dis= 0.01080  next Energy=  -699.399902 (dE=-0.153E+00)
 bond charge predicted
       N       E                     dE             d eps       ncg     rms          rms(c)
DAV:   1    -0.699096818353E+03   -0.44689E-01   -0.85775E+01 13776   0.140E+01    0.278E+00
RMM:   2    -0.699489243048E+03   -0.39242E+00   -0.18130E+00 13440   0.259E+00    0.663E+00
RMM:   3    -0.699401393889E+03    0.87849E-01   -0.34983E-01 14036   0.105E+00    0.451E+00
RMM:   4    -0.699328590789E+03    0.72803E-01   -0.97662E-02 13966   0.557E-01    0.236E+00
RMM:   5    -0.699298632627E+03    0.29958E-01   -0.32826E-02 13585   0.334E-01    0.187E+00
RMM:   6    -0.699266327338E+03    0.32305E-01   -0.21842E-02 13594   0.245E-01    0.147E+00
RMM:   7    -0.699211516538E+03    0.54811E-01   -0.15821E-02 13742   0.206E-01    0.723E-01
RMM:   8    -0.699199793028E+03    0.11724E-01   -0.62442E-03 13479   0.138E-01    0.414E-01
RMM:   9    -0.699202281142E+03   -0.24881E-02   -0.16823E-03 13249   0.739E-02    0.229E-01
RMM:  10    -0.699206165250E+03   -0.38841E-02   -0.62844E-04 11637   0.343E-02    0.211E-01
RMM:  11    -0.699212451416E+03   -0.62862E-02   -0.36048E-04  9852   0.267E-02    0.158E-01
RMM:  12    -0.699221313279E+03   -0.88619E-02   -0.69251E-04 11138   0.312E-02    0.145E-01
RMM:  13    -0.699227048583E+03   -0.57353E-02   -0.24970E-04  9253   0.216E-02    0.104E-01
RMM:  14    -0.699231621413E+03   -0.45728E-02   -0.12826E-04  8579   0.157E-02    0.111E-01
RMM:  15    -0.699241089634E+03   -0.94682E-02   -0.29236E-04  9291   0.176E-02    0.107E-01
RMM:  16    -0.699254775216E+03   -0.13686E-01   -0.57739E-04 10173   0.219E-02    0.765E-02
RMM:  17    -0.699264675581E+03   -0.99004E-02   -0.31119E-04  9382   0.175E-02    0.776E-02
RMM:  18    -0.699273707851E+03   -0.90323E-02   -0.22563E-04  8833   0.151E-02    0.795E-02
RMM:  19    -0.699281535468E+03   -0.78276E-02   -0.92869E-05  7987   0.112E-02    0.613E-02
RMM:  20    -0.699290274957E+03   -0.87395E-02   -0.84630E-05  7873   0.103E-02    0.392E-02
RMM:  21    -0.699296276354E+03   -0.60014E-02   -0.60766E-05  7487   0.891E-03    0.259E-02
RMM:  22    -0.699299237516E+03   -0.29612E-02   -0.23001E-05  6540   0.671E-03    0.232E-02
RMM:  23    -0.699301889924E+03   -0.26524E-02   -0.15830E-05  5722   0.506E-03    0.213E-02
RMM:  24    -0.699304969987E+03   -0.30801E-02   -0.19920E-05  6205   0.510E-03    0.177E-02
RMM:  25    -0.699306363442E+03   -0.13935E-02   -0.12789E-05  5669   0.473E-03    0.151E-02
RMM:  26    -0.699307126426E+03   -0.76298E-03   -0.57629E-06  4610   0.400E-03    0.160E-02
RMM:  27    -0.699307862273E+03   -0.73585E-03   -0.33461E-06  4109   0.341E-03    0.146E-02
RMM:  28    -0.699308743635E+03   -0.88136E-03   -0.41471E-06  4417   0.344E-03    0.114E-02
RMM:  29    -0.699309514260E+03   -0.77062E-03   -0.45273E-06  4281   0.335E-03    0.834E-03
RMM:  30    -0.699310221854E+03   -0.70759E-03   -0.54421E-06  4465   0.343E-03    0.792E-03
RMM:  31    -0.699310712719E+03   -0.49087E-03   -0.39898E-06  3976   0.325E-03    0.723E-03
RMM:  32    -0.699311248645E+03   -0.53593E-03   -0.52627E-06  4186   0.334E-03    0.691E-03
RMM:  33    -0.699311611101E+03   -0.36246E-03   -0.40823E-06  3952   0.324E-03    0.577E-03
RMM:  34    -0.699311864051E+03   -0.25295E-03   -0.38454E-06  3827   0.322E-03    0.385E-03
RMM:  35    -0.699311971386E+03   -0.10733E-03   -0.26268E-06  3537   0.313E-03    0.371E-03
RMM:  36    -0.699311988344E+03   -0.16959E-04   -0.85400E-07  2808   0.291E-03
   7 F= -.69931199E+03 E0= -.69869154E+03  d E =-.647484E-01  mag=     8.5998
 curvature:  -0.15 expect dE=-0.736E+00 dE for cont linesearch -0.250E-01
 ZBRENT: interpolating
 opt :   0.0559  next Energy=  -699.327700 (dE=-0.805E-01)
 bond charge predicted
       N       E                     dE             d eps       ncg     rms          rms(c)
DAV:   1    -0.699334208427E+03   -0.22237E-01   -0.14378E+00 13872   0.181E+00    0.367E-01
RMM:   2    -0.699339733671E+03   -0.55252E-02   -0.29907E-02 13440   0.333E-01    0.761E-01
RMM:   3    -0.699340180601E+03   -0.44693E-03   -0.57294E-03 13825   0.135E-01    0.758E-01
RMM:   4    -0.699337608420E+03    0.25722E-02   -0.16296E-03 13506   0.724E-02    0.279E-01
RMM:   5    -0.699337170266E+03    0.43815E-03   -0.58390E-04 12159   0.435E-02    0.265E-01
RMM:   6    -0.699336277099E+03    0.89317E-03   -0.41207E-04 10944   0.339E-02    0.171E-01
RMM:   7    -0.699335118615E+03    0.11585E-02   -0.24498E-04  9024   0.281E-02    0.817E-02
RMM:   8    -0.699334882999E+03    0.23562E-03   -0.10128E-04  8061   0.196E-02    0.607E-02
RMM:   9    -0.699334849051E+03    0.33948E-04   -0.25910E-05  7411   0.110E-02
   8 F= -.69933485E+03 E0= -.69871480E+03  d E =-.876091E-01  mag=     8.6221
 curvature:  -0.10 expect dE=-0.590E+00 dE for cont linesearch -0.497E-02
 trial: gam= 0.64395 g(F)=  0.620E+01 g(S)=  0.000E+00 ort =-0.876E+00 (trialstep = 0.197E+00)
 search vector abs. value=  0.112E+02
 bond charge predicted
       N       E                     dE             d eps       ncg     rms          rms(c)
DAV:   1    -0.699091229810E+03    0.24365E+00   -0.10667E+02 13712   0.161E+01    0.267E+00
RMM:   2    -0.699416319339E+03   -0.32509E+00   -0.22734E+00 13440   0.284E+00    0.710E+00
RMM:   3    -0.699380757754E+03    0.35562E-01   -0.39264E-01 14349   0.114E+00    0.414E+00
RMM:   4    -0.699837392302E+03   -0.45663E+00   -0.10552E-01 13570   0.567E-01    0.103E+01
RMM:   5    -0.699401447901E+03    0.43594E+00   -0.34248E-02 13454   0.377E-01    0.415E+00
RMM:   6    -0.699383935730E+03    0.17512E-01   -0.18277E-02 13695   0.216E-01    0.362E+00
RMM:   7    -0.699378950489E+03    0.49852E-02   -0.12143E-02 13570   0.182E-01    0.334E+00
RMM:   8    -0.699370665741E+03    0.82847E-02   -0.14320E-02 14362   0.188E-01    0.240E+00
RMM:   9    -0.699359588718E+03    0.11077E-01   -0.41053E-03 13287   0.107E-01    0.132E+00
RMM:  10    -0.699359916960E+03   -0.32824E-03   -0.13219E-03 13922   0.491E-02    0.137E+00
RMM:  11    -0.699360096634E+03   -0.17967E-03   -0.18262E-04  8550   0.220E-02    0.135E+00
RMM:  12    -0.699359574047E+03    0.52259E-03   -0.85751E-04 12914   0.425E-02    0.106E+00
RMM:  13    -0.699358785466E+03    0.78858E-03   -0.74122E-04 12686   0.393E-02    0.651E-01
RMM:  14    -0.699358674757E+03    0.11071E-03   -0.20244E-04  8356   0.253E-02    0.510E-01
RMM:  15    -0.699358709794E+03   -0.35037E-04   -0.14654E-04  8254   0.217E-02
   9 F= -.69935871E+03 E0= -.69873733E+03  d E =-.238607E-01  mag=     8.6090
 trial-energy change:   -0.023861  1 .order   -0.372607   -1.107557    0.362343
 step:   0.0805(harm=  0.1481)  dis= 0.01050  next Energy=  -699.537602 (dE=-0.203E+00)
 bond charge predicted
       N       E                     dE             d eps       ncg     rms          rms(c)
DAV:   1    -0.699416490188E+03   -0.57815E-01   -0.37225E+01 13888   0.950E+00    0.147E+00
RMM:   2    -0.699530250520E+03   -0.11376E+00   -0.75513E-01 13440   0.165E+00    0.434E+00
RMM:   3    -0.699514020073E+03    0.16230E-01   -0.12696E-01 14286   0.653E-01    0.241E+00
RMM:   4    -0.699634225527E+03   -0.12021E+00   -0.34378E-02 13718   0.326E-01    0.538E+00
RMM:   5    -0.699512899073E+03    0.12133E+00   -0.10944E-02 13452   0.211E-01    0.194E+00
RMM:   6    -0.699511552774E+03    0.13463E-02   -0.59899E-03 13611   0.122E-01    0.192E+00
RMM:   7    -0.699512439023E+03   -0.88625E-03   -0.40161E-03 13621   0.103E-01    0.187E+00
RMM:   8    -0.699508579705E+03    0.38593E-02   -0.48644E-03 14398   0.109E-01    0.118E+00
RMM:   9    -0.699506314730E+03    0.22650E-02   -0.11657E-03 12657   0.593E-02    0.728E-01
RMM:  10    -0.699506537126E+03   -0.22240E-03   -0.31450E-04  9949   0.277E-02    0.770E-01
RMM:  11    -0.699506631923E+03   -0.94796E-04   -0.95326E-05  8219   0.177E-02
  10 F= -.69950663E+03 E0= -.69888573E+03  d E =-.171783E+00  mag=     8.6152
 curvature:   0.14 expect dE= 0.492E+00 dE for cont linesearch  0.108E-01
 ZBRENT: interpolating
 opt :   0.0690  next Energy=  -699.511956 (dE=-0.177E+00)
 bond charge predicted
       N       E                     dE             d eps       ncg     rms          rms(c)
DAV:   1    -0.699514665061E+03   -0.81279E-02   -0.37049E-01 14000   0.955E-01    0.543E-01
RMM:   2    -0.699521894524E+03   -0.72295E-02   -0.10394E-02 13440   0.183E-01    0.990E-01
RMM:   3    -0.699527286464E+03   -0.53919E-02   -0.30616E-03 13423   0.101E-01    0.161E+00
RMM:   4    -0.699520210032E+03    0.70764E-02   -0.12522E-03 12686   0.657E-02    0.997E-01
RMM:   5    -0.699516924918E+03    0.32851E-02   -0.53917E-04 11761   0.410E-02    0.528E-01
RMM:   6    -0.699515760204E+03    0.11647E-02   -0.74919E-04 12703   0.468E-02    0.276E-01
RMM:   7    -0.699515306306E+03    0.45390E-03   -0.17051E-04  8561   0.278E-02    0.109E-01
RMM:   8    -0.699515234952E+03    0.71354E-04   -0.45650E-05  7818   0.134E-02
  11 F= -.69951523E+03 E0= -.69889472E+03  d E =-.180386E+00  mag=     8.6241
 curvature:  -0.07 expect dE=-0.230E+00 dE for cont linesearch -0.234E-02
 trial: gam= 0.43346 g(F)=  0.337E+01 g(S)=  0.000E+00 ort =-0.618E+00 (trialstep = 0.171E+00)
 search vector abs. value=  0.493E+01
 bond charge predicted
       N       E                     dE             d eps       ncg     rms          rms(c)
DAV:   1    -0.699510173916E+03    0.51324E-02   -0.36455E+01 13792   0.934E+00    0.151E+00
RMM:   2    -0.699632470051E+03   -0.12230E+00   -0.74107E-01 13440   0.158E+00    0.378E+00
RMM:   3    -0.699603504410E+03    0.28966E-01   -0.11324E-01 13841   0.628E-01    0.137E+00
RMM:   4    -0.699658359276E+03   -0.54855E-01   -0.29600E-02 13858   0.317E-01    0.332E+00
RMM:   5    -0.699613854450E+03    0.44505E-01   -0.11320E-02 13636   0.204E-01    0.190E+00
RMM:   6    -0.699602989344E+03    0.10865E-01   -0.55319E-03 13574   0.128E-01    0.115E+00
RMM:   7    -0.699598356405E+03    0.46329E-02   -0.50763E-03 13656   0.106E-01    0.488E-01
RMM:   8    -0.699597259655E+03    0.10967E-02   -0.18639E-03 13028   0.720E-02    0.402E-01
RMM:   9    -0.699596877206E+03    0.38245E-03   -0.55534E-04 11373   0.372E-02    0.296E-01
RMM:  10    -0.699596859304E+03    0.17902E-04   -0.12260E-04  8272   0.187E-02
  12 F= -.69959686E+03 E0= -.69897806E+03  d E =-.816244E-01  mag=     8.6613
 trial-energy change:   -0.081624  1 .order   -0.244827   -0.530015    0.040361
 step:   0.0855(harm=  0.1590)  dis= 0.00787  next Energy=  -699.627344 (dE=-0.112E+00)
 bond charge predicted
       N       E                     dE             d eps       ncg     rms          rms(c)
DAV:   1    -0.699619477192E+03   -0.22600E-01   -0.90787E+00 13920   0.466E+00    0.750E-01
RMM:   2    -0.699654571904E+03   -0.35095E-01   -0.18171E-01 13440   0.788E-01    0.229E+00
RMM:   3    -0.699642523740E+03    0.12048E-01   -0.27313E-02 13661   0.313E-01    0.817E-01
RMM:   4    -0.699652830236E+03   -0.10306E-01   -0.77694E-03 13997   0.161E-01    0.155E+00
RMM:   5    -0.699643725705E+03    0.91045E-02   -0.27249E-03 13593   0.982E-02    0.879E-01
RMM:   6    -0.699642162717E+03    0.15630E-02   -0.12350E-03 12796   0.623E-02    0.571E-01
RMM:   7    -0.699642371637E+03   -0.20892E-03   -0.13950E-03 13031   0.533E-02    0.282E-01
RMM:   8    -0.699642845931E+03   -0.47429E-03   -0.55778E-04 11850   0.384E-02    0.193E-01
RMM:   9    -0.699642946348E+03   -0.10042E-03   -0.15744E-04  8395   0.235E-02    0.156E-01
RMM:  10    -0.699643029758E+03   -0.83410E-04   -0.47928E-05  7925   0.141E-02
  13 F= -.69964303E+03 E0= -.69902357E+03  d E =-.127795E+00  mag=     8.6769
 curvature:   4.53 expect dE= 0.131E+02 dE for cont linesearch  0.235E+00
 trial: gam= 0.66651 g(F)=  0.290E+01 g(S)=  0.000E+00 ort =-0.505E+00 (trialstep = 0.154E+00)
 search vector abs. value=  0.442E+01
 bond charge predicted
       N       E                     dE             d eps       ncg     rms          rms(c)
DAV:   1    -0.699490577126E+03    0.15237E+00   -0.26286E+01 13840   0.820E+00    0.155E+00
RMM:   2    -0.699579114096E+03   -0.88537E-01   -0.59720E-01 13440   0.149E+00    0.430E+00
RMM:   3    -0.699564247847E+03    0.14866E-01   -0.10502E-01 14523   0.586E-01    0.268E+00
RMM:   4    -0.699661937165E+03   -0.97689E-01   -0.26563E-02 13880   0.293E-01    0.480E+00
RMM:   5    -0.699560634360E+03    0.10130E+00   -0.13731E-02 13451   0.207E-01    0.192E+00
RMM:   6    -0.699556160248E+03    0.44741E-02   -0.49633E-03 13477   0.131E-01    0.170E+00
RMM:   7    -0.699557049566E+03   -0.88932E-03   -0.44013E-03 13557   0.102E-01    0.150E+00
RMM:   8    -0.699555518755E+03    0.15308E-02   -0.28400E-03 13464   0.888E-02    0.107E+00
RMM:   9    -0.699554260637E+03    0.12581E-02   -0.10301E-03 12628   0.503E-02    0.685E-01
RMM:  10    -0.699554178512E+03    0.82125E-04   -0.27197E-04  9534   0.272E-02
  14 F= -.69955418E+03 E0= -.69893704E+03  d E =0.888512E-01  mag=     8.6955
 trial-energy change:    0.088851  1 .order   -0.009952   -0.394932    0.375027
 step:   0.0524(harm=  0.0790)  dis= 0.00529  next Energy=  -699.706305 (dE=-0.633E-01)
 bond charge predicted
       N       E                     dE             d eps       ncg     rms          rms(c)
DAV:   1    -0.699702907154E+03   -0.14865E+00   -0.11415E+01 13856   0.540E+00    0.102E+00
RMM:   2    -0.699738371777E+03   -0.35465E-01   -0.25468E-01 13440   0.973E-01    0.281E+00
RMM:   3    -0.699731235237E+03    0.71365E-02   -0.39089E-02 13700   0.384E-01    0.115E+00
RMM:   4    -0.699762127118E+03   -0.30892E-01   -0.13453E-02 14574   0.189E-01    0.269E+00
RMM:   5    -0.699732197713E+03    0.29929E-01   -0.40837E-03 13446   0.118E-01    0.109E+00
RMM:   6    -0.699730707390E+03    0.14903E-02   -0.20936E-03 13205   0.791E-02    0.910E-01
RMM:   7    -0.699730752965E+03   -0.45575E-04   -0.26046E-03 13643   0.734E-02    0.639E-01
RMM:   8    -0.699730271950E+03    0.48101E-03   -0.10310E-03 12685   0.541E-02    0.403E-01
RMM:   9    -0.699730144533E+03    0.12742E-03   -0.27878E-04  9715   0.283E-02    0.289E-01
RMM:  10    -0.699730133158E+03    0.11375E-04   -0.87781E-05  8078   0.183E-02
  15 F= -.69973013E+03 E0= -.69911160E+03  d E =-.871034E-01  mag=     8.7028
 curvature:  -0.06 expect dE=-0.102E+00 dE for cont linesearch -0.164E-02
 ZBRENT: interpolating
 opt :   0.0651  next Energy=  -699.732361 (dE=-0.893E-01)
 bond charge predicted
       N       E                     dE             d eps       ncg     rms          rms(c)
DAV:   1    -0.699729380740E+03    0.76379E-03   -0.17879E-01 14128   0.675E-01    0.219E-01
RMM:   2    -0.699730470511E+03   -0.10898E-02   -0.44815E-03 13431   0.123E-01    0.536E-01
RMM:   3    -0.699729878481E+03    0.59203E-03   -0.71208E-04 12520   0.576E-02    0.183E-01
RMM:   4    -0.699729914611E+03   -0.36130E-04   -0.21580E-04  8550   0.246E-02    0.185E-01
RMM:   5    -0.699729815025E+03    0.99586E-04   -0.63013E-05  7344   0.173E-02    0.108E-01
RMM:   6    -0.699729814118E+03    0.90781E-06   -0.26899E-05  7206   0.997E-03    0.896E-02
RMM:   7    -0.699729850019E+03   -0.35901E-04   -0.48098E-05  7149   0.109E-02    0.458E-02
RMM:   8    -0.699729873151E+03   -0.23132E-04   -0.17128E-05  6681   0.827E-03
  16 F= -.69972987E+03 E0= -.69911141E+03  d E =-.868434E-01  mag=     8.7069
 curvature:  -0.08 expect dE=-0.172E+00 dE for cont linesearch -0.295E-02
 trial: gam= 0.72049 g(F)=  0.213E+01 g(S)=  0.000E+00 ort =-0.402E+00 (trialstep = 0.136E+00)
 search vector abs. value=  0.385E+01
 bond charge predicted
       N       E                     dE             d eps       ncg     rms          rms(c)
DAV:   1    -0.699668540223E+03    0.61310E-01   -0.17576E+01 13440   0.667E+00    0.124E+00
RMM:   2    -0.699766582804E+03   -0.98043E-01   -0.38875E-01 13440   0.121E+00    0.420E+00
RMM:   3    -0.699715472349E+03    0.51110E-01   -0.71492E-02 14445   0.485E-01    0.180E+00
RMM:   4    -0.699757019407E+03   -0.41547E-01   -0.16331E-02 13698   0.245E-01    0.315E+00
RMM:   5    -0.699719064774E+03    0.37955E-01   -0.84070E-03 13544   0.171E-01    0.193E+00
RMM:   6    -0.699706088964E+03    0.12976E-01   -0.47805E-03 13562   0.120E-01    0.125E+00
RMM:   7    -0.699698342775E+03    0.77462E-02   -0.45956E-03 13665   0.968E-02    0.662E-01
RMM:   8    -0.699696343360E+03    0.19994E-02   -0.17585E-03 12846   0.677E-02    0.531E-01
RMM:   9    -0.699696143297E+03    0.20006E-03   -0.57982E-04 11536   0.388E-02    0.357E-01
RMM:  10    -0.699696937980E+03   -0.79468E-03   -0.16485E-04  8625   0.209E-02    0.291E-01
RMM:  11    -0.699699222697E+03   -0.22847E-02   -0.43712E-04 10308   0.287E-02    0.220E-01
RMM:  12    -0.699700808015E+03   -0.15853E-02   -0.24554E-04  8830   0.241E-02    0.101E-01
RMM:  13    -0.699701368824E+03   -0.56081E-03   -0.48141E-05  8004   0.150E-02    0.636E-02
RMM:  14    -0.699702214627E+03   -0.84580E-03   -0.21984E-05  7427   0.779E-03    0.534E-02
RMM:  15    -0.699703521353E+03   -0.13067E-02   -0.18526E-05  7205   0.648E-03    0.351E-02
RMM:  16    -0.699704834327E+03   -0.13130E-02   -0.18531E-05  6798   0.574E-03    0.251E-02
RMM:  17    -0.699705449675E+03   -0.61535E-03   -0.83043E-06  5721   0.472E-03    0.201E-02
RMM:  18    -0.699706248318E+03   -0.79864E-03   -0.77922E-06  4772   0.390E-03    0.203E-02
RMM:  19    -0.699707188510E+03   -0.94019E-03   -0.10521E-05  5229   0.408E-03    0.251E-02
RMM:  20    -0.699708181401E+03   -0.99289E-03   -0.15807E-05  5936   0.460E-03    0.225E-02
RMM:  21    -0.699709522041E+03   -0.13406E-02   -0.33028E-05  6262   0.545E-03    0.160E-02
RMM:  22    -0.699709904034E+03   -0.38199E-03   -0.11841E-05  4941   0.438E-03    0.131E-02
RMM:  23    -0.699710280434E+03   -0.37640E-03   -0.12095E-05  5135   0.432E-03    0.839E-03
RMM:  24    -0.699710471182E+03   -0.19075E-03   -0.77509E-06  4484   0.393E-03    0.929E-03
RMM:  25    -0.699710570206E+03   -0.99024E-04   -0.33697E-06  3645   0.346E-03
  17 F= -.69971057E+03 E0= -.69909447E+03  d E =0.193029E-01  mag=     8.8732
 trial-energy change:    0.019303  1 .order    0.024683   -0.251156    0.300522
 step:   0.0640(harm=  0.0620)  dis= 0.00580  next Energy=  -699.789432 (dE=-0.596E-01)
 bond charge predicted
       N       E                     dE             d eps       ncg     rms          rms(c)
DAV:   1    -0.699781751868E+03   -0.71281E-01   -0.49402E+00 13936   0.353E+00    0.648E-01
RMM:   2    -0.699809310949E+03   -0.27559E-01   -0.10867E-01 13440   0.644E-01    0.227E+00
RMM:   3    -0.699794541708E+03    0.14769E-01   -0.19801E-02 14380   0.257E-01    0.935E-01
RMM:   4    -0.699805169577E+03   -0.10628E-01   -0.46378E-03 13816   0.129E-01    0.161E+00
RMM:   5    -0.699795605647E+03    0.95639E-02   -0.23577E-03 13488   0.893E-02    0.985E-01
RMM:   6    -0.699792223273E+03    0.33824E-02   -0.11856E-03 12840   0.623E-02    0.631E-01
RMM:   7    -0.699790878815E+03    0.13445E-02   -0.12472E-03 12936   0.499E-02    0.364E-01
RMM:   8    -0.699790368054E+03    0.51076E-03   -0.49713E-04 11275   0.362E-02    0.284E-01
RMM:   9    -0.699790257266E+03    0.11079E-03   -0.16059E-04  8459   0.225E-02    0.181E-01
RMM:  10    -0.699790432302E+03   -0.17504E-03   -0.51962E-05  7888   0.143E-02    0.149E-01
RMM:  11    -0.699790855895E+03   -0.42359E-03   -0.79869E-05  7965   0.129E-02    0.120E-01
RMM:  12    -0.699791221947E+03   -0.36605E-03   -0.66580E-05  7858   0.128E-02    0.580E-02
RMM:  13    -0.699791402652E+03   -0.18071E-03   -0.15801E-05  7281   0.865E-03    0.359E-02
RMM:  14    -0.699791617789E+03   -0.21514E-03   -0.65240E-06  5784   0.426E-03    0.273E-02
RMM:  15    -0.699791918802E+03   -0.30101E-03   -0.46326E-06  5212   0.381E-03    0.197E-02
RMM:  16    -0.699792295142E+03   -0.37634E-03   -0.48712E-06  4378   0.342E-03    0.139E-02
RMM:  17    -0.699792541673E+03   -0.24653E-03   -0.33397E-06  3902   0.324E-03    0.968E-03
RMM:  18    -0.699792796407E+03   -0.25473E-03   -0.31454E-06  3811   0.323E-03    0.116E-02
RMM:  19    -0.699792996101E+03   -0.19969E-03   -0.16448E-06  3111   0.302E-03    0.113E-02
RMM:  20    -0.699793312371E+03   -0.31627E-03   -0.47226E-06  4335   0.330E-03    0.112E-02
RMM:  21    -0.699793762501E+03   -0.45013E-03   -0.10261E-05  5220   0.378E-03    0.925E-03
RMM:  22    -0.699793995348E+03   -0.23285E-03   -0.65686E-06  4735   0.359E-03    0.643E-03
RMM:  23    -0.699794074480E+03   -0.79132E-04   -0.25673E-06  3817   0.332E-03
  18 F= -.69979407E+03 E0= -.69917673E+03  d E =-.642013E-01  mag=     8.8107
 curvature:  -0.06 expect dE=-0.126E+00 dE for cont linesearch -0.341E-05
 trial: gam= 0.39676 g(F)=  0.194E+01 g(S)=  0.000E+00 ort = 0.142E-01 (trialstep = 0.122E+00)
 search vector abs. value=  0.256E+01
 bond charge predicted
       N       E                     dE             d eps       ncg     rms          rms(c)
DAV:   1    -0.699770358386E+03    0.23637E-01   -0.95235E+00 14096   0.485E+00    0.895E-01
RMM:   2    -0.699832851720E+03   -0.62493E-01   -0.20678E-01 13440   0.852E-01    0.366E+00
RMM:   3    -0.699801593405E+03    0.31258E-01   -0.33593E-02 14100   0.339E-01    0.203E+00
RMM:   4    -0.699824732899E+03   -0.23139E-01   -0.82834E-03 13710   0.173E-01    0.274E+00
RMM:   5    -0.699793719001E+03    0.31014E-01   -0.43940E-03 13477   0.123E-01    0.141E+00
RMM:   6    -0.699789638874E+03    0.40801E-02   -0.26060E-03 13380   0.833E-02    0.118E+00
RMM:   7    -0.699787577863E+03    0.20610E-02   -0.16174E-03 13037   0.610E-02    0.104E+00
RMM:   8    -0.699786124295E+03    0.14536E-02   -0.96993E-04 12593   0.506E-02    0.669E-01
RMM:   9    -0.699785367586E+03    0.75671E-03   -0.33735E-04 10184   0.277E-02    0.421E-01
RMM:  10    -0.699785753400E+03   -0.38581E-03   -0.10097E-04  8231   0.179E-02    0.394E-01
RMM:  11    -0.699786858232E+03   -0.11048E-02   -0.11356E-04  8211   0.161E-02    0.329E-01
RMM:  12    -0.699787949387E+03   -0.10912E-02   -0.14735E-04  8380   0.175E-02    0.137E-01
RMM:  13    -0.699788357280E+03   -0.40789E-03   -0.37183E-05  7746   0.125E-02    0.994E-02
RMM:  14    -0.699789051831E+03   -0.69455E-03   -0.22616E-05  7000   0.717E-03    0.769E-02
RMM:  15    -0.699789619803E+03   -0.56797E-03   -0.13820E-05  6278   0.569E-03    0.496E-02
RMM:  16    -0.699790203774E+03   -0.58397E-03   -0.14749E-05  6724   0.524E-03    0.213E-02
RMM:  17    -0.699790576520E+03   -0.37275E-03   -0.76881E-06  5403   0.440E-03    0.123E-02
RMM:  18    -0.699790875747E+03   -0.29923E-03   -0.44856E-06  4228   0.365E-03    0.118E-02
RMM:  19    -0.699791073664E+03   -0.19792E-03   -0.20950E-06  3410   0.320E-03    0.117E-02
RMM:  20    -0.699791442038E+03   -0.36837E-03   -0.25500E-06  3544   0.315E-03    0.101E-02
RMM:  21    -0.699791861731E+03   -0.41969E-03   -0.41996E-06  4131   0.330E-03    0.917E-03
RMM:  22    -0.699792150409E+03   -0.28868E-03   -0.38204E-06  4114   0.332E-03    0.820E-03
RMM:  23    -0.699792488983E+03   -0.33857E-03   -0.54340E-06  4435   0.342E-03    0.117E-02
RMM:  24    -0.699792713663E+03   -0.22468E-03   -0.39672E-06  4144   0.335E-03    0.123E-02
RMM:  25    -0.699792897323E+03   -0.18366E-03   -0.42606E-06  4036   0.332E-03    0.117E-02
RMM:  26    -0.699793017777E+03   -0.12045E-03   -0.34550E-06  3875   0.326E-03    0.839E-03
RMM:  27    -0.699793095157E+03   -0.77380E-04   -0.25763E-06  3428   0.313E-03
  19 F= -.69979310E+03 E0= -.69917639E+03  d E =0.979323E-03  mag=     8.8949
 trial-energy change:    0.000979  1 .order   -0.034401   -0.237211    0.168408
 step:   0.0554(harm=  0.0712)  dis= 0.00544  next Energy=  -699.844710 (dE=-0.506E-01)
 bond charge predicted
       N       E                     dE             d eps       ncg     rms          rms(c)
DAV:   1    -0.699839827832E+03   -0.46810E-01   -0.28313E+00 13856   0.264E+00    0.490E-01
RMM:   2    -0.699856330948E+03   -0.16503E-01   -0.61182E-02 13440   0.465E-01    0.193E+00
RMM:   3    -0.699848724797E+03    0.76062E-02   -0.99356E-03 14138   0.184E-01    0.110E+00
RMM:   4    -0.699855429393E+03   -0.67046E-02   -0.25140E-03 13506   0.957E-02    0.146E+00
RMM:   5    -0.699845895196E+03    0.95342E-02   -0.13268E-03 12805   0.683E-02    0.675E-01
RMM:   6    -0.699844987542E+03    0.90765E-03   -0.68011E-04 12036   0.426E-02    0.614E-01
RMM:   7    -0.699844907145E+03    0.80398E-04   -0.36457E-04 10491   0.306E-02    0.615E-01
RMM:   8    -0.699844210741E+03    0.69640E-03   -0.30806E-04  9777   0.298E-02    0.373E-01
RMM:   9    -0.699843967759E+03    0.24298E-03   -0.95016E-05  8055   0.171E-02    0.239E-01
RMM:  10    -0.699844039978E+03   -0.72220E-04   -0.28460E-05  7427   0.107E-02
  20 F= -.69984404E+03 E0= -.69922700E+03  d E =-.499655E-01  mag=     8.8809
 curvature:  -0.04 expect dE=-0.594E-01 dE for cont linesearch -0.419E-05
 trial: gam= 0.71556 g(F)=  0.141E+01 g(S)=  0.000E+00 ort =-0.159E-01 (trialstep = 0.103E+00)
 search vector abs. value=  0.269E+01
 bond charge predicted
       N       E                     dE             d eps       ncg     rms          rms(c)
DAV:   1    -0.699786439136E+03    0.57529E-01   -0.71808E+00 13872   0.422E+00    0.734E-01
RMM:   2    -0.699832839573E+03   -0.46400E-01   -0.15556E-01 13440   0.765E-01    0.267E+00
RMM:   3    -0.699805718028E+03    0.27122E-01   -0.26662E-02 13952   0.303E-01    0.780E-01
RMM:   4    -0.699811741870E+03   -0.60238E-02   -0.63043E-03 14117   0.149E-01    0.110E+00
RMM:   5    -0.699808808869E+03    0.29330E-02   -0.25836E-03 13507   0.951E-02    0.881E-01
RMM:   6    -0.699807304680E+03    0.15042E-02   -0.13824E-03 12804   0.673E-02    0.641E-01
RMM:   7    -0.699806299034E+03    0.10056E-02   -0.14542E-03 13165   0.628E-02    0.241E-01
RMM:   8    -0.699806303131E+03   -0.40972E-05   -0.38746E-04 11011   0.357E-02
  21 F= -.69980630E+03 E0= -.69918963E+03  d E =0.377368E-01  mag=     8.8680
 trial-energy change:    0.037737  1 .order    0.021344   -0.143784    0.186473
 step:   0.0377(harm=  0.0449)  dis= 0.00343  next Energy=  -699.869565 (dE=-0.255E-01)
 bond charge predicted
       N       E                     dE             d eps       ncg     rms          rms(c)
DAV:   1    -0.699867064090E+03   -0.60765E-01   -0.28844E+00 14000   0.267E+00    0.475E-01
RMM:   2    -0.699885811875E+03   -0.18748E-01   -0.61793E-02 13440   0.484E-01    0.181E+00
RMM:   3    -0.699873836901E+03    0.11975E-01   -0.10309E-02 13923   0.191E-01    0.570E-01
RMM:   4    -0.699877018852E+03   -0.31820E-02   -0.24411E-03 13862   0.938E-02    0.840E-01
RMM:   5    -0.699874737076E+03    0.22818E-02   -0.11021E-03 12721   0.626E-02    0.586E-01
RMM:   6    -0.699874164127E+03    0.57295E-03   -0.62408E-04 12308   0.446E-02    0.432E-01
RMM:   7    -0.699873938798E+03    0.22533E-03   -0.65419E-04 12336   0.417E-02    0.205E-01
RMM:   8    -0.699874078272E+03   -0.13947E-03   -0.16295E-04  8335   0.232E-02    0.152E-01
RMM:   9    -0.699874044477E+03    0.33795E-04   -0.49353E-05  7937   0.148E-02
  22 F= -.69987404E+03 E0= -.69925724E+03  d E =-.300045E-01  mag=     8.8604
 curvature:  -0.04 expect dE=-0.327E-01 dE for cont linesearch -0.264E-04
 trial: gam= 0.36326 g(F)=  0.767E+00 g(S)=  0.000E+00 ort = 0.408E-01 (trialstep = 0.900E-01)
 search vector abs. value=  0.115E+01
 bond charge predicted
       N       E                     dE             d eps       ncg     rms          rms(c)
DAV:   1    -0.699898688736E+03   -0.24610E-01   -0.23502E+00 13888   0.244E+00    0.355E-01
RMM:   2    -0.699906404426E+03   -0.77157E-02   -0.47018E-02 13440   0.415E-01    0.809E-01
RMM:   3    -0.699906133915E+03    0.27051E-03   -0.80774E-03 14004   0.168E-01    0.756E-01
RMM:   4    -0.699903919666E+03    0.22142E-02   -0.18178E-03 14418   0.799E-02    0.280E-01
RMM:   5    -0.699904251475E+03   -0.33181E-03   -0.57166E-04 12418   0.441E-02    0.457E-01
RMM:   6    -0.699903237321E+03    0.10142E-02   -0.34745E-04 10777   0.328E-02    0.226E-01
RMM:   7    -0.699902943951E+03    0.29337E-03   -0.32189E-04 10182   0.310E-02    0.140E-01
RMM:   8    -0.699902886205E+03    0.57746E-04   -0.13640E-04  8118   0.231E-02
  23 F= -.69990289E+03 E0= -.69928623E+03  d E =-.288417E-01  mag=     8.8451
 trial-energy change:   -0.028842  1 .order   -0.028802   -0.070378    0.012775
 step:   0.0762(harm=  0.0762)  dis= 0.00331  next Energy=  -699.903827 (dE=-0.298E-01)
 bond charge predicted
       N       E                     dE             d eps       ncg     rms          rms(c)
DAV:   1    -0.699903731287E+03   -0.78734E-03   -0.55893E-02 14144   0.378E-01    0.579E-02
RMM:   2    -0.699904051452E+03   -0.32016E-03   -0.11234E-03 13273   0.656E-02    0.123E-01
RMM:   3    -0.699904105996E+03   -0.54545E-04   -0.19116E-04  7624   0.272E-02    0.938E-02
RMM:   4    -0.699904143625E+03   -0.37629E-04   -0.48252E-05  7264   0.161E-02    0.904E-02
RMM:   5    -0.699904221562E+03   -0.77937E-04   -0.14983E-05  7086   0.747E-03    0.546E-02
RMM:   6    -0.699904325927E+03   -0.10436E-03   -0.10180E-05  6430   0.580E-03    0.440E-02
RMM:   7    -0.699904504740E+03   -0.17881E-03   -0.11398E-05  6890   0.589E-03    0.235E-02
RMM:   8    -0.699904619081E+03   -0.11434E-03   -0.45354E-06  5716   0.430E-03    0.157E-02
RMM:   9    -0.699904675637E+03   -0.56556E-04   -0.91513E-07  2980   0.290E-03
  24 F= -.69990468E+03 E0= -.69928804E+03  d E =-.306312E-01  mag=     8.8333
 curvature:  -0.06 expect dE=-0.648E-01 dE for cont linesearch -0.164E-06
 trial: gam= 1.46297 g(F)=  0.116E+01 g(S)=  0.000E+00 ort = 0.183E-02 (trialstep = 0.277E-01)
 search vector abs. value=  0.363E+01
 bond charge predicted
       N       E                     dE             d eps       ncg     rms          rms(c)
DAV:   1    -0.699927054772E+03   -0.22436E-01   -0.69384E-01 13920   0.132E+00    0.194E-01
RMM:   2    -0.699928493243E+03   -0.14385E-02   -0.13919E-02 13440   0.227E-01    0.302E-01
RMM:   3    -0.699929195126E+03   -0.70188E-03   -0.23770E-03 13974   0.906E-02    0.379E-01
RMM:   4    -0.699928628351E+03    0.56678E-03   -0.52660E-04 11701   0.424E-02    0.132E-01
RMM:   5    -0.699928640268E+03   -0.11917E-04   -0.17447E-04  8207   0.255E-02    0.214E-01
RMM:   6    -0.699928507461E+03    0.13281E-03   -0.10297E-04  8036   0.204E-02    0.855E-02
RMM:   7    -0.699928566479E+03   -0.59018E-04   -0.81257E-05  7920   0.153E-02    0.748E-02
RMM:   8    -0.699928592744E+03   -0.26265E-04   -0.32581E-05  7700   0.127E-02
  25 F= -.69992859E+03 E0= -.69931195E+03  d E =-.239171E-01  mag=     8.8221
 trial-energy change:   -0.023917  1 .order   -0.023854   -0.032096   -0.015613
 step:   0.0540(harm=  0.0540)  dis= 0.00605  next Energy=  -699.935924 (dE=-0.312E-01)
 bond charge predicted
       N       E                     dE             d eps       ncg     rms          rms(c)
DAV:   1    -0.699933455212E+03   -0.48887E-02   -0.62143E-01 13920   0.125E+00    0.195E-01
RMM:   2    -0.699935391337E+03   -0.19361E-02   -0.12630E-02 13440   0.216E-01    0.418E-01
RMM:   3    -0.699935362915E+03    0.28422E-04   -0.22128E-03 13896   0.870E-02    0.372E-01
RMM:   4    -0.699934842940E+03    0.51998E-03   -0.47504E-04 11306   0.415E-02    0.117E-01
RMM:   5    -0.699934919793E+03   -0.76853E-04   -0.17365E-04  8223   0.255E-02    0.229E-01
RMM:   6    -0.699934777021E+03    0.14277E-03   -0.10689E-04  8063   0.204E-02    0.952E-02
RMM:   7    -0.699934841532E+03   -0.64511E-04   -0.72129E-05  7930   0.147E-02    0.818E-02
RMM:   8    -0.699934860182E+03   -0.18650E-04   -0.31471E-05  7673   0.123E-02
  26 F= -.69993486E+03 E0= -.69931832E+03  d E =-.301845E-01  mag=     8.8103
 curvature:  -0.08 expect dE=-0.703E-01 dE for cont linesearch -0.121E-03
 trial: gam= 0.55820 g(F)=  0.832E+00 g(S)=  0.000E+00 ort =-0.721E-01 (trialstep = 0.330E-01)
 search vector abs. value=  0.188E+01
 bond charge predicted
       N       E                     dE             d eps       ncg     rms          rms(c)
DAV:   1    -0.699955795637E+03   -0.20954E-01   -0.51265E-01 13904   0.111E+00    0.166E-01
RMM:   2    -0.699957175288E+03   -0.13797E-02   -0.98556E-03 13440   0.181E-01    0.342E-01
RMM:   3    -0.699957476373E+03   -0.30108E-03   -0.15739E-03 13714   0.741E-02    0.353E-01
RMM:   4    -0.699956938119E+03    0.53825E-03   -0.38155E-04  9924   0.358E-02    0.858E-02
RMM:   5    -0.699956986558E+03   -0.48439E-04   -0.12866E-04  8084   0.234E-02    0.190E-01
RMM:   6    -0.699956898673E+03    0.87886E-04   -0.56887E-05  7813   0.148E-02    0.805E-02
RMM:   7    -0.699956940429E+03   -0.41756E-04   -0.50721E-05  7579   0.118E-02    0.600E-02
RMM:   8    -0.699956978069E+03   -0.37640E-04   -0.19672E-05  7098   0.956E-03
  27 F= -.69995698E+03 E0= -.69934034E+03  d E =-.221179E-01  mag=     8.7981
 trial-energy change:   -0.022118  1 .order   -0.021715   -0.026086   -0.017343
 step:   0.0734(harm=  0.0984)  dis= 0.00658  next Energy=  -699.968367 (dE=-0.335E-01)
 bond charge predicted
       N       E                     dE             d eps       ncg     rms          rms(c)
DAV:   1    -0.699967059174E+03   -0.10119E-01   -0.77168E-01 13648   0.136E+00    0.198E-01
RMM:   2    -0.699968681615E+03   -0.16224E-02   -0.14756E-02 13440   0.221E-01    0.316E-01
RMM:   3    -0.699969405862E+03   -0.72425E-03   -0.23287E-03 13962   0.897E-02    0.376E-01
RMM:   4    -0.699968890038E+03    0.51582E-03   -0.57055E-04 11836   0.424E-02    0.167E-01
RMM:   5    -0.699968847501E+03    0.42537E-04   -0.18894E-04  8399   0.261E-02    0.229E-01
RMM:   6    -0.699968707499E+03    0.14000E-03   -0.81420E-05  7947   0.190E-02    0.106E-01
RMM:   7    -0.699968731648E+03   -0.24149E-04   -0.73894E-05  7819   0.142E-02    0.861E-02
RMM:   8    -0.699968739622E+03   -0.79747E-05   -0.38887E-05  7514   0.126E-02
  28 F= -.69996874E+03 E0= -.69935209E+03  d E =-.338794E-01  mag=     8.7853
 curvature:  -0.10 expect dE=-0.914E-01 dE for cont linesearch -0.153E-03
 trial: gam= 0.62290 g(F)=  0.914E+00 g(S)=  0.000E+00 ort = 0.537E-01 (trialstep = 0.411E-01)
 search vector abs. value=  0.171E+01
 bond charge predicted
       N       E                     dE             d eps       ncg     rms          rms(c)
DAV:   1    -0.699994181315E+03   -0.25450E-01   -0.73180E-01 13664   0.135E+00    0.214E-01
RMM:   2    -0.699995857346E+03   -0.16760E-02   -0.14654E-02 13440   0.226E-01    0.336E-01
RMM:   3    -0.699996190061E+03   -0.33272E-03   -0.22007E-03 13879   0.897E-02    0.184E-01
RMM:   4    -0.699998263475E+03   -0.20734E-02   -0.70053E-04 12734   0.447E-02    0.663E-01
RMM:   5    -0.699996230341E+03    0.20331E-02   -0.20374E-04  8585   0.291E-02    0.227E-01
RMM:   6    -0.699996118579E+03    0.11176E-03   -0.11882E-04  8248   0.191E-02    0.108E-01
RMM:   7    -0.699996131018E+03   -0.12440E-04   -0.58692E-05  7793   0.142E-02    0.855E-02
RMM:   8    -0.699996178503E+03   -0.47485E-04   -0.31955E-05  7340   0.110E-02
  29 F= -.69999618E+03 E0= -.69937918E+03  d E =-.274389E-01  mag=     8.7717
 trial-energy change:   -0.027439  1 .order   -0.026887   -0.038915   -0.014860
 step:   0.0621(harm=  0.0664)  dis= 0.00541  next Energy=  -700.000052 (dE=-0.313E-01)
 bond charge predicted
       N       E                     dE             d eps       ncg     rms          rms(c)
DAV:   1    -0.700000080835E+03   -0.39498E-02   -0.19119E-01 14096   0.688E-01    0.130E-01
RMM:   2    -0.700000918081E+03   -0.83725E-03   -0.39119E-03 13439   0.117E-01    0.267E-01
RMM:   3    -0.700001125702E+03   -0.20762E-03   -0.65539E-04 12716   0.493E-02    0.329E-01
RMM:   4    -0.700000736606E+03    0.38910E-03   -0.16487E-04  8205   0.251E-02    0.151E-01
RMM:   5    -0.700000809776E+03   -0.73170E-04   -0.73698E-05  7774   0.184E-02    0.164E-01
RMM:   6    -0.700000736141E+03    0.73635E-04   -0.48238E-05  7539   0.127E-02    0.821E-02
RMM:   7    -0.700000750017E+03   -0.13876E-04   -0.29135E-05  7150   0.108E-02    0.461E-02
RMM:   8    -0.700000775897E+03   -0.25880E-04   -0.12354E-05  6555   0.664E-03
  30 F= -.70000078E+03 E0= -.69938375E+03  d E =-.320363E-01  mag=     8.7604
 curvature:  -0.06 expect dE=-0.480E-01 dE for cont linesearch -0.995E-04
 trial: gam= 0.75439 g(F)=  0.825E+00 g(S)=  0.000E+00 ort = 0.541E-01 (trialstep = 0.412E-01)
 search vector abs. value=  0.188E+01
 bond charge predicted
       N       E                     dE             d eps       ncg     rms          rms(c)
DAV:   1    -0.700021575233E+03   -0.20825E-01   -0.80647E-01 13632   0.143E+00    0.237E-01
RMM:   2    -0.700023529232E+03   -0.19540E-02   -0.16447E-02 13440   0.245E-01    0.362E-01
RMM:   3    -0.700024160738E+03   -0.63151E-03   -0.26201E-03 13804   0.975E-02    0.409E-01
RMM:   4    -0.700023622551E+03    0.53819E-03   -0.65078E-04 12057   0.451E-02    0.156E-01
RMM:   5    -0.700024609162E+03   -0.98661E-03   -0.25514E-04  9043   0.281E-02    0.479E-01
RMM:   6    -0.700023913703E+03    0.69546E-03   -0.14477E-04  8221   0.235E-02    0.244E-01
RMM:   7    -0.700023760989E+03    0.15271E-03   -0.15167E-04  8200   0.194E-02    0.962E-02
RMM:   8    -0.700023768899E+03   -0.79105E-05   -0.57476E-05  7807   0.166E-02
  31 F= -.70002377E+03 E0= -.69940651E+03  d E =-.229930E-01  mag=     8.7501
 trial-energy change:   -0.022993  1 .order   -0.022387   -0.035649   -0.009124
 step:   0.0532(harm=  0.0554)  dis= 0.00498  next Energy=  -700.025117 (dE=-0.243E-01)
 bond charge predicted
       N       E                     dE             d eps       ncg     rms          rms(c)
DAV:   1    -0.700025020382E+03   -0.12594E-02   -0.68711E-02 14112   0.416E-01    0.782E-02
RMM:   2    -0.700025299298E+03   -0.27892E-03   -0.14684E-03 13241   0.727E-02    0.182E-01
RMM:   3    -0.700025253795E+03    0.45503E-04   -0.24521E-04  8686   0.292E-02    0.605E-02
RMM:   4    -0.700025425043E+03   -0.17125E-03   -0.71558E-05  7759   0.183E-02    0.185E-01
RMM:   5    -0.700025320018E+03    0.10503E-03   -0.26636E-05  7516   0.110E-02    0.982E-02
RMM:   6    -0.700025325589E+03   -0.55705E-05   -0.12515E-05  6700   0.643E-03    0.544E-02
RMM:   7    -0.700025373696E+03   -0.48107E-04   -0.62504E-06  6098   0.488E-03    0.490E-02
RMM:   8    -0.700025413567E+03   -0.39871E-04   -0.35253E-06  5246   0.406E-03
  32 F= -.70002541E+03 E0= -.69940794E+03  d E =-.246377E-01  mag=     8.7415
 curvature:  -0.06 expect dE=-0.224E-01 dE for cont linesearch -0.819E-05
 trial: gam= 0.32309 g(F)=  0.381E+00 g(S)=  0.000E+00 ort = 0.162E-01 (trialstep = 0.436E-01)
 search vector abs. value=  0.587E+00
 bond charge predicted
       N       E                     dE             d eps       ncg     rms          rms(c)
DAV:   1    -0.700036748499E+03   -0.11375E-01   -0.28277E-01 13888   0.848E-01    0.154E-01
RMM:   2    -0.700038237507E+03   -0.14890E-02   -0.61119E-03 13440   0.148E-01    0.535E-01
RMM:   3    -0.700037376065E+03    0.86144E-03   -0.95999E-04 13174   0.593E-02    0.211E-01
RMM:   4    -0.700037575202E+03   -0.19914E-03   -0.24101E-04  8850   0.289E-02    0.268E-01
RMM:   5    -0.700037324207E+03    0.25099E-03   -0.12013E-04  7982   0.226E-02    0.227E-01
RMM:   6    -0.700037156960E+03    0.16725E-03   -0.63047E-05  7737   0.152E-02    0.161E-01
RMM:   7    -0.700036989137E+03    0.16782E-03   -0.77224E-05  7683   0.145E-02    0.792E-02
RMM:   8    -0.700036956020E+03    0.33116E-04   -0.29066E-05  7115   0.108E-02
  33 F= -.70003696E+03 E0= -.69941940E+03  d E =-.115425E-01  mag=     8.7308
 trial-energy change:   -0.011542  1 .order   -0.011718   -0.016823   -0.006613
 step:   0.0718(harm=  0.0718)  dis= 0.00303  next Energy=  -700.039274 (dE=-0.139E-01)
 bond charge predicted
       N       E                     dE             d eps       ncg     rms          rms(c)
DAV:   1    -0.700038449915E+03   -0.14608E-02   -0.11868E-01 14016   0.549E-01    0.110E-01
RMM:   2    -0.700038672785E+03   -0.22287E-03   -0.25619E-03 13395   0.964E-02    0.185E-01
RMM:   3    -0.700038694779E+03   -0.21994E-04   -0.41703E-04 10631   0.377E-02    0.117E-01
RMM:   4    -0.700039407314E+03   -0.71254E-03   -0.15110E-04  8142   0.225E-02    0.396E-01
RMM:   5    -0.700038629540E+03    0.77777E-03   -0.62862E-05  7581   0.171E-02    0.119E-01
RMM:   6    -0.700038584743E+03    0.44797E-04   -0.24514E-05  7144   0.867E-03    0.970E-02
RMM:   7    -0.700038563941E+03    0.20803E-04   -0.13466E-05  6534   0.694E-03    0.825E-02
RMM:   8    -0.700038555294E+03    0.86467E-05   -0.83234E-06  6594   0.537E-03
  34 F= -.70003856E+03 E0= -.69942086E+03  d E =-.131417E-01  mag=     8.7196
 curvature:  -0.05 expect dE=-0.109E-01 dE for cont linesearch -0.785E-04
 trial: gam= 0.48318 g(F)=  0.200E+00 g(S)=  0.000E+00 ort =-0.290E-01 (trialstep = 0.492E-01)
 search vector abs. value=  0.309E+00
 bond charge predicted
       N       E                     dE             d eps       ncg     rms          rms(c)
DAV:   1    -0.700042491758E+03   -0.39278E-02   -0.18872E-01 13808   0.690E-01    0.146E-01
RMM:   2    -0.700043154115E+03   -0.66236E-03   -0.39772E-03 13439   0.120E-01    0.350E-01
RMM:   3    -0.700042876039E+03    0.27808E-03   -0.64401E-04 12347   0.474E-02    0.159E-01
RMM:   4    -0.700043544686E+03   -0.66865E-03   -0.19711E-04  8462   0.260E-02    0.383E-01
RMM:   5    -0.700042846568E+03    0.69812E-03   -0.99786E-05  7759   0.217E-02    0.189E-01
RMM:   6    -0.700042741076E+03    0.10549E-03   -0.51914E-05  7525   0.125E-02    0.103E-01
RMM:   7    -0.700042730653E+03    0.10423E-04   -0.36780E-05  7297   0.112E-02    0.804E-02
RMM:   8    -0.700042734806E+03   -0.41534E-05   -0.14090E-05  6568   0.805E-03
  35 F= -.70004273E+03 E0= -.69942491E+03  d E =-.417951E-02  mag=     8.7073
 trial-energy change:   -0.004180  1 .order   -0.004354   -0.009156    0.000448
 step:   0.0470(harm=  0.0470)  dis= 0.00160  next Energy=  -700.042920 (dE=-0.436E-02)
 bond charge predicted
       N       E                     dE             d eps       ncg     rms          rms(c)
DAV:   1    -0.700042788306E+03   -0.57654E-04   -0.42509E-04 12784   0.337E-02    0.412E-02
RMM:   2    -0.700043071876E+03   -0.28357E-03   -0.45222E-05  7236   0.104E-02    0.201E-01
RMM:   3    -0.700042920536E+03    0.15134E-03   -0.29731E-05  6981   0.110E-02    0.850E-02
RMM:   4    -0.700042921113E+03   -0.57730E-06   -0.84330E-06  6262   0.583E-03    0.308E-02
RMM:   5    -0.700042986613E+03   -0.65499E-04   -0.17950E-06  4167   0.336E-03    0.207E-02
RMM:   6    -0.700043069945E+03   -0.83332E-04   -0.75980E-07  2875   0.291E-03    0.125E-02
RMM:   7    -0.700043126780E+03   -0.56836E-04   -0.48755E-07  2293   0.280E-03    0.105E-02
RMM:   8    -0.700043198476E+03   -0.71695E-04   -0.53007E-07  2030   0.276E-03
  36 F= -.70004320E+03 E0= -.69942535E+03  d E =-.464318E-02  mag=     8.6981
 curvature:  -0.04 expect dE=-0.340E-02 dE for cont linesearch -0.230E-07
 trial: gam= 0.27525 g(F)=  0.872E-01 g(S)=  0.000E+00 ort =-0.427E-03 (trialstep = 0.488E-01)
 search vector abs. value=  0.110E+00
 bond charge predicted
       N       E                     dE             d eps       ncg     rms          rms(c)
DAV:   1    -0.700045773874E+03   -0.26471E-02   -0.65956E-02 14032   0.400E-01    0.840E-02
RMM:   2    -0.700046059563E+03   -0.28569E-03   -0.14147E-03 13108   0.703E-02    0.234E-01
RMM:   3    -0.700045950699E+03    0.10886E-03   -0.23486E-04  8672   0.279E-02    0.109E-01
RMM:   4    -0.700046197947E+03   -0.24725E-03   -0.73685E-05  7512   0.178E-02    0.243E-01
RMM:   5    -0.700045920815E+03    0.27713E-03   -0.32682E-05  7304   0.118E-02    0.100E-01
RMM:   6    -0.700045888723E+03    0.32092E-04   -0.13321E-05  6519   0.690E-03    0.799E-02
RMM:   7    -0.700045871595E+03    0.17128E-04   -0.12229E-05  6537   0.610E-03    0.714E-02
RMM:   8    -0.700045867216E+03    0.43790E-05   -0.57017E-06  5978   0.500E-03
  37 F= -.70004587E+03 E0= -.69942793E+03  d E =-.266874E-02  mag=     8.6886
 trial-energy change:   -0.002669  1 .order   -0.002646   -0.004247   -0.001045
 step:   0.0647(harm=  0.0647)  dis= 0.00110  next Energy=  -700.046015 (dE=-0.282E-02)
 bond charge predicted
       N       E                     dE             d eps       ncg     rms          rms(c)
DAV:   1    -0.700046034611E+03   -0.16302E-03   -0.69939E-03 13424   0.130E-01    0.523E-02
RMM:   2    -0.700046170208E+03   -0.13560E-03   -0.17717E-04  7669   0.241E-02    0.128E-01
RMM:   3    -0.700046148083E+03    0.22125E-04   -0.40280E-05  7215   0.136E-02    0.115E-01
RMM:   4    -0.700046113961E+03    0.34122E-04   -0.11946E-05  6814   0.736E-03    0.506E-02
RMM:   5    -0.700046130110E+03   -0.16149E-04   -0.53697E-06  5806   0.473E-03    0.359E-02
RMM:   6    -0.700046170121E+03   -0.40011E-04   -0.52503E-06  5358   0.441E-03    0.305E-02
RMM:   7    -0.700046186206E+03   -0.16086E-04   -0.15323E-06  4000   0.339E-03    0.139E-02
RMM:   8    -0.700046203774E+03   -0.17568E-04   -0.23107E-08  1572   0.234E-03
  38 F= -.70004620E+03 E0= -.69942817E+03  d E =-.300530E-02  mag=     8.6805
 curvature:  -0.04 expect dE=-0.195E-02 dE for cont linesearch -0.181E-06
 trial: gam= 0.54901 g(F)=  0.477E-01 g(S)=  0.000E+00 ort =-0.698E-03 (trialstep = 0.520E-01)
 search vector abs. value=  0.802E-01
 bond charge predicted
       N       E                     dE             d eps       ncg     rms          rms(c)
DAV:   1    -0.700047779403E+03   -0.15932E-02   -0.53910E-02 13968   0.357E-01    0.666E-02
RMM:   2    -0.700047936732E+03   -0.15733E-03   -0.11258E-03 13016   0.619E-02    0.177E-01
RMM:   3    -0.700047895349E+03    0.41384E-04   -0.18453E-04  8092   0.251E-02    0.781E-02
RMM:   4    -0.700048122894E+03   -0.22755E-03   -0.61450E-05  7471   0.157E-02    0.240E-01
RMM:   5    -0.700047854159E+03    0.26874E-03   -0.24772E-05  7252   0.105E-02    0.757E-02
RMM:   6    -0.700047825743E+03    0.28415E-04   -0.11449E-05  6479   0.642E-03    0.721E-02
RMM:   7    -0.700047802173E+03    0.23570E-04   -0.67922E-06  6235   0.500E-03    0.544E-02
RMM:   8    -0.700047800056E+03    0.21176E-05   -0.39154E-06  5103   0.382E-03
  39 F= -.70004780E+03 E0= -.69942959E+03  d E =-.159628E-02  mag=     8.6719
 trial-energy change:   -0.001596  1 .order   -0.001646   -0.002457   -0.000835
 step:   0.0787(harm=  0.0787)  dis= 0.00077  next Energy=  -700.048065 (dE=-0.186E-02)
 bond charge predicted
       N       E                     dE             d eps       ncg     rms          rms(c)
DAV:   1    -0.700047988270E+03   -0.18610E-03   -0.14227E-02 13952   0.183E-01    0.447E-02
RMM:   2    -0.700048036561E+03   -0.48291E-04   -0.30601E-04  8396   0.320E-02    0.777E-02
RMM:   3    -0.700048040351E+03   -0.37899E-05   -0.45012E-05  7213   0.147E-02    0.550E-02
RMM:   4    -0.700048034602E+03    0.57491E-05   -0.17355E-05  6938   0.788E-03    0.446E-02
RMM:   5    -0.700048046814E+03   -0.12212E-04   -0.62153E-06  6298   0.540E-03    0.686E-02
RMM:   6    -0.700048034315E+03    0.12499E-04   -0.81511E-07  3165   0.303E-03    0.445E-02
RMM:   7    -0.700048042068E+03   -0.77532E-05   -0.94935E-07  3047   0.307E-03    0.457E-02
RMM:   8    -0.700048061608E+03   -0.19540E-04   -0.15017E-06  3649   0.322E-03
  40 F= -.70004806E+03 E0= -.69942976E+03  d E =-.185783E-02  mag=     8.6644
 curvature:  -0.07 expect dE=-0.336E-02 dE for cont linesearch -0.298E-06
 trial: gam= 1.03928 g(F)=  0.503E-01 g(S)=  0.000E+00 ort =-0.598E-03 (trialstep = 0.339E-01)
 search vector abs. value=  0.136E+00
 bond charge predicted
       N       E                     dE             d eps       ncg     rms          rms(c)
DAV:   1    -0.700049314552E+03   -0.12725E-02   -0.38255E-02 13888   0.296E-01    0.614E-02
RMM:   2    -0.700049548450E+03   -0.23390E-03   -0.77377E-04 12207   0.503E-02    0.230E-01
RMM:   3    -0.700049420373E+03    0.12808E-03   -0.12992E-04  7687   0.211E-02    0.125E-01
RMM:   4    -0.700049397802E+03    0.22571E-04   -0.45406E-05  7253   0.134E-02    0.134E-01
RMM:   5    -0.700049300059E+03    0.97743E-04   -0.19581E-05  7008   0.908E-03    0.674E-02
RMM:   6    -0.700049273023E+03    0.27036E-04   -0.69969E-06  6357   0.550E-03    0.760E-02
RMM:   7    -0.700049253730E+03    0.19293E-04   -0.44525E-06  5569   0.413E-03    0.805E-02
RMM:   8    -0.700049232683E+03    0.21047E-04   -0.37654E-06  5211   0.407E-03
  41 F= -.70004923E+03 E0= -.69943084E+03  d E =-.117107E-02  mag=     8.6553
 trial-energy change:   -0.001171  1 .order   -0.001272   -0.001683   -0.000861
 step:   0.0694(harm=  0.0694)  dis= 0.00102  next Energy=  -700.049785 (dE=-0.172E-02)
 bond charge predicted
       N       E                     dE             d eps       ncg     rms          rms(c)
DAV:   1    -0.700049633693E+03   -0.37996E-03   -0.42062E-02 13968   0.310E-01    0.675E-02
RMM:   2    -0.700049707049E+03   -0.73356E-04   -0.84550E-04 12404   0.524E-02    0.126E-01
RMM:   3    -0.700049688227E+03    0.18822E-04   -0.13970E-04  7733   0.217E-02    0.609E-02
RMM:   4    -0.700049799325E+03   -0.11110E-03   -0.51908E-05  7310   0.136E-02    0.202E-01
RMM:   5    -0.700049631386E+03    0.16794E-03   -0.14515E-05  6896   0.827E-03    0.849E-02
RMM:   6    -0.700049577821E+03    0.53565E-04   -0.10198E-05  6374   0.533E-03    0.687E-02
RMM:   7    -0.700049547961E+03    0.29860E-04   -0.46988E-06  5928   0.467E-03    0.552E-02
RMM:   8    -0.700049537930E+03    0.10031E-04   -0.19654E-06  3962   0.336E-03
  42 F= -.70004954E+03 E0= -.69943098E+03  d E =-.147632E-02  mag=     8.6452
 curvature:  -0.09 expect dE=-0.385E-02 dE for cont linesearch -0.307E-06
 trial: gam= 0.69675 g(F)=  0.407E-01 g(S)=  0.000E+00 ort = 0.664E-03 (trialstep = 0.410E-01)
 search vector abs. value=  0.107E+00
 bond charge predicted
       N       E                     dE             d eps       ncg     rms          rms(c)
DAV:   1    -0.700050741478E+03   -0.11935E-02   -0.44691E-02 13936   0.320E-01    0.593E-02
RMM:   2    -0.700050825242E+03   -0.83764E-04   -0.83963E-04 12154   0.516E-02    0.942E-02
[...]
DAV:   1    -0.700130703610E+03   -0.46134E-03   -0.20755E-03 13184   0.721E-02    0.148E-02
RMM:   2    -0.700130712067E+03   -0.84572E-05   -0.50414E-05  7070   0.142E-02    0.269E-02
RMM:   3    -0.700130716497E+03   -0.44301E-05   -0.85252E-06  7094   0.692E-03    0.323E-02
RMM:   4    -0.700130713101E+03    0.33961E-05   -0.92703E-07  3163   0.313E-03    0.876E-03
RMM:   5    -0.700130717965E+03   -0.48640E-05   -0.20560E-07  2062   0.284E-03    0.129E-02
RMM:   6    -0.700130724330E+03   -0.63646E-05   -0.15275E-07  1894   0.276E-03    0.918E-03
RMM:   7    -0.700130732496E+03   -0.81655E-05   -0.12860E-07  1635   0.278E-03    0.825E-03
RMM:   8    -0.700130736124E+03   -0.36283E-05   -0.10432E-08  1291   0.272E-03
 168 F= -.70013074E+03 E0= -.69951054E+03  d E =-.496078E-03  mag=     8.4352
 ZBRENT: can't locate minimum, use default step
 trial-energy change:   -0.000496  1 .order   -0.000471   -0.000521   -0.000420
 step:   0.0542(harm=  0.0700)  dis= 0.00116  next Energy=  -700.131587 (dE=-0.135E-02)
 bond charge predicted
       N       E                     dE             d eps       ncg     rms          rms(c)
DAV:   1    -0.700131496562E+03   -0.76407E-03   -0.18699E-02 13904   0.216E-01    0.338E-02
RMM:   2    -0.700131538595E+03   -0.42034E-04   -0.40527E-04  9655   0.410E-02    0.571E-02
RMM:   3    -0.700131545243E+03   -0.66475E-05   -0.66113E-05  7185   0.179E-02    0.264E-02
RMM:   4    -0.700131607090E+03   -0.61848E-04   -0.19401E-05  7167   0.906E-03    0.114E-01
RMM:   5    -0.700131552801E+03    0.54289E-04   -0.76567E-06  6693   0.612E-03    0.302E-02
RMM:   6    -0.700131558812E+03   -0.60109E-05   -0.33933E-06  4946   0.357E-03    0.205E-02
RMM:   7    -0.700131566275E+03   -0.74629E-05   -0.16965E-06  4278   0.329E-03    0.224E-02
RMM:   8    -0.700131573162E+03   -0.68868E-05   -0.57418E-07  2474   0.285E-03
 169 F= -.70013157E+03 E0= -.69951139E+03  d E =-.133312E-02  mag=     8.4341
 curvature:  -0.04 expect dE=-0.581E-03 dE for cont linesearch -0.616E-04
 ZBRENT: extrapolating
 opt :   0.0697  next Energy=  -700.131640 (dE=-0.140E-02)
 bond charge predicted
       N       E                     dE             d eps       ncg     rms          rms(c)
DAV:   1    -0.700131631591E+03   -0.65316E-04   -0.26989E-03 13056   0.820E-02    0.234E-02
RMM:   2    -0.700131651697E+03   -0.20106E-04   -0.65031E-05  7186   0.160E-02    0.380E-02
RMM:   3    -0.700131666175E+03   -0.14478E-04   -0.13454E-05  7170   0.830E-03    0.669E-02
RMM:   4    -0.700131653057E+03    0.13119E-04   -0.31867E-06  6060   0.398E-03    0.333E-02
RMM:   5    -0.700131652780E+03    0.27698E-06   -0.24143E-07  2230   0.282E-03    0.195E-02
RMM:   6    -0.700131660519E+03   -0.77393E-05   -0.34606E-07  2133   0.283E-03    0.115E-02
RMM:   7    -0.700131663259E+03   -0.27403E-05   -0.35269E-08  1600   0.267E-03    0.552E-03
RMM:   8    -0.700131666077E+03   -0.28182E-05   -0.28949E-09  1167   0.263E-03
 170 F= -.70013167E+03 E0= -.69951149E+03  d E =-.142603E-02  mag=     8.4333
 curvature:  -0.04 expect dE=-0.854E-03 dE for cont linesearch -0.300E-06
 trial: gam= 0.49260 g(F)=  0.202E-01 g(S)=  0.000E+00 ort =-0.575E-03 (trialstep = 0.248E-01)
 search vector abs. value=  0.310E-01
 bond charge predicted
       N       E                     dE             d eps       ncg     rms          rms(c)
DAV:   1    -0.700132038855E+03   -0.37560E-03   -0.46164E-03 13424   0.107E-01    0.166E-02
RMM:   2    -0.700132067963E+03   -0.29107E-04   -0.10263E-04  7173   0.200E-02    0.573E-02
RMM:   3    -0.700132054765E+03    0.13198E-04   -0.15567E-05  7128   0.948E-03    0.198E-02
RMM:   4    -0.700132056368E+03   -0.16029E-05   -0.37494E-06  6552   0.419E-03    0.117E-02
RMM:   5    -0.700132059006E+03   -0.26386E-05   -0.57338E-07  2982   0.300E-03    0.159E-02
RMM:   6    -0.700132062625E+03   -0.36182E-05   -0.29889E-07  2116   0.283E-03    0.116E-02
RMM:   7    -0.700132065536E+03   -0.29113E-05   -0.43154E-07  2303   0.288E-03    0.932E-03
RMM:   8    -0.700132067277E+03   -0.17409E-05   -0.37821E-07  1839   0.277E-03
 171 F= -.70013207E+03 E0= -.69951188E+03  d E =-.401200E-03  mag=     8.4328
 trial-energy change:   -0.000401  1 .order   -0.000380   -0.000494   -0.000267
 step:   0.0539(harm=  0.0539)  dis= 0.00072  next Energy=  -700.132204 (dE=-0.538E-03)
 bond charge predicted
       N       E                     dE             d eps       ncg     rms          rms(c)
DAV:   1    -0.700132198628E+03   -0.13309E-03   -0.63671E-03 13792   0.126E-01    0.190E-02
RMM:   2    -0.700132219166E+03   -0.20538E-04   -0.13965E-04  7299   0.236E-02    0.388E-02
RMM:   3    -0.700132219845E+03   -0.67892E-06   -0.21329E-05  7105   0.110E-02    0.297E-02
RMM:   4    -0.700132218926E+03    0.91905E-06   -0.54421E-06  6920   0.504E-03    0.180E-02
RMM:   5    -0.700132220670E+03   -0.17440E-05   -0.15272E-06  4264   0.333E-03    0.205E-02
RMM:   6    -0.700132220963E+03   -0.29348E-06   -0.14301E-07  2003   0.270E-03    0.732E-03
RMM:   7    -0.700132223287E+03   -0.23244E-05   -0.41151E-07  2313   0.285E-03    0.865E-03
RMM:   8    -0.700132224106E+03   -0.81863E-06   -0.24644E-07  1850   0.274E-03
 172 F= -.70013222E+03 E0= -.69951204E+03  d E =-.558029E-03  mag=     8.4323
 curvature:  -0.04 expect dE=-0.540E-03 dE for cont linesearch -0.601E-06
 trial: gam= 0.66508 g(F)=  0.129E-01 g(S)=  0.000E+00 ort =-0.666E-03 (trialstep = 0.306E-01)
 search vector abs. value=  0.257E-01
 bond charge predicted
       N       E                     dE             d eps       ncg     rms          rms(c)
DAV:   1    -0.700132504468E+03   -0.28118E-03   -0.55613E-03 13648   0.112E-01    0.187E-02
RMM:   2    -0.700132520670E+03   -0.16203E-04   -0.11886E-04  7183   0.218E-02    0.476E-02
RMM:   3    -0.700132518107E+03    0.25630E-05   -0.18945E-05  7108   0.104E-02    0.189E-02
RMM:   4    -0.700132528739E+03   -0.10631E-04   -0.57052E-06  6836   0.491E-03    0.481E-02
RMM:   5    -0.700132519767E+03    0.89714E-05   -0.23610E-06  5477   0.375E-03    0.182E-02
RMM:   6    -0.700132521406E+03   -0.16385E-05   -0.25046E-07  2149   0.259E-03    0.127E-02
RMM:   7    -0.700132522529E+03   -0.11237E-05   -0.18751E-07  2011   0.262E-03    0.123E-02
RMM:   8    -0.700132522820E+03   -0.29071E-06   -0.34552E-07  1855   0.279E-03
 173 F= -.70013252E+03 E0= -.69951232E+03  d E =-.298714E-03  mag=     8.4322
 trial-energy change:   -0.000299  1 .order   -0.000293   -0.000381   -0.000206
 step:   0.0666(harm=  0.0666)  dis= 0.00091  next Energy=  -700.132638 (dE=-0.414E-03)
 bond charge predicted
       N       E                     dE             d eps       ncg     rms          rms(c)
DAV:   1    -0.700132633159E+03   -0.11063E-03   -0.76772E-03 13680   0.132E-01    0.240E-02
RMM:   2    -0.700132648482E+03   -0.15323E-04   -0.16292E-04  7395   0.256E-02    0.389E-02
RMM:   3    -0.700132650080E+03   -0.15978E-05   -0.25606E-05  7137   0.121E-02    0.279E-02
RMM:   4    -0.700132654771E+03   -0.46916E-05   -0.73163E-06  6961   0.549E-03    0.361E-02
RMM:   5    -0.700132648859E+03    0.59122E-05   -0.37633E-06  6083   0.427E-03    0.295E-02
RMM:   6    -0.700132645433E+03    0.34255E-05   -0.55336E-07  2832   0.299E-03    0.158E-02
RMM:   7    -0.700132643872E+03    0.15618E-05   -0.90420E-07  2988   0.308E-03    0.936E-03
RMM:   8    -0.700132642570E+03    0.13019E-05   -0.45672E-07  2169   0.286E-03
 174 F= -.70013264E+03 E0= -.69951244E+03  d E =-.418464E-03  mag=     8.4324
 curvature:  -0.07 expect dE=-0.516E-03 dE for cont linesearch -0.657E-06
 trial: gam= 0.42911 g(F)=  0.749E-02 g(S)=  0.000E+00 ort = 0.495E-03 (trialstep = 0.378E-01)
 search vector abs. value=  0.126E-01
 bond charge predicted
       N       E                     dE             d eps       ncg     rms          rms(c)
DAV:   1    -0.700132869218E+03   -0.22535E-03   -0.40211E-03 13328   0.913E-02    0.171E-02
RMM:   2    -0.700132882117E+03   -0.12899E-04   -0.83449E-05  7157   0.182E-02    0.380E-02
RMM:   3    -0.700132883005E+03   -0.88740E-06   -0.14624E-05  7119   0.909E-03    0.327E-02
RMM:   4    -0.700132879254E+03    0.37508E-05   -0.36943E-06  6162   0.411E-03    0.125E-02
RMM:   5    -0.700132880025E+03   -0.77127E-06   -0.44238E-07  2650   0.300E-03    0.144E-02
RMM:   6    -0.700132880497E+03   -0.47172E-06   -0.73056E-07  2908   0.308E-03    0.107E-02
RMM:   7    -0.700132879815E+03    0.68200E-06   -0.70736E-07  2631   0.291E-03    0.606E-03
RMM:   8    -0.700132880339E+03   -0.52471E-06   -0.46202E-07  1915   0.267E-03
 175 F= -.70013288E+03 E0= -.69951269E+03  d E =-.237770E-03  mag=     8.4327
 trial-energy change:   -0.000238  1 .order   -0.000231   -0.000291   -0.000171
 step:   0.0913(harm=  0.0913)  dis= 0.00102  next Energy=  -700.132994 (dE=-0.352E-03)
 bond charge predicted
       N       E                     dE             d eps       ncg     rms          rms(c)
DAV:   1    -0.700132981113E+03   -0.10130E-03   -0.80256E-03 13936   0.129E-01    0.249E-02
RMM:   2    -0.700133015134E+03   -0.34021E-04   -0.16580E-04  7385   0.257E-02    0.615E-02
RMM:   3    -0.700133013839E+03    0.12946E-05   -0.30743E-05  7147   0.128E-02    0.615E-02
RMM:   4    -0.700132999688E+03    0.14151E-04   -0.78258E-06  6957   0.605E-03    0.229E-02
RMM:   5    -0.700133000695E+03   -0.10060E-05   -0.31487E-06  5697   0.396E-03    0.237E-02
RMM:   6    -0.700132999358E+03    0.13365E-05   -0.10902E-06  3459   0.311E-03    0.139E-02
RMM:   7    -0.700132998510E+03    0.84812E-06   -0.12893E-06  3570   0.323E-03    0.815E-03
RMM:   8    -0.700132997555E+03    0.95492E-06   -0.48621E-07  2170   0.283E-03
 176 F= -.70013300E+03 E0= -.69951279E+03  d E =-.354985E-03  mag=     8.4332
 curvature:  -0.07 expect dE=-0.475E-03 dE for cont linesearch -0.319E-07
 trial: gam= 0.87614 g(F)=  0.633E-02 g(S)=  0.000E+00 ort =-0.734E-04 (trialstep = 0.386E-01)
 search vector abs. value=  0.159E-01
 bond charge predicted
       N       E                     dE             d eps       ncg     rms          rms(c)
DAV:   1    -0.700133152971E+03   -0.15446E-03   -0.50785E-03 13888   0.979E-02    0.197E-02
RMM:   2    -0.700133186508E+03   -0.33537E-04   -0.99873E-05  7189   0.194E-02    0.715E-02
RMM:   3    -0.700133163318E+03    0.23190E-04   -0.18946E-05  7144   0.101E-02    0.321E-02
RMM:   4    -0.700133160991E+03    0.23269E-05   -0.48764E-06  6518   0.468E-03    0.134E-02
RMM:   5    -0.700133160215E+03    0.77597E-06   -0.11266E-06  3805   0.332E-03    0.130E-02
RMM:   6    -0.700133158334E+03    0.18806E-05   -0.99492E-07  3201   0.298E-03    0.107E-02
RMM:   7    -0.700133157678E+03    0.65621E-06   -0.68990E-07  2616   0.277E-03    0.112E-02
RMM:   8    -0.700133155854E+03    0.18243E-05   -0.44848E-07  1900   0.272E-03
 177 F= -.70013316E+03 E0= -.69951294E+03  d E =-.158299E-03  mag=     8.4337
 trial-energy change:   -0.000158  1 .order   -0.000161   -0.000242   -0.000081
 step:   0.0580(harm=  0.0580)  dis= 0.00074  next Energy=  -700.133179 (dE=-0.182E-03)
 bond charge predicted
       N       E                     dE             d eps       ncg     rms          rms(c)
DAV:   1    -0.700133175302E+03   -0.17624E-04   -0.12999E-03 13216   0.496E-02    0.925E-03
RMM:   2    -0.700133178976E+03   -0.36744E-05   -0.26524E-05  7080   0.104E-02    0.193E-02
RMM:   3    -0.700133179043E+03   -0.66713E-07   -0.49903E-06  6942   0.524E-03    0.195E-02
RMM:   4    -0.700133177384E+03    0.16583E-05   -0.98423E-08  1835   0.260E-03    0.673E-03
RMM:   5    -0.700133177214E+03    0.17008E-06   -0.10701E-08  1531   0.251E-03    0.608E-03
RMM:   6    -0.700133176513E+03    0.70084E-06   -0.12866E-08  1204   0.260E-03    0.587E-03
RMM:   7    -0.700133176288E+03    0.22496E-06   -0.76562E-09  1072   0.266E-03    0.352E-03
RMM:   8    -0.700133176199E+03    0.89145E-07   -0.48179E-08  1065   0.271E-03
 178 F= -.70013318E+03 E0= -.69951295E+03  d E =-.178644E-03  mag=     8.4343
 curvature:  -0.07 expect dE=-0.329E-03 dE for cont linesearch -0.173E-07
 trial: gam= 0.64081 g(F)=  0.446E-02 g(S)=  0.000E+00 ort =-0.612E-04 (trialstep = 0.425E-01)
 search vector abs. value=  0.109E-01
 bond charge predicted
       N       E                     dE             d eps       ncg     rms          rms(c)
DAV:   1    -0.700133302946E+03   -0.12666E-03   -0.42121E-03 13744   0.876E-02    0.168E-02
RMM:   2    -0.700133309562E+03   -0.66153E-05   -0.80195E-05  7101   0.181E-02    0.293E-02
RMM:   3    -0.700133309626E+03   -0.64159E-07   -0.14095E-05  7059   0.876E-03    0.162E-02
RMM:   4    -0.700133317962E+03   -0.83366E-05   -0.44499E-06  6169   0.434E-03    0.463E-02
RMM:   5    -0.700133306868E+03    0.11094E-04   -0.14440E-06  4416   0.345E-03    0.173E-02
RMM:   6    -0.700133304495E+03    0.23734E-05   -0.66962E-07  2649   0.291E-03    0.115E-02
RMM:   7    -0.700133303908E+03    0.58665E-06   -0.51627E-07  2326   0.269E-03    0.106E-02
RMM:   8    -0.700133302898E+03    0.10102E-05   -0.17209E-07  1428   0.258E-03
 179 F= -.70013330E+03 E0= -.69951307E+03  d E =-.126699E-03  mag=     8.4350
 trial-energy change:   -0.000127  1 .order   -0.000131   -0.000188   -0.000075
 step:   0.0705(harm=  0.0705)  dis= 0.00065  next Energy=  -700.133332 (dE=-0.156E-03)
 bond charge predicted
       N       E                     dE             d eps       ncg     rms          rms(c)
DAV:   1    -0.700133328798E+03   -0.24890E-04   -0.18362E-03 13392   0.580E-02    0.122E-02
RMM:   2    -0.700133332319E+03   -0.35207E-05   -0.36260E-05  7066   0.122E-02    0.154E-02
RMM:   3    -0.700133337407E+03   -0.50885E-05   -0.68786E-06  7093   0.599E-03    0.336E-02
RMM:   4    -0.700133331942E+03    0.54649E-05   -0.53511E-07  2601   0.292E-03    0.147E-02
RMM:   5    -0.700133331886E+03    0.56469E-07   -0.76079E-08  1726   0.277E-03    0.164E-02
RMM:   6    -0.700133329791E+03    0.20946E-05   -0.15468E-07  1718   0.284E-03    0.569E-03
RMM:   7    -0.700133329967E+03   -0.17593E-06   -0.21671E-07  1532   0.285E-03    0.343E-03
RMM:   8    -0.700133330483E+03   -0.51563E-06   -0.81158E-09   973   0.273E-03
 180 F= -.70013333E+03 E0= -.69951309E+03  d E =-.154283E-03  mag=     8.4356
 curvature:  -0.09 expect dE=-0.229E-03 dE for cont linesearch -0.210E-07
 trial: gam= 0.58922 g(F)=  0.263E-02 g(S)=  0.000E+00 ort = 0.514E-04 (trialstep = 0.481E-01)
 search vector abs. value=  0.648E-02
 bond charge predicted
       N       E                     dE             d eps       ncg     rms          rms(c)
DAV:   1    -0.700133424308E+03   -0.94341E-04   -0.32210E-03 13616   0.772E-02    0.138E-02
RMM:   2    -0.700133431646E+03   -0.73382E-05   -0.60573E-05  7106   0.156E-02    0.228E-02
RMM:   3    -0.700133431912E+03   -0.26597E-06   -0.10288E-05  7105   0.755E-03    0.137E-02
RMM:   4    -0.700133435940E+03   -0.40276E-05   -0.26159E-06  5383   0.360E-03    0.323E-02
RMM:   5    -0.700133431450E+03    0.44898E-05   -0.21079E-07  2243   0.290E-03    0.119E-02
RMM:   6    -0.700133431309E+03    0.14080E-06   -0.44651E-07  2508   0.302E-03    0.103E-02
RMM:   7    -0.700133431709E+03   -0.39925E-06   -0.75492E-07  2611   0.299E-03    0.387E-03
RMM:   8    -0.700133432372E+03   -0.66329E-06   -0.55441E-07  1942   0.266E-03
 181 F= -.70013343E+03 E0= -.69951317E+03  d E =-.101889E-03  mag=     8.4362
 trial-energy change:   -0.000102  1 .order   -0.000093   -0.000128   -0.000058
 step:   0.0874(harm=  0.0874)  dis= 0.00048  next Energy=  -700.133447 (dE=-0.116E-03)
 bond charge predicted
       N       E                     dE             d eps       ncg     rms          rms(c)
DAV:   1    -0.700133452404E+03   -0.20695E-04   -0.21446E-03 13392   0.632E-02    0.129E-02
RMM:   2    -0.700133472811E+03   -0.20407E-04   -0.43047E-05  7161   0.131E-02    0.580E-02
RMM:   3    -0.700133457224E+03    0.15587E-04   -0.86258E-06  7131   0.682E-03    0.143E-02
RMM:   4    -0.700133457460E+03   -0.23618E-06   -0.12852E-06  3940   0.323E-03    0.108E-02
RMM:   5    -0.700133458251E+03   -0.79119E-06   -0.91234E-08  1865   0.268E-03    0.135E-02
RMM:   6    -0.700133458618E+03   -0.36652E-06   -0.85217E-08  1613   0.269E-03    0.175E-02
RMM:   7    -0.700133458741E+03   -0.12306E-06   -0.22777E-07  1618   0.278E-03    0.122E-02
RMM:   8    -0.700133458755E+03   -0.14625E-07   -0.15997E-07  1226   0.280E-03
 182 F= -.70013346E+03 E0= -.69951320E+03  d E =-.128273E-03  mag=     8.4368
 curvature:  -0.11 expect dE=-0.150E-03 dE for cont linesearch -0.156E-06
 trial: gam= 0.50802 g(F)=  0.141E-02 g(S)=  0.000E+00 ort =-0.973E-04 (trialstep = 0.559E-01)
 search vector abs. value=  0.298E-02
 bond charge predicted
       N       E                     dE             d eps       ncg     rms          rms(c)
DAV:   1    -0.700133502400E+03   -0.43659E-04   -0.20210E-03 13216   0.627E-02    0.111E-02
RMM:   2    -0.700133507571E+03   -0.51715E-05   -0.38578E-05  7063   0.124E-02    0.172E-02
RMM:   3    -0.700133508389E+03   -0.81762E-06   -0.64879E-06  7022   0.607E-03    0.752E-03
RMM:   4    -0.700133513248E+03   -0.48594E-05   -0.35450E-07  2243   0.288E-03    0.286E-02
RMM:   5    -0.700133509592E+03    0.36563E-05   -0.64798E-08  1827   0.275E-03    0.785E-03
RMM:   6    -0.700133511635E+03   -0.20428E-05   -0.40312E-08  1341   0.271E-03    0.754E-03
RMM:   7    -0.700133512608E+03   -0.97302E-06   -0.79539E-08  1274   0.279E-03    0.414E-03
RMM:   8    -0.700133513587E+03   -0.97947E-06   -0.58612E-08  1030   0.280E-03
 183 F= -.70013351E+03 E0= -.69951325E+03  d E =-.548319E-04  mag=     8.4373
 trial-energy change:   -0.000055  1 .order   -0.000044   -0.000076   -0.000012
 step:   0.0661(harm=  0.0661)  dis= 0.00024  next Energy=  -700.133504 (dE=-0.448E-04)
 bond charge predicted
       N       E                     dE             d eps       ncg     rms          rms(c)
DAV:   1    -0.700133515104E+03   -0.24960E-05   -0.67159E-05  7920   0.117E-02    0.507E-03
RMM:   2    -0.700133517412E+03   -0.23082E-05   -0.49159E-06  6257   0.454E-03    0.138E-02
RMM:   3    -0.700133517498E+03   -0.85944E-07   -0.49921E-07  2642   0.278E-03    0.136E-02
RMM:   4    -0.700133516966E+03    0.53186E-06   -0.19407E-08  1151   0.249E-03    0.595E-03
RMM:   5    -0.700133517459E+03   -0.49332E-06    0.00000E+00   856   0.244E-03    0.387E-03
RMM:   6    -0.700133518111E+03   -0.65166E-06   -0.67001E-10   759   0.245E-03    0.520E-03
RMM:   7    -0.700133519068E+03   -0.95656E-06   -0.86302E-10   734   0.246E-03    0.412E-03
RMM:   8    -0.700133519907E+03   -0.83901E-06    0.00000E+00   763   0.245E-03
 184 F= -.70013352E+03 E0= -.69951325E+03  d E =-.611514E-04  mag=     8.4377
 curvature:  -0.07 expect dE=-0.969E-04 dE for cont linesearch -0.656E-07
 trial: gam= 0.88895 g(F)=  0.133E-02 g(S)=  0.000E+00 ort =-0.519E-04 (trialstep = 0.480E-01)
 search vector abs. value=  0.360E-02
 bond charge predicted
       N       E                     dE             d eps       ncg     rms          rms(c)
DAV:   1    -0.700133555705E+03   -0.36638E-04   -0.18226E-03 13104   0.603E-02    0.100E-02
RMM:   2    -0.700133560980E+03   -0.52750E-05   -0.35334E-05  7090   0.122E-02    0.238E-02
RMM:   3    -0.700133560778E+03    0.20247E-06   -0.63091E-06  7049   0.593E-03    0.132E-02
RMM:   4    -0.700133561163E+03   -0.38507E-06   -0.32789E-07  2239   0.285E-03    0.149E-02
RMM:   5    -0.700133561167E+03   -0.44456E-08   -0.65730E-08  1620   0.277E-03    0.764E-03
RMM:   6    -0.700133562014E+03   -0.84690E-06   -0.94356E-08  1473   0.283E-03    0.559E-03
RMM:   7    -0.700133562966E+03   -0.95137E-06   -0.34649E-07  1715   0.292E-03    0.561E-03
RMM:   8    -0.700133563523E+03   -0.55712E-06   -0.21439E-07  1306   0.284E-03
 185 F= -.70013356E+03 E0= -.69951329E+03  d E =-.436162E-04  mag=     8.4378
 trial-energy change:   -0.000044  1 .order   -0.000036   -0.000062   -0.000009
 step:   0.0565(harm=  0.0565)  dis= 0.00026  next Energy=  -700.133556 (dE=-0.364E-04)
 reached required accuracy - stopping structural energy minimisation
 writing wavefunctions
