       N       E                     dE             d eps       ncg     rms          rms(c)
DAV:   1     0.421302559543E+04    0.42130E+04   -0.25263E+05 10880   0.921E+02
DAV:   2     0.658766353338E+02   -0.41471E+04   -0.37421E+04 12608   0.208E+02
DAV:   3    -0.151649703220E+03   -0.21753E+03   -0.20790E+03 12448   0.470E+01
DAV:   4    -0.154765578138E+03   -0.31159E+01   -0.31128E+01 13568   0.601E+00
DAV:   5    -0.154842801877E+03   -0.77224E-01   -0.77219E-01 14672   0.869E-01    0.142E+02
RMM:   6     0.643167748086E+03    0.79801E+03   -0.15899E+03 10880   0.364E+01    0.117E+02
RMM:   7     0.734864723836E+03    0.91697E+02   -0.10730E+02 10880   0.130E+01    0.877E+01
RMM:   8     0.629068692000E+03   -0.10580E+03   -0.11295E+02 10900   0.126E+01    0.108E+02
RMM:   9     0.512929008369E+03   -0.11614E+03   -0.70970E+01 10901   0.106E+01    0.109E+02
RMM:  10     0.494400201788E+03   -0.18529E+02   -0.65527E+01 10901   0.948E+00    0.850E+01
RMM:  11     0.335864269411E+03   -0.15854E+03   -0.80808E+01 10906   0.112E+01    0.825E+01
RMM:  12     0.293803179986E+03   -0.42061E+02   -0.30601E+01 10906   0.727E+00    0.725E+01
RMM:  13     0.265910284373E+03   -0.27893E+02   -0.19303E+01 10908   0.571E+00    0.539E+01
RMM:  14     0.226199223847E+03   -0.39711E+02   -0.10451E+01 10894   0.407E+00    0.526E+01
RMM:  15     0.202940004827E+03   -0.23259E+02   -0.45550E+00 10894   0.272E+00    0.499E+01
RMM:  16     0.156083966092E+03   -0.46856E+02   -0.11756E+01 10945   0.440E+00    0.533E+01
RMM:  17     0.743667766054E+02   -0.81717E+02   -0.40369E+01 12600   0.841E+00    0.558E+01
RMM:  18    -0.253695607791E+02   -0.99736E+02   -0.75781E+01 14175   0.106E+01    0.584E+01
RMM:  19    -0.666840506203E+02   -0.41314E+02   -0.21090E+01 12204   0.573E+00    0.634E+01
RMM:  20    -0.823147587160E+02   -0.15631E+02   -0.10413E+01 10953   0.412E+00    0.594E+01
RMM:  21    -0.873553156801E+02   -0.50406E+01   -0.82296E+00 10902   0.367E+00    0.501E+01
RMM:  22    -0.104459460444E+03   -0.17104E+02   -0.10427E+01 11185   0.427E+00    0.400E+01
RMM:  23    -0.133389040106E+03   -0.28930E+02   -0.15188E+01 12142   0.505E+00    0.352E+01
RMM:  24    -0.158527795699E+03   -0.25139E+02   -0.10764E+01 11953   0.409E+00    0.290E+01
RMM:  25    -0.181493098256E+03   -0.22965E+02   -0.78999E+00 11722   0.342E+00    0.276E+01
RMM:  26    -0.197299849029E+03   -0.15807E+02   -0.55782E+00 11512   0.288E+00    0.235E+01
RMM:  27    -0.218721778605E+03   -0.21422E+02   -0.86737E+00 12138   0.334E+00    0.219E+01
RMM:  28    -0.239433823340E+03   -0.20712E+02   -0.97591E+00 12342   0.341E+00    0.214E+01
RMM:  29    -0.258071965360E+03   -0.18638E+02   -0.98109E+00 12380   0.328E+00    0.207E+01
RMM:  30    -0.274320175717E+03   -0.16248E+02   -0.10038E+01 12344   0.313E+00    0.168E+01
RMM:  31    -0.285563524156E+03   -0.11243E+02   -0.75064E+00 12024   0.256E+00    0.131E+01
RMM:  32    -0.295485803846E+03   -0.99223E+01   -0.70427E+00 11999   0.233E+00    0.131E+01
RMM:  33    -0.303580802660E+03   -0.80950E+01   -0.70449E+00 12001   0.212E+00    0.107E+01
RMM:  34    -0.309204269164E+03   -0.56235E+01   -0.56073E+00 11842   0.175E+00    0.108E+01
RMM:  35    -0.309039052903E+03    0.16522E+00   -0.13914E+00 11012   0.114E+00    0.886E+00
RMM:  36    -0.308312972927E+03    0.72608E+00   -0.72729E-01 10903   0.920E-01    0.883E+00
RMM:  37    -0.306869150986E+03    0.14438E+01   -0.59371E-01 10921   0.877E-01    0.653E+00
RMM:  38    -0.306774236856E+03    0.94914E-01   -0.40429E-01 10896   0.754E-01    0.533E+00
RMM:  39    -0.307181669471E+03   -0.40743E+00   -0.20578E-01 10906   0.525E-01    0.471E+00
RMM:  40    -0.307877259606E+03   -0.69559E+00   -0.18651E-01 10947   0.480E-01    0.364E+00
RMM:  41    -0.308983133211E+03   -0.11059E+01   -0.32924E-01 11214   0.555E-01    0.317E+00
RMM:  42    -0.309520420099E+03   -0.53729E+00   -0.19188E-01 11082   0.427E-01    0.260E+00
RMM:  43    -0.309820392821E+03   -0.29997E+00   -0.95728E-02 10987   0.300E-01    0.238E+00
RMM:  44    -0.310115481548E+03   -0.29509E+00   -0.83867E-02 11020   0.276E-01    0.198E+00
RMM:  45    -0.310267911552E+03   -0.15243E+00   -0.49281E-02 10975   0.228E-01    0.164E+00
RMM:  46    -0.310355040933E+03   -0.87129E-01   -0.24989E-02 10935   0.160E-01    0.138E+00
RMM:  47    -0.310386262961E+03   -0.31222E-01   -0.13721E-02 10909   0.131E-01    0.956E-01
RMM:  48    -0.310426891908E+03   -0.40629E-01   -0.87024E-03 10911   0.103E-01    0.643E-01
RMM:  49    -0.310472280894E+03   -0.45389E-01   -0.36597E-03 10885   0.711E-02    0.440E-01
RMM:  50    -0.310512368057E+03   -0.40087E-01   -0.25348E-03 10883   0.591E-02    0.297E-01
RMM:  51    -0.310552773480E+03   -0.40405E-01   -0.17038E-03 10892   0.471E-02    0.294E-01
RMM:  52    -0.310637663311E+03   -0.84890E-01   -0.11535E-03 10888   0.391E-02    0.224E-01
RMM:  53    -0.310690436301E+03   -0.52773E-01   -0.38319E-04  9438   0.228E-02    0.125E-01
RMM:  54    -0.310725970421E+03   -0.35534E-01   -0.14775E-04  7660   0.136E-02    0.950E-02
RMM:  55    -0.310739202215E+03   -0.13232E-01   -0.69700E-05  7342   0.961E-03    0.539E-02
RMM:  56    -0.310745106303E+03   -0.59041E-02   -0.56779E-05  7462   0.741E-03    0.334E-02
RMM:  57    -0.310749002632E+03   -0.38963E-02   -0.18850E-05  7257   0.465E-03    0.219E-02
RMM:  58    -0.310751208580E+03   -0.22059E-02   -0.87839E-06  6335   0.314E-03    0.175E-02
RMM:  59    -0.310752505941E+03   -0.12974E-02   -0.33973E-06  4536   0.239E-03    0.109E-02
RMM:  60    -0.310753345959E+03   -0.84002E-03   -0.22949E-06  4445   0.225E-03    0.972E-03
RMM:  61    -0.310753784330E+03   -0.43837E-03   -0.10572E-06  3965   0.204E-03    0.648E-03
RMM:  62    -0.310754170924E+03   -0.38659E-03   -0.20627E-06  4352   0.212E-03    0.497E-03
RMM:  63    -0.310754526198E+03   -0.35527E-03   -0.13148E-06  4060   0.192E-03    0.513E-03
RMM:  64    -0.310754935875E+03   -0.40968E-03   -0.21201E-06  4123   0.194E-03    0.405E-03
RMM:  65    -0.310755377130E+03   -0.44126E-03   -0.27760E-06  4264   0.202E-03    0.410E-03
RMM:  66    -0.310755699535E+03   -0.32241E-03   -0.25305E-06  4185   0.197E-03    0.247E-03
RMM:  67    -0.310755909723E+03   -0.21019E-03   -0.17229E-06  4084   0.194E-03    0.227E-03
RMM:  68    -0.310756009334E+03   -0.99611E-04   -0.11024E-06  3785   0.185E-03
   1 F= -.31075601E+03 E0= -.31075476E+03  d E =-.310756E+03  mag=    21.5059
       N       E                     dE             d eps       ncg     rms          rms(c)
DAV:   1    -0.310773323953E+03   -0.17414E-01   -0.87224E+00 11440   0.292E+00    0.490E-01
RMM:   2    -0.310796815003E+03   -0.23491E-01   -0.95924E-02 10900   0.442E-01    0.135E+00
RMM:   3    -0.310785226868E+03    0.11588E-01   -0.23984E-02 10998   0.195E-01    0.497E-01
RMM:   4    -0.310785566966E+03   -0.34010E-03   -0.70620E-03 10910   0.106E-01    0.512E-01
RMM:   5    -0.310784100928E+03    0.14660E-02   -0.24303E-03 10889   0.644E-02    0.323E-01
RMM:   6    -0.310783639723E+03    0.46120E-03   -0.85516E-04 10874   0.378E-02    0.236E-01
RMM:   7    -0.310782877257E+03    0.76247E-03   -0.73936E-04 10847   0.339E-02    0.888E-02
RMM:   8    -0.310782650857E+03    0.22640E-03   -0.15185E-04  7361   0.172E-02    0.509E-02
RMM:   9    -0.310782636541E+03    0.14316E-04   -0.30262E-05  6977   0.726E-03
   2 F= -.31078264E+03 E0= -.31078190E+03  d E =-.266272E-01  mag=    21.5128
       N       E                     dE             d eps       ncg     rms          rms(c)
DAV:   1    -0.310786406448E+03   -0.37556E-02   -0.89915E-01 11456   0.937E-01    0.161E-01
RMM:   2    -0.310788627431E+03   -0.22210E-02   -0.99093E-03 10891   0.143E-01    0.424E-01
RMM:   3    -0.310787601966E+03    0.10255E-02   -0.25285E-03 10945   0.632E-02    0.172E-01
RMM:   4    -0.310787546702E+03    0.55264E-04   -0.74256E-04 10704   0.344E-02    0.170E-01
RMM:   5    -0.310787341658E+03    0.20504E-03   -0.26234E-04  8677   0.211E-02    0.105E-01
RMM:   6    -0.310787238907E+03    0.10275E-03   -0.92545E-05  7077   0.125E-02    0.885E-02
RMM:   7    -0.310787082441E+03    0.15647E-03   -0.75687E-05  7119   0.110E-02    0.547E-02
RMM:   8    -0.310787019729E+03    0.62712E-04   -0.44448E-05  7066   0.835E-03
   3 F= -.31078702E+03 E0= -.31078644E+03  d E =-.310104E-01  mag=    21.5213
