 vasp.6.3.2 27Jun22 (build Aug 29 2022 23:59:14) complex                         
 executed on              LinuxNV date 2023.05.26  07:44:20
 running   16 mpi-ranks, with    8 threads/rank
 distrk:  each k-point on   16 cores,    1 groups
 distr:  one band on NCORE=   1 cores,   16 groups


--------------------------------------------------------------------------------------------------------


 INCAR:
   ALGO = Fast
   EDIFF = 0.0001
   EDIFFG = -0.05
   ENCUT = 500
   GGA = Pe
   IBRION = 2
   ISIF = 0
   ISMEAR = 1
   ISPIN = 2
   ISTART = 1
   ISYM = 0
   LASPH = True
   LCHARG = False
   LMAXMIX = 4
   LORBIT = 11
   LREAL = True
   LVTOT = False
   LWAVE = True
   MAGMOM = 64*5.0
   NCORE = 4
   NELM = 80
   NELMIN = 8
   NSW = 300
   PREC = Accurate
   SIGMA = 0.08000000000000002
   SYMPREC = 1e-10

 POTCAR:    PAW_PBE Pd 04Jan2005                  
 POTCAR:    PAW_PBE Pd 04Jan2005                  
   SHA256 =  dd6f6f02930356371984e2b707ff5e456046761dc76b07c1eba30abd15eb3c39 Pd/POTCAR             
   COPYR  = (c) Copyright 04Jan2005 Georg Kresse                                                    
   COPYR  = This file is part of the software VASP. Any use, copying, and all other rights are regul
   COPYR  = If you do not have a valid VASP license, you may not use, copy or distribute this file. 
   VRHFIN =Pd : s1 d9                                                                               
   LEXCH  = PE                                                                                      
   EATOM  =   809.7530 eV,   59.5152 Ry                                                             
                                                                                                    
   TITEL  = PAW_PBE Pd 04Jan2005                                                                    
   LULTRA =        F    use ultrasoft PP ?                                                          
   IUNSCR =        1    unscreen: 0-lin 1-nonlin 2-no                                               
   RPACOR =    2.000    partial core radius                                                         
   POMASS =  106.420; ZVAL   =   10.000    mass and valenz                                          
   RCORE  =    2.600    outmost cutoff radius                                                       
   RWIGS  =    2.710; RWIGS  =    1.434    wigner-seitz radius (au A)                               
   ENMAX  =  250.925; ENMIN  =  188.194 eV                                                          
   ICORE  =        3    local potential                                                             
   LCOR   =        T    correct aug charges                                                         
   LPAW   =        T    paw PP                                                                      
   EAUG   =  416.230                                                                                
   DEXC   =    0.000                                                                                
   RMAX   =    2.653    core radius for proj-oper                                                   
   RAUG   =    1.300    factor for augmentation sphere                                              
   RDEP   =    2.734    radius for radial grids                                                     
   RDEPT  =    2.103    core radius for aug-charge                                                  
                                                                                                    
   Atomic configuration                                                                             
   12 entries                                                                                       
     n  l   j            E        occ.                                                              
     1  0  0.50    -24164.6631   2.0000                                                             
     2  0  0.50     -3530.9218   2.0000                                                             
     2  1  1.50     -3165.6822   6.0000                                                             
     3  0  0.50      -639.4577   2.0000                                                             
     3  1  1.50      -519.4532   6.0000                                                             
     3  2  2.50      -328.9757  10.0000                                                             
     4  0  0.50       -88.7014   2.0000                                                             
     4  1  1.50       -54.4540   6.0000                                                             
     4  2  2.50        -6.6878   9.0000                                                             
     5  0  0.50        -4.3543   1.0000                                                             
     5  1  0.50        -1.3606   0.0000                                                             
     4  3  2.50        -1.3606   0.0000                                                             
   Description                                                                                      
     l       E           TYP  RCUT    TYP  RCUT                                                     
     2     -6.6878251     23  2.400                                                                 
     2     -8.0484077     23  2.400                                                                 
     0     -4.3542939     23  2.400                                                                 
     0      4.3406793     23  2.400                                                                 
     1     -4.0817478     23  2.600                                                                 
     1     15.8380318     23  2.600                                                                 
     3     -4.0817478     23  2.400                                                                 
  local pseudopotential read in
  partial core-charges read in
  partial kinetic energy density read in
  atomic valenz-charges read in
  non local Contribution for L=            2  read in
    real space projection operators read in
  non local Contribution for L=            2  read in
    real space projection operators read in
  non local Contribution for L=            0  read in
    real space projection operators read in
  non local Contribution for L=            0  read in
    real space projection operators read in
  non local Contribution for L=            1  read in
    real space projection operators read in
  non local Contribution for L=            1  read in
    real space projection operators read in
    PAW grid and wavefunctions read in
 
   number of l-projection  operators is LMAX  =            6
   number of lm-projection operators is LMMAX =           18
 
 -----------------------------------------------------------------------------
|                                                                             |
|           W    W    AA    RRRRR   N    N  II  N    N   GGGG   !!!           |
|           W    W   A  A   R    R  NN   N  II  NN   N  G    G  !!!           |
|           W    W  A    A  R    R  N N  N  II  N N  N  G       !!!           |
|           W WW W  AAAAAA  RRRRR   N  N N  II  N  N N  G  GGG   !            |
|           WW  WW  A    A  R   R   N   NN  II  N   NN  G    G                |
|           W    W  A    A  R    R  N    N  II  N    N   GGGG   !!!           |
|                                                                             |
|     The real-space projection scheme for the treatment of the non-local     |
|     pseudopotentials has been switched on but on file POTCAR I have not     |
|     found any entries, signalling me that you have never performed a        |
|     real-space optimization of all non-local projectors! BE WARNED that     |
|     a calculation using the real-space projection scheme together with      |
|     non-local projectors which were not real-space optimized (according     |
|     to the plane-wave cutoff used in this calculation) might give more      |
|     or less inaccurate results. I hope you know what you are doing.         |
|                                                                             |
 -----------------------------------------------------------------------------

  PAW_PBE Pd 04Jan2005                  :
 energy of atom  1       EATOM= -809.7530
 kinetic energy error for atom=    0.0049 (will be added to EATOM!!)
 
 
 POSCAR: Pd64
  positions in direct lattice
  No initial velocities read in
 exchange correlation table for  LEXCH =        8
   RHO(1)=    0.500       N(1)  =     2000
   RHO(2)=  100.500       N(2)  =     4000
 


--------------------------------------------------------------------------------------------------------


 ion  position               nearest neighbor table
   1  0.000  0.250  0.525-  50 2.77  49 2.77  61 2.77  62 2.77   2 2.77   4 2.77   5 2.77  13 2.77
                            29 2.77  17 2.77  30 2.77  18 2.77
   2  0.000  0.500  0.525-  51 2.77  50 2.77  62 2.77  63 2.77   1 2.77   3 2.77   6 2.77  14 2.77
                            30 2.77  18 2.77  31 2.77  19 2.77
   3  0.000  0.750  0.525-  52 2.77  51 2.77  63 2.77  64 2.77   2 2.77   4 2.77   7 2.77  15 2.77
                            31 2.77  19 2.77  32 2.77  20 2.77
   4  0.000  0.000  0.525-  49 2.77  52 2.77  61 2.77  64 2.77   1 2.77   3 2.77   8 2.77  16 2.77
                            32 2.77  29 2.77  17 2.77  20 2.77
   5  0.250  0.250  0.525-  54 2.77  50 2.77  53 2.77  49 2.77   6 2.77   8 2.77   1 2.77   9 2.77
                            17 2.77  21 2.77  22 2.77  18 2.77
   6  0.250  0.500  0.525-  55 2.77  51 2.77  54 2.77  50 2.77   5 2.77   7 2.77   2 2.77  10 2.77
                            18 2.77  22 2.77  23 2.77  19 2.77
   7  0.250  0.750  0.525-  56 2.77  52 2.77  55 2.77  51 2.77   6 2.77   8 2.77   3 2.77  11 2.77
                            19 2.77  23 2.77  24 2.77  20 2.77
   8  0.250  0.000  0.525-  53 2.77  52 2.77  49 2.77  56 2.77   5 2.77   7 2.77   4 2.77  12 2.77
                            20 2.77  21 2.77  24 2.77  17 2.77
   9  0.500  0.250  0.525-  58 2.77  54 2.77  57 2.77  53 2.77  10 2.77  12 2.77   5 2.77  13 2.77
                            21 2.77  25 2.77  26 2.77  22 2.77
  10  0.500  0.500  0.525-  59 2.77  55 2.77  58 2.77  54 2.77   9 2.77  11 2.77   6 2.77  14 2.77
                            22 2.77  26 2.77  27 2.77  23 2.77
  11  0.500  0.750  0.525-  60 2.77  56 2.77  59 2.77  55 2.77  10 2.77  12 2.77   7 2.77  15 2.77
                            23 2.77  27 2.77  28 2.77  24 2.77
  12  0.500  0.000  0.525-  57 2.77  56 2.77  53 2.77  60 2.77   9 2.77  11 2.77   8 2.77  16 2.77
                            24 2.77  25 2.77  28 2.77  21 2.77
  13  0.750  0.250  0.525-  62 2.77  58 2.77  61 2.77  57 2.77  14 2.77  16 2.77   1 2.77   9 2.77
                            25 2.77  29 2.77  30 2.77  26 2.77
  14  0.750  0.500  0.525-  63 2.77  59 2.77  62 2.77  58 2.77  13 2.77  15 2.77   2 2.77  10 2.77
                            26 2.77  30 2.77  31 2.77  27 2.77
  15  0.750  0.750  0.525-  64 2.77  60 2.77  63 2.77  59 2.77  14 2.77  16 2.77   3 2.77  11 2.77
                            27 2.77  31 2.77  32 2.77  28 2.77
  16  0.750  0.000  0.525-  61 2.77  60 2.77  57 2.77  64 2.77  13 2.77  15 2.77   4 2.77  12 2.77
                            28 2.77  29 2.77  32 2.77  25 2.77
  17  0.125  0.125  0.575-  18 2.77  20 2.77  21 2.77  29 2.77   5 2.77   1 2.77   8 2.77   4 2.77

  18  0.125  0.375  0.575-  17 2.77  19 2.77  22 2.77  30 2.77   6 2.77   5 2.77   1 2.77   2 2.77

  19  0.125  0.625  0.575-  18 2.77  20 2.77  23 2.77  31 2.77   7 2.77   6 2.77   2 2.77   3 2.77

  20  0.125  0.875  0.575-  17 2.77  19 2.77  24 2.77  32 2.77   8 2.77   7 2.77   3 2.77   4 2.77

  21  0.375  0.125  0.575-  22 2.77  24 2.77  17 2.77  25 2.77   9 2.77   5 2.77  12 2.77   8 2.77

  22  0.375  0.375  0.575-  21 2.77  23 2.77  18 2.77  26 2.77  10 2.77   9 2.77   5 2.77   6 2.77

  23  0.375  0.625  0.575-  22 2.77  24 2.77  19 2.77  27 2.77  11 2.77  10 2.77   6 2.77   7 2.77

  24  0.375  0.875  0.575-  21 2.77  23 2.77  20 2.77  28 2.77  12 2.77  11 2.77   7 2.77   8 2.77

  25  0.625  0.125  0.575-  26 2.77  28 2.77  21 2.77  29 2.77  13 2.77   9 2.77  16 2.77  12 2.77

  26  0.625  0.375  0.575-  25 2.77  27 2.77  22 2.77  30 2.77  14 2.77  13 2.77   9 2.77  10 2.77

  27  0.625  0.625  0.575-  26 2.77  28 2.77  23 2.77  31 2.77  15 2.77  14 2.77  10 2.77  11 2.77

  28  0.625  0.875  0.575-  25 2.77  27 2.77  24 2.77  32 2.77  16 2.77  15 2.77  11 2.77  12 2.77

  29  0.875  0.125  0.575-  30 2.77  32 2.77  17 2.77  25 2.77   1 2.77  13 2.77  16 2.77   4 2.77

  30  0.875  0.375  0.575-  29 2.77  31 2.77  18 2.77  26 2.77   2 2.77  13 2.77  14 2.77   1 2.77

  31  0.875  0.625  0.575-  30 2.77  32 2.77  19 2.77  27 2.77   3 2.77  14 2.77  15 2.77   2 2.77

  32  0.875  0.875  0.575-  29 2.77  31 2.77  20 2.77  28 2.77   4 2.77  15 2.77  16 2.77   3 2.77

  33  0.250  0.000  0.425-  34 2.77  36 2.77  37 2.77  45 2.77  52 2.77  49 2.77  53 2.77  56 2.77

  34  0.250  0.250  0.425-  33 2.77  35 2.77  38 2.77  46 2.77  49 2.77  50 2.77  53 2.77  54 2.77

  35  0.250  0.500  0.425-  34 2.77  36 2.77  39 2.77  47 2.77  50 2.77  51 2.77  54 2.77  55 2.77

  36  0.250  0.750  0.425-  33 2.77  35 2.77  40 2.77  48 2.77  51 2.77  52 2.77  55 2.77  56 2.77

  37  0.500  0.000  0.425-  38 2.77  40 2.77  33 2.77  41 2.77  56 2.77  53 2.77  57 2.77  60 2.77

  38  0.500  0.250  0.425-  37 2.77  39 2.77  34 2.77  42 2.77  53 2.77  54 2.77  57 2.77  58 2.77

  39  0.500  0.500  0.425-  38 2.77  40 2.77  35 2.77  43 2.77  54 2.77  55 2.77  58 2.77  59 2.77

  40  0.500  0.750  0.425-  37 2.77  39 2.77  36 2.77  44 2.77  55 2.77  56 2.77  59 2.77  60 2.77

  41  0.750  0.000  0.425-  42 2.77  44 2.77  37 2.77  45 2.77  60 2.77  57 2.77  61 2.77  64 2.77

  42  0.750  0.250  0.425-  41 2.77  43 2.77  38 2.77  46 2.77  57 2.77  58 2.77  61 2.77  62 2.77

  43  0.750  0.500  0.425-  42 2.77  44 2.77  39 2.77  47 2.77  58 2.77  59 2.77  62 2.77  63 2.77

  44  0.750  0.750  0.425-  41 2.77  43 2.77  40 2.77  48 2.77  59 2.77  60 2.77  63 2.77  64 2.77

  45  0.000  0.000  0.425-  46 2.77  48 2.77  33 2.77  41 2.77  64 2.77  52 2.77  61 2.77  49 2.77

  46  0.000  0.250  0.425-  45 2.77  47 2.77  34 2.77  42 2.77  61 2.77  50 2.77  49 2.77  62 2.77

  47  0.000  0.500  0.425-  46 2.77  48 2.77  35 2.77  43 2.77  62 2.77  51 2.77  50 2.77  63 2.77

  48  0.000  0.750  0.425-  45 2.77  47 2.77  36 2.77  44 2.77  63 2.77  52 2.77  51 2.77  64 2.77

  49  0.125  0.125  0.475-   4 2.77   1 2.77   5 2.77   8 2.77  50 2.77  52 2.77  53 2.77  61 2.77
                            34 2.77  45 2.77  46 2.77  33 2.77
  50  0.125  0.375  0.475-   1 2.77   2 2.77   5 2.77   6 2.77  49 2.77  51 2.77  54 2.77  62 2.77
                            35 2.77  46 2.77  47 2.77  34 2.77
  51  0.125  0.625  0.475-   2 2.77   3 2.77   6 2.77   7 2.77  50 2.77  52 2.77  55 2.77  63 2.77
                            36 2.77  47 2.77  48 2.77  35 2.77
  52  0.125  0.875  0.475-   3 2.77   4 2.77   7 2.77   8 2.77  49 2.77  51 2.77  56 2.77  64 2.77
                            33 2.77  45 2.77  48 2.77  36 2.77
  53  0.375  0.125  0.475-   8 2.77   5 2.77   9 2.77  12 2.77  54 2.77  56 2.77  49 2.77  57 2.77
                            38 2.77  37 2.77  33 2.77  34 2.77
  54  0.375  0.375  0.475-   5 2.77   6 2.77   9 2.77  10 2.77  53 2.77  55 2.77  50 2.77  58 2.77
                            39 2.77  38 2.77  34 2.77  35 2.77
  55  0.375  0.625  0.475-   6 2.77   7 2.77  10 2.77  11 2.77  54 2.77  56 2.77  51 2.77  59 2.77
                            40 2.77  39 2.77  35 2.77  36 2.77
  56  0.375  0.875  0.475-   7 2.77   8 2.77  11 2.77  12 2.77  53 2.77  55 2.77  52 2.77  60 2.77
                            37 2.77  33 2.77  40 2.77  36 2.77
  57  0.625  0.125  0.475-  12 2.77   9 2.77  13 2.77  16 2.77  58 2.77  60 2.77  53 2.77  61 2.77
                            42 2.77  41 2.77  37 2.77  38 2.77
  58  0.625  0.375  0.475-   9 2.77  10 2.77  13 2.77  14 2.77  57 2.77  59 2.77  54 2.77  62 2.77
                            43 2.77  42 2.77  38 2.77  39 2.77
  59  0.625  0.625  0.475-  10 2.77  11 2.77  14 2.77  15 2.77  58 2.77  60 2.77  55 2.77  63 2.77
                            44 2.77  43 2.77  39 2.77  40 2.77
  60  0.625  0.875  0.475-  11 2.77  12 2.77  15 2.77  16 2.77  57 2.77  59 2.77  56 2.77  64 2.77
                            41 2.77  37 2.77  44 2.77  40 2.77
  61  0.875  0.125  0.475-  16 2.77   4 2.77  13 2.77   1 2.77  62 2.77  64 2.77  49 2.77  57 2.77
                            46 2.77  45 2.77  41 2.77  42 2.77
  62  0.875  0.375  0.475-  13 2.77   2 2.77   1 2.77  14 2.77  61 2.77  63 2.77  50 2.77  58 2.77
                            47 2.77  46 2.77  42 2.77  43 2.77
  63  0.875  0.625  0.475-  14 2.77   3 2.77   2 2.77  15 2.77  62 2.77  64 2.77  51 2.77  59 2.77
                            48 2.77  47 2.77  43 2.77  44 2.77
  64  0.875  0.875  0.475-  15 2.77   4 2.77   3 2.77  16 2.77  61 2.77  63 2.77  52 2.77  60 2.77
                            45 2.77  41 2.77  48 2.77  44 2.77
 

IMPORTANT INFORMATION: All symmetrisations will be switched off!
NOSYMM: (Re-)initialisation of all symmetry stuff for point group C_1.


----------------------------------------------------------------------------------------

                                     Primitive cell                                     

  volume of cell :    4808.9583

  direct lattice vectors                    reciprocal lattice vectors
    11.079802016  0.000000000  0.000000000     0.090254320  0.000000000 -0.000000000
    -0.000000000 11.079802016  0.000000000     0.000000000  0.090254320  0.000000000
     0.000000000  0.000000000 39.173015700    -0.000000000 -0.000000000  0.025527777

  length of vectors
    11.079802016 11.079802016 39.173015700     0.090254320  0.090254320  0.025527777

  position of ions in fractional coordinates (direct lattice)
     1.000000000  0.250000000  0.525000000
     1.000000000  0.500000000  0.525000000
     1.000000000  0.750000000  0.525000000
     0.000000000  0.000000000  0.525000000
     0.250000000  0.250000000  0.525000000
     0.250000000  0.500000000  0.525000000
     0.250000000  0.750000000  0.525000000
     0.250000000  0.000000000  0.525000000
     0.500000000  0.250000000  0.525000000
     0.500000000  0.500000000  0.525000000
     0.500000000  0.750000000  0.525000000
     0.500000000  0.000000000  0.525000000
     0.750000000  0.250000000  0.525000000
     0.750000000  0.500000000  0.525000000
     0.750000000  0.750000000  0.525000000
     0.750000000  0.000000000  0.525000000
     0.125000000  0.125000000  0.575000000
     0.125000000  0.375000000  0.575000000
     0.125000000  0.625000000  0.575000000
     0.125000000  0.875000000  0.575000000
     0.375000000  0.125000000  0.575000000
     0.375000000  0.375000000  0.575000000
     0.375000000  0.625000000  0.575000000
     0.375000000  0.875000000  0.575000000
     0.625000000  0.125000000  0.575000000
     0.625000000  0.375000000  0.575000000
     0.625000000  0.625000000  0.575000000
     0.625000000  0.875000000  0.575000000
     0.875000000  0.125000000  0.575000000
     0.875000000  0.375000000  0.575000000
     0.875000000  0.625000000  0.575000000
     0.875000000  0.875000000  0.575000000
     0.250000000  0.000000000  0.425000000
     0.250000000  0.250000000  0.425000000
     0.250000000  0.500000000  0.425000000
     0.250000000  0.750000000  0.425000000
     0.500000000  0.000000000  0.425000000
     0.500000000  0.250000000  0.425000000
     0.500000000  0.500000000  0.425000000
     0.500000000  0.750000000  0.425000000
     0.750000000  0.000000000  0.425000000
     0.750000000  0.250000000  0.425000000
     0.750000000  0.500000000  0.425000000
     0.750000000  0.750000000  0.425000000
     0.000000000  0.000000000  0.425000000
     1.000000000  0.250000000  0.425000000
     1.000000000  0.500000000  0.425000000
     1.000000000  0.750000000  0.425000000
     0.125000000  0.125000000  0.475000000
     0.125000000  0.375000000  0.475000000
     0.125000000  0.625000000  0.475000000
     0.125000000  0.875000000  0.475000000
     0.375000000  0.125000000  0.475000000
     0.375000000  0.375000000  0.475000000
     0.375000000  0.625000000  0.475000000
     0.375000000  0.875000000  0.475000000
     0.625000000  0.125000000  0.475000000
     0.625000000  0.375000000  0.475000000
     0.625000000  0.625000000  0.475000000
     0.625000000  0.875000000  0.475000000
     0.875000000  0.125000000  0.475000000
     0.875000000  0.375000000  0.475000000
     0.875000000  0.625000000  0.475000000
     0.875000000  0.875000000  0.475000000

  ion indices of the primitive-cell ions
   primitive index   ion index
                 1           1
                 2           2
                 3           3
                 4           4
                 5           5
                 6           6
                 7           7
                 8           8
                 9           9
                10          10
                11          11
                12          12
                13          13
                14          14
                15          15
                16          16
                17          17
                18          18
                19          19
                20          20
                21          21
                22          22
                23          23
                24          24
                25          25
                26          26
                27          27
                28          28
                29          29
                30          30
                31          31
                32          32
                33          33
                34          34
                35          35
                36          36
                37          37
                38          38
                39          39
                40          40
                41          41
                42          42
                43          43
                44          44
                45          45
                46          46
                47          47
                48          48
                49          49
                50          50
                51          51
                52          52
                53          53
                54          54
                55          55
                56          56
                57          57
                58          58
                59          59
                60          60
                61          61
                62          62
                63          63
                64          64

----------------------------------------------------------------------------------------

 
 
 KPOINTS: Automatic kpoint scheme                 

Automatic generation of k-mesh.
 Grid dimensions read from file:
 generate k-points for:    3    3    1

 Generating k-lattice:

  Cartesian coordinates                     Fractional coordinates (reciprocal lattice)
     0.030084773  0.000000000 -0.000000000     0.333333333  0.000000000  0.000000000
     0.000000000  0.030084773  0.000000000     0.000000000  0.333333333  0.000000000
    -0.000000000 -0.000000000  0.025527777    -0.000000000 -0.000000000  1.000000000

  Length of vectors
     0.030084773  0.030084773  0.025527777

  Shift w.r.t. Gamma in fractional coordinates (k-lattice)
     0.000000000  0.000000000  0.000000000

 
 Subroutine IBZKPT returns following result:
 ===========================================
 
 Found      5 irreducible k-points:
 
 Following reciprocal coordinates:
            Coordinates               Weight
  0.000000  0.000000  0.000000      1.000000
  0.333333  0.000000  0.000000      2.000000
  0.000000  0.333333  0.000000      2.000000
  0.333333  0.333333  0.000000      2.000000
 -0.333333  0.333333  0.000000      2.000000
 
 Following cartesian coordinates:
            Coordinates               Weight
  0.000000  0.000000  0.000000      1.000000
  0.030085  0.000000  0.000000      2.000000
  0.000000  0.030085  0.000000      2.000000
  0.030085  0.030085  0.000000      2.000000
 -0.030085  0.030085  0.000000      2.000000
 


--------------------------------------------------------------------------------------------------------




 Dimension of arrays:
   k-points           NKPTS =      5   k-points in BZ     NKDIM =      5   number of bands    NBANDS=    544
   number of dos      NEDOS =    301   number of ions     NIONS =     64
   non local maximal  LDIM  =      6   non local SUM 2l+1 LMDIM =     18
   total plane-waves  NPLWV = ******
   max r-space proj   IRMAX =   4947   max aug-charges    IRDMAX=  20695
   dimension x,y,z NGX =    84 NGY =   84 NGZ =  288
   dimension x,y,z NGXF=   168 NGYF=  168 NGZF=  576
   support grid    NGXF=   168 NGYF=  168 NGZF=  576
   ions per type =              64
   NGX,Y,Z   is equivalent  to a cutoff of  12.60, 12.60, 12.22 a.u.
   NGXF,Y,Z  is equivalent  to a cutoff of  25.21, 25.21, 24.44 a.u.

 SYSTEM =  unknown system                          
 POSCAR =  Pd64                                    

 Startparameter for this run:
   NWRITE =      2    write-flag & timer
   PREC   = accura    normal or accurate (medium, high low for compatibility)
   ISTART =      0    job   : 0-new  1-cont  2-samecut
   ICHARG =      2    charge: 1-file 2-atom 10-const
   ISPIN  =      2    spin polarized calculation?
   LNONCOLLINEAR =      F non collinear calculations
   LSORBIT =      F    spin-orbit coupling
   INIWAV =      1    electr: 0-lowe 1-rand  2-diag
   LASPH  =      T    aspherical Exc in radial PAW
 Electronic Relaxation 1
   ENCUT  =  500.0 eV  36.75 Ry    6.06 a.u.  20.20 20.20 71.42*2*pi/ulx,y,z
   ENINI  =  500.0     initial cutoff
   ENAUG  =  416.2 eV  augmentation charge cutoff
   NELM   =     80;   NELMIN=  8; NELMDL=  0     # of ELM steps 
   EDIFF  = 0.1E-03   stopping-criterion for ELM
   LREAL  =      T    real-space projection
   NLSPLINE    = F    spline interpolate recip. space projectors
   LCOMPAT=      F    compatible to vasp.4.4
   GGA_COMPAT  = T    GGA compatible to vasp.4.4-vasp.4.6
   LMAXPAW     = -100 max onsite density
   LMAXMIX     =    4 max onsite mixed and CHGCAR
   VOSKOWN=      0    Vosko Wilk Nusair interpolation
   ROPT   =    0.00000
 Ionic relaxation
   EDIFFG = -.5E-01   stopping-criterion for IOM
   NSW    =    300    number of steps for IOM
   NBLOCK =      1;   KBLOCK =    300    inner block; outer block 
   IBRION =      2    ionic relax: 0-MD 1-quasi-New 2-CG
   NFREE  =      1    steps in history (QN), initial steepest desc. (CG)
   ISIF   =      0    stress and relaxation
   IWAVPR =     11    prediction:  0-non 1-charg 2-wave 3-comb
   ISYM   =      0    0-nonsym 1-usesym 2-fastsym
   LCORR  =      T    Harris-Foulkes like correction to forces

   POTIM  = 0.5000    time-step for ionic-motion
   TEIN   =    0.0    initial temperature
   TEBEG  =    0.0;   TEEND  =   0.0 temperature during run
   SMASS  =  -3.00    Nose mass-parameter (am)
   estimated Nose-frequenzy (Omega)   =  0.10E-29 period in steps = 0.13E+47 mass=  -0.281E-26a.u.
   SCALEE = 1.0000    scale energy and forces
   NPACO  =    256;   APACO  = 10.0  distance and # of slots for P.C.
   PSTRESS=    0.0 pullay stress

  Mass of Ions in am
   POMASS = 106.42
  Ionic Valenz
   ZVAL   =  10.00
  Atomic Wigner-Seitz radii
   RWIGS  =  -1.00
  virtual crystal weights 
   VCA    =   1.00
   NELECT =     640.0000    total number of electrons
   NUPDOWN=      -1.0000    fix difference up-down

 DOS related values:
   EMIN   =  10.00;   EMAX   =-10.00  energy-range for DOS
   EFERMI =   0.00
   ISMEAR =     1;   SIGMA  =   0.08  broadening in eV -4-tet -1-fermi 0-gaus

 Electronic relaxation 2 (details)
   IALGO  =     68    algorithm
   LDIAG  =      T    sub-space diagonalisation (order eigenvalues)
   LSUBROT=      F    optimize rotation matrix (better conditioning)
   TURBO    =      0    0=normal 1=particle mesh
   IRESTART =      0    0=no restart 2=restart with 2 vectors
   NREBOOT  =      0    no. of reboots
   NMIN     =      0    reboot dimension
   EREF     =   0.00    reference energy to select bands
   IMIX   =      4    mixing-type and parameters
     AMIX     =   0.40;   BMIX     =  1.00
     AMIX_MAG =   1.60;   BMIX_MAG =  1.00
     AMIN     =   0.10
     WC   =   100.;   INIMIX=   1;  MIXPRE=   1;  MAXMIX= -45

 Intra band minimization:
   WEIMIN = 0.0010     energy-eigenvalue tresh-hold
   EBREAK =  0.46E-07  absolut break condition
   DEPER  =   0.30     relativ break condition  

   TIME   =   0.40     timestep for ELM

  volume/ion in A,a.u.               =      75.14       507.07
  Fermi-wavevector in a.u.,A,eV,Ry     =   0.835830  1.579489  9.505185  0.698611
  Thomas-Fermi vector in A             =   1.949453
 
 Write flags
   LWAVE        =      T    write WAVECAR
   LDOWNSAMPLE  =      F    k-point downsampling of WAVECAR
   LCHARG       =      F    write CHGCAR
   LVTOT        =      F    write LOCPOT, total local potential
   LVHAR        =      F    write LOCPOT, Hartree potential only
   LELF         =      F    write electronic localiz. function (ELF)
   LORBIT       =     11    0 simple, 1 ext, 2 COOP (PROOUT), +10 PAW based schemes


 Dipole corrections
   LMONO  =      F    monopole corrections only (constant potential shift)
   LDIPOL =      F    correct potential (dipole corrections)
   IDIPOL =      0    1-x, 2-y, 3-z, 4-all directions 
   EPSILON=  1.0000000 bulk dielectric constant

 Exchange correlation treatment:
   GGA     =    PE    GGA type
   LEXCH   =     8    internal setting for exchange type
   LIBXC   =     F    Libxc                    
   VOSKOWN =     0    Vosko Wilk Nusair interpolation
   LHFCALC =     F    Hartree Fock is set to
   LHFONE  =     F    Hartree Fock one center treatment
   AEXX    =    0.0000 exact exchange contribution

 Linear response parameters
   LEPSILON=     F    determine dielectric tensor
   LRPA    =     F    only Hartree local field effects (RPA)
   LNABLA  =     F    use nabla operator in PAW spheres
   LVEL    =     F    velocity operator in full k-point grid
   CSHIFT  =0.1000    complex shift for real part using Kramers Kronig
   OMEGAMAX=  -1.0    maximum frequency
   DEG_THRESHOLD= 0.2000000E-02 threshold for treating states as degnerate
   RTIME   =   -0.100 relaxation time in fs
  (WPLASMAI=    0.000 imaginary part of plasma frequency in eV, 0.658/RTIME)
   DFIELD  = 0.0000000 0.0000000 0.0000000 field for delta impulse in time
 
  Optional k-point grid parameters
   LKPOINTS_OPT  =     F    use optional k-point grid
   KPOINTS_OPT_MODE=     1    mode for optional k-point grid
 
 Orbital magnetization related:
   ORBITALMAG=     F  switch on orbital magnetization
   LCHIMAG   =     F  perturbation theory with respect to B field
   DQ        =  0.001000  dq finite difference perturbation B field
   LLRAUG    =     F  two centre corrections for induced B field



--------------------------------------------------------------------------------------------------------


 conjugate gradient relaxation of ions
   using selective dynamics as specified on POSCAR
 charge density and potential will be updated during run
 spin polarized calculation
 RMM-DIIS sequential band-by-band and
  variant of blocked Davidson during initial phase
 perform sub-space diagonalisation
    before iterative eigenvector-optimisation
 modified Broyden-mixing scheme, WC =      100.0
 initial mixing is a Kerker type mixing with AMIX =  0.4000 and BMIX =      1.0000
 Hartree-type preconditioning will be used
 using additional bands           224
 real space projection scheme for non local part
 use partial core corrections
 calculate Harris-corrections to forces 
   (improved forces if not selfconsistent)
 use gradient corrections 
 use of overlap-Matrix (Vanderbilt PP)
 Methfessel and Paxton  Order N= 1 SIGMA  =   0.08


--------------------------------------------------------------------------------------------------------


  energy-cutoff  :      500.00
  volume of cell :     4808.96
      direct lattice vectors                 reciprocal lattice vectors
    11.079802016  0.000000000  0.000000000     0.090254320  0.000000000 -0.000000000
    -0.000000000 11.079802016  0.000000000     0.000000000  0.090254320  0.000000000
     0.000000000  0.000000000 39.173015700    -0.000000000 -0.000000000  0.025527777

  length of vectors
    11.079802016 11.079802016 39.173015700     0.090254320  0.090254320  0.025527777


 
 k-points in units of 2pi/SCALE and weight: Automatic kpoint scheme                 
   0.00000000  0.00000000  0.00000000       0.111
   0.03008477  0.00000000  0.00000000       0.222
   0.00000000  0.03008477  0.00000000       0.222
   0.03008477  0.03008477  0.00000000       0.222
  -0.03008477  0.03008477  0.00000000       0.222
 
 k-points in reciprocal lattice and weights: Automatic kpoint scheme                 
   0.00000000  0.00000000  0.00000000       0.111
   0.33333333  0.00000000  0.00000000       0.222
   0.00000000  0.33333333  0.00000000       0.222
   0.33333333  0.33333333  0.00000000       0.222
  -0.33333333  0.33333333  0.00000000       0.222
 
 position of ions in fractional coordinates (direct lattice) 
   0.00000000  0.25000000  0.52500000
   0.00000000  0.50000000  0.52500000
   0.00000000  0.75000000  0.52500000
   0.00000000  0.00000000  0.52500000
   0.25000000  0.25000000  0.52500000
   0.25000000  0.50000000  0.52500000
   0.25000000  0.75000000  0.52500000
   0.25000000  0.00000000  0.52500000
   0.50000000  0.25000000  0.52500000
   0.50000000  0.50000000  0.52500000
   0.50000000  0.75000000  0.52500000
   0.50000000  0.00000000  0.52500000
   0.75000000  0.25000000  0.52500000
   0.75000000  0.50000000  0.52500000
   0.75000000  0.75000000  0.52500000
   0.75000000  0.00000000  0.52500000
   0.12500000  0.12500000  0.57500000
   0.12500000  0.37500000  0.57500000
   0.12500000  0.62500000  0.57500000
   0.12500000  0.87500000  0.57500000
   0.37500000  0.12500000  0.57500000
   0.37500000  0.37500000  0.57500000
   0.37500000  0.62500000  0.57500000
   0.37500000  0.87500000  0.57500000
   0.62500000  0.12500000  0.57500000
   0.62500000  0.37500000  0.57500000
   0.62500000  0.62500000  0.57500000
   0.62500000  0.87500000  0.57500000
   0.87500000  0.12500000  0.57500000
   0.87500000  0.37500000  0.57500000
   0.87500000  0.62500000  0.57500000
   0.87500000  0.87500000  0.57500000
   0.25000000  0.00000000  0.42500000
   0.25000000  0.25000000  0.42500000
   0.25000000  0.50000000  0.42500000
   0.25000000  0.75000000  0.42500000
   0.50000000  0.00000000  0.42500000
   0.50000000  0.25000000  0.42500000
   0.50000000  0.50000000  0.42500000
   0.50000000  0.75000000  0.42500000
   0.75000000  0.00000000  0.42500000
   0.75000000  0.25000000  0.42500000
   0.75000000  0.50000000  0.42500000
   0.75000000  0.75000000  0.42500000
   0.00000000  0.00000000  0.42500000
   0.00000000  0.25000000  0.42500000
   0.00000000  0.50000000  0.42500000
   0.00000000  0.75000000  0.42500000
   0.12500000  0.12500000  0.47500000
   0.12500000  0.37500000  0.47500000
   0.12500000  0.62500000  0.47500000
   0.12500000  0.87500000  0.47500000
   0.37500000  0.12500000  0.47500000
   0.37500000  0.37500000  0.47500000
   0.37500000  0.62500000  0.47500000
   0.37500000  0.87500000  0.47500000
   0.62500000  0.12500000  0.47500000
   0.62500000  0.37500000  0.47500000
   0.62500000  0.62500000  0.47500000
   0.62500000  0.87500000  0.47500000
   0.87500000  0.12500000  0.47500000
   0.87500000  0.37500000  0.47500000
   0.87500000  0.62500000  0.47500000
   0.87500000  0.87500000  0.47500000
 
 position of ions in cartesian coordinates  (Angst):
  -0.00000000  2.76995050 20.56583324
  -0.00000000  5.53990101 20.56583324
  -0.00000000  8.30985151 20.56583324
   0.00000000  0.00000000 20.56583324
   2.76995050  2.76995050 20.56583324
   2.76995050  5.53990101 20.56583324
   2.76995050  8.30985151 20.56583324
   2.76995050  0.00000000 20.56583324
   5.53990101  2.76995050 20.56583324
   5.53990101  5.53990101 20.56583324
   5.53990101  8.30985151 20.56583324
   5.53990101  0.00000000 20.56583324
   8.30985151  2.76995050 20.56583324
   8.30985151  5.53990101 20.56583324
   8.30985151  8.30985151 20.56583324
   8.30985151  0.00000000 20.56583324
   1.38497525  1.38497525 22.52448403
   1.38497525  4.15492576 22.52448403
   1.38497525  6.92487626 22.52448403
   1.38497525  9.69482676 22.52448403
   4.15492576  1.38497525 22.52448403
   4.15492576  4.15492576 22.52448403
   4.15492576  6.92487626 22.52448403
   4.15492576  9.69482676 22.52448403
   6.92487626  1.38497525 22.52448403
   6.92487626  4.15492576 22.52448403
   6.92487626  6.92487626 22.52448403
   6.92487626  9.69482676 22.52448403
   9.69482676  1.38497525 22.52448403
   9.69482676  4.15492576 22.52448403
   9.69482676  6.92487626 22.52448403
   9.69482676  9.69482676 22.52448403
   2.76995050  0.00000000 16.64853167
   2.76995050  2.76995050 16.64853167
   2.76995050  5.53990101 16.64853167
   2.76995050  8.30985151 16.64853167
   5.53990101  0.00000000 16.64853167
   5.53990101  2.76995050 16.64853167
   5.53990101  5.53990101 16.64853167
   5.53990101  8.30985151 16.64853167
   8.30985151  0.00000000 16.64853167
   8.30985151  2.76995050 16.64853167
   8.30985151  5.53990101 16.64853167
   8.30985151  8.30985151 16.64853167
   0.00000000  0.00000000 16.64853167
  -0.00000000  2.76995050 16.64853167
  -0.00000000  5.53990101 16.64853167
  -0.00000000  8.30985151 16.64853167
   1.38497525  1.38497525 18.60718246
   1.38497525  4.15492576 18.60718246
   1.38497525  6.92487626 18.60718246
   1.38497525  9.69482676 18.60718246
   4.15492576  1.38497525 18.60718246
   4.15492576  4.15492576 18.60718246
   4.15492576  6.92487626 18.60718246
   4.15492576  9.69482676 18.60718246
   6.92487626  1.38497525 18.60718246
   6.92487626  4.15492576 18.60718246
   6.92487626  6.92487626 18.60718246
   6.92487626  9.69482676 18.60718246
   9.69482676  1.38497525 18.60718246
   9.69482676  4.15492576 18.60718246
   9.69482676  6.92487626 18.60718246
   9.69482676  9.69482676 18.60718246
 


--------------------------------------------------------------------------------------------------------


 k-point   1 :   0.0000 0.0000 0.0000  plane waves:  122103
 k-point   2 :   0.3333 0.0000 0.0000  plane waves:  122036
 k-point   3 :   0.0000 0.3333 0.0000  plane waves:  122036
 k-point   4 :   0.3333 0.3333 0.0000  plane waves:  122170
 k-point   5 :  -0.3333 0.3333 0.0000  plane waves:  122170

 maximum and minimum number of plane-waves per node :    122170   122036

 maximum number of plane-waves:    122170
 maximum index in each direction: 
   IXMAX=   20   IYMAX=   20   IZMAX=   71
   IXMIN=  -20   IYMIN=  -20   IZMIN=  -71


 serial   3D FFT for wavefunctions
 parallel 3D FFT for charge:
    minimum data exchange during FFTs selected (reduces bandwidth)


 total amount of memory used by VASP MPI-rank0  1040630. kBytes
=======================================================================

   base      :      30000. kBytes
   nonlr-proj:      54412. kBytes
   fftplans  :      43681. kBytes
   grid      :     239643. kBytes
   one-center:       1990. kBytes
   wavefun   :     670904. kBytes
 
     INWAV:  cpu time      0.0009: real time      0.0010
 Broyden mixing: mesh for mixing (old mesh)
   NGX = 41   NGY = 41   NGZ =143
  (NGX  =168   NGY  =168   NGZ  =576)
  gives a total of 240383 points

 initial charge density was supplied:
 charge density of overlapping atoms calculated
 number of electron     640.0000000 magnetization     320.0000000
 keeping initial charge density in first step


--------------------------------------------------------------------------------------------------------


 Maximum index for non-local projection operator           619
 Maximum index for augmentation-charges          1655 (set IRDMAX)


--------------------------------------------------------------------------------------------------------


 First call to EWALD:  gamma=   0.105
 Maximum number of real-space cells 4x 4x 1
 Maximum number of reciprocal cells 2x 2x 6

    FEWALD:  cpu time      0.0091: real time      0.0014


--------------------------------------- Iteration      1(   1)  ---------------------------------------


    POTLOK:  cpu time      2.0332: real time      1.0483
    SETDIJ:  cpu time      4.2584: real time      0.5351
     EDDAV:  cpu time    397.9196: real time     55.9441
       DOS:  cpu time      0.0022: real time      0.0022
    --------------------------------------------
      LOOP:  cpu time    404.2135: real time     57.5298

 eigenvalue-minimisations  : 10880
 total energy-change (2. order) : 0.4213026E+04  (-0.2526304E+05)
 number of electron     640.0000000 magnetization     320.0000000
 augmentation part      640.0000000 magnetization     320.0000000

 Free energy of the ion-electron system (eV)
  ---------------------------------------------------
  alpha Z        PSCENC =       555.12588720
  Ewald energy   TEWEN  =    586952.44168828
  -Hartree energ DENC   =   -638392.22844428
  -exchange      EXHF   =         0.00000000
  -V(xc)+E(xc)   XCENC  =     -1734.57114755
  PAW double counting   =     51483.32861702   -47512.25954523
  entropy T*S    EENTRO =         0.00701711
  eigenvalues    EBANDS =      1037.30298848
  atomic energy  EATOM  =     51823.87853440
  Solvation  Ediel_sol  =         0.00000000
  ---------------------------------------------------
  free energy    TOTEN  =      4213.02559543 eV

  energy without entropy =     4213.01857833  energy(sigma->0) =     4213.02325640


--------------------------------------------------------------------------------------------------------




--------------------------------------- Iteration      1(   2)  ---------------------------------------


     EDDAV:  cpu time    462.1562: real time     68.1181
       DOS:  cpu time      0.0020: real time      0.0020
    --------------------------------------------
      LOOP:  cpu time    462.1583: real time     68.1201

 eigenvalue-minimisations  : 12608
 total energy-change (2. order) :-0.4147149E+04  (-0.3742085E+04)
 number of electron     640.0000000 magnetization     320.0000000
 augmentation part      640.0000000 magnetization     320.0000000

 Free energy of the ion-electron system (eV)
  ---------------------------------------------------
  alpha Z        PSCENC =       555.12588720
  Ewald energy   TEWEN  =    586952.44168828
  -Hartree energ DENC   =   -638392.22844428
  -exchange      EXHF   =         0.00000000
  -V(xc)+E(xc)   XCENC  =     -1734.57114755
  PAW double counting   =     51483.32861702   -47512.25954523
  entropy T*S    EENTRO =        -0.00378382
  eigenvalues    EBANDS =     -3109.83517069
  atomic energy  EATOM  =     51823.87853440
  Solvation  Ediel_sol  =         0.00000000
  ---------------------------------------------------
  free energy    TOTEN  =        65.87663533 eV

  energy without entropy =       65.88041915  energy(sigma->0) =       65.87789661


--------------------------------------------------------------------------------------------------------




--------------------------------------- Iteration      1(   3)  ---------------------------------------


     EDDAV:  cpu time    459.9656: real time     68.7360
       DOS:  cpu time      0.0021: real time      0.0021
    --------------------------------------------
      LOOP:  cpu time    459.9677: real time     68.7381

 eigenvalue-minimisations  : 12448
 total energy-change (2. order) :-0.2175263E+03  (-0.2078954E+03)
 number of electron     640.0000000 magnetization     320.0000000
 augmentation part      640.0000000 magnetization     320.0000000

 Free energy of the ion-electron system (eV)
  ---------------------------------------------------
  alpha Z        PSCENC =       555.12588720
  Ewald energy   TEWEN  =    586952.44168828
  -Hartree energ DENC   =   -638392.22844428
  -exchange      EXHF   =         0.00000000
  -V(xc)+E(xc)   XCENC  =     -1734.57114755
  PAW double counting   =     51483.32861702   -47512.25954523
  entropy T*S    EENTRO =        -0.03824800
  eigenvalues    EBANDS =     -3327.32704507
  atomic energy  EATOM  =     51823.87853440
  Solvation  Ediel_sol  =         0.00000000
  ---------------------------------------------------
  free energy    TOTEN  =      -151.64970322 eV

  energy without entropy =     -151.61145522  energy(sigma->0) =     -151.63695389


--------------------------------------------------------------------------------------------------------




--------------------------------------- Iteration      1(   4)  ---------------------------------------


     EDDAV:  cpu time    491.4222: real time     73.1393
       DOS:  cpu time      0.0020: real time      0.0020
    --------------------------------------------
      LOOP:  cpu time    491.4242: real time     73.1413

 eigenvalue-minimisations  : 13568
 total energy-change (2. order) :-0.3115875E+01  (-0.3112781E+01)
 number of electron     640.0000000 magnetization     320.0000000
 augmentation part      640.0000000 magnetization     320.0000000

 Free energy of the ion-electron system (eV)
  ---------------------------------------------------
  alpha Z        PSCENC =       555.12588720
  Ewald energy   TEWEN  =    586952.44168828
  -Hartree energ DENC   =   -638392.22844428
  -exchange      EXHF   =         0.00000000
  -V(xc)+E(xc)   XCENC  =     -1734.57114755
  PAW double counting   =     51483.32861702   -47512.25954523
  entropy T*S    EENTRO =        -0.03793919
  eigenvalues    EBANDS =     -3330.44322880
  atomic energy  EATOM  =     51823.87853440
  Solvation  Ediel_sol  =         0.00000000
  ---------------------------------------------------
  free energy    TOTEN  =      -154.76557814 eV

  energy without entropy =     -154.72763895  energy(sigma->0) =     -154.75293174


--------------------------------------------------------------------------------------------------------




--------------------------------------- Iteration      1(   5)  ---------------------------------------


     EDDAV:  cpu time    523.3916: real time     77.6905
       DOS:  cpu time      0.0022: real time      0.0022
    CHARGE:  cpu time     15.8671: real time      2.1659
    MIXING:  cpu time      0.0547: real time      0.0105
    --------------------------------------------
      LOOP:  cpu time    539.3157: real time     79.8690

 eigenvalue-minimisations  : 14672
 total energy-change (2. order) :-0.7722374E-01  (-0.7721929E-01)
 number of electron     639.9999977 magnetization     309.9857229
 augmentation part      255.2511709 magnetization     276.8478128

 Broyden mixing:
  rms(total) = 0.14239E+02    rms(broyden)= 0.14239E+02
  rms(prec ) = 0.14254E+02
  weight for this iteration     100.00

 Free energy of the ion-electron system (eV)
  ---------------------------------------------------
  alpha Z        PSCENC =       555.12588720
  Ewald energy   TEWEN  =    586952.44168828
  -Hartree energ DENC   =   -638392.22844428
  -exchange      EXHF   =         0.00000000
  -V(xc)+E(xc)   XCENC  =     -1734.57114755
  PAW double counting   =     51483.32861702   -47512.25954523
  entropy T*S    EENTRO =        -0.03790965
  eigenvalues    EBANDS =     -3330.52048207
  atomic energy  EATOM  =     51823.87853440
  Solvation  Ediel_sol  =         0.00000000
  ---------------------------------------------------
  free energy    TOTEN  =      -154.84280188 eV

  energy without entropy =     -154.80489222  energy(sigma->0) =     -154.83016533


--------------------------------------------------------------------------------------------------------




--------------------------------------- Iteration      1(   6)  ---------------------------------------


    POTLOK:  cpu time      1.9677: real time      0.9225
    SETDIJ:  cpu time      4.4552: real time      0.5637
    EDDIAG:  cpu time     67.1447: real time     10.5203
  RMM-DIIS:  cpu time    226.9299: real time     29.3376
    ORTHCH:  cpu time     10.3656: real time      2.0981
       DOS:  cpu time      0.0010: real time      0.0010
    CHARGE:  cpu time     14.8280: real time      2.0779
    MIXING:  cpu time      0.0435: real time      0.0094
    --------------------------------------------
      LOOP:  cpu time    325.7356: real time     45.5306

 eigenvalue-minimisations  : 10880
 total energy-change (2. order) : 0.7980105E+03  (-0.1589937E+03)
 number of electron     639.9999977 magnetization     303.3255550
 augmentation part      294.9730880 magnetization     229.6941657

 Broyden mixing:
  rms(total) = 0.11700E+02    rms(broyden)= 0.11700E+02
  rms(prec ) = 0.11728E+02
  weight for this iteration     100.00

 eigenvalues of (default mixing * dielectric matrix)
  average eigenvalue GAMMA=   0.7259
  0.7259

 Free energy of the ion-electron system (eV)
  ---------------------------------------------------
  alpha Z        PSCENC =       555.12588720
  Ewald energy   TEWEN  =    586952.44168828
  -Hartree energ DENC   =   -638000.21988977
  -exchange      EXHF   =         0.00000000
  -V(xc)+E(xc)   XCENC  =     -1373.92996833
  PAW double counting   =     54889.05941048   -50999.40461288
  entropy T*S    EENTRO =        -0.10403068
  eigenvalues    EBANDS =     -3203.67927062
  atomic energy  EATOM  =     51823.87853440
  Solvation  Ediel_sol  =         0.00000000
  ---------------------------------------------------
  free energy    TOTEN  =       643.16774809 eV

  energy without entropy =      643.27177877  energy(sigma->0) =      643.20242498


--------------------------------------------------------------------------------------------------------




--------------------------------------- Iteration      1(   7)  ---------------------------------------


    POTLOK:  cpu time      1.8241: real time      0.8567
    SETDIJ:  cpu time      4.1802: real time      0.5306
    EDDIAG:  cpu time     66.2319: real time     10.0192
  RMM-DIIS:  cpu time    227.1126: real time     29.3018
    ORTHCH:  cpu time     10.3896: real time      2.1431
       DOS:  cpu time      0.0012: real time      0.0012
    CHARGE:  cpu time     14.9901: real time      2.1068
    MIXING:  cpu time      0.0470: real time      0.0098
    --------------------------------------------
      LOOP:  cpu time    324.7767: real time     44.9691

 eigenvalue-minimisations  : 10880
 total energy-change (2. order) : 0.9169698E+02  (-0.1072974E+02)
 number of electron     639.9999979 magnetization     294.5997283
 augmentation part      288.8295510 magnetization     209.1714575

 Broyden mixing:
  rms(total) = 0.87682E+01    rms(broyden)= 0.87682E+01
  rms(prec ) = 0.88276E+01
  weight for this iteration     100.00

 eigenvalues of (default mixing * dielectric matrix)
  average eigenvalue GAMMA=   0.7939
  1.0085  0.5792

 Free energy of the ion-electron system (eV)
  ---------------------------------------------------
  alpha Z        PSCENC =       555.12588720
  Ewald energy   TEWEN  =    586952.44168828
  -Hartree energ DENC   =   -638726.17121640
  -exchange      EXHF   =         0.00000000
  -V(xc)+E(xc)   XCENC  =     -1322.34031386
  PAW double counting   =     57430.34678880   -53528.60017934
  entropy T*S    EENTRO =        -0.02264491
  eigenvalues    EBANDS =     -2449.79382033
  atomic energy  EATOM  =     51823.87853440
  Solvation  Ediel_sol  =         0.00000000
  ---------------------------------------------------
  free energy    TOTEN  =       734.86472384 eV

  energy without entropy =      734.88736875  energy(sigma->0) =      734.87227214


--------------------------------------------------------------------------------------------------------




--------------------------------------- Iteration      1(   8)  ---------------------------------------


    POTLOK:  cpu time      1.8323: real time      0.8598
    SETDIJ:  cpu time      4.1961: real time      0.5309
    EDDIAG:  cpu time     66.2351: real time     10.0811
  RMM-DIIS:  cpu time    227.8402: real time     29.1193
    ORTHCH:  cpu time     10.3596: real time      2.0934
       DOS:  cpu time      0.0011: real time      0.0011
    CHARGE:  cpu time     15.2145: real time      2.1485
    MIXING:  cpu time      0.0497: real time      0.0099
    --------------------------------------------
      LOOP:  cpu time    325.7286: real time     44.8441

 eigenvalue-minimisations  : 10900
 total energy-change (2. order) :-0.1057960E+03  (-0.1129516E+02)
 number of electron     639.9999981 magnetization     288.3550813
 augmentation part      277.1542250 magnetization     194.1210122

 Broyden mixing:
  rms(total) = 0.10843E+02    rms(broyden)= 0.10842E+02
  rms(prec ) = 0.11169E+02
  weight for this iteration     100.00

 eigenvalues of (default mixing * dielectric matrix)
  average eigenvalue GAMMA=   0.6566
  1.0749  0.5927  0.3022

 Free energy of the ion-electron system (eV)
  ---------------------------------------------------
  alpha Z        PSCENC =       555.12588720
  Ewald energy   TEWEN  =    586952.44168828
  -Hartree energ DENC   =   -638615.76074400
  -exchange      EXHF   =         0.00000000
  -V(xc)+E(xc)   XCENC  =     -1332.53003825
  PAW double counting   =     59971.60914622   -56065.82548343
  entropy T*S    EENTRO =        -0.03867345
  eigenvalues    EBANDS =     -2659.83162499
  atomic energy  EATOM  =     51823.87853440
  Solvation  Ediel_sol  =         0.00000000
  ---------------------------------------------------
  free energy    TOTEN  =       629.06869200 eV

  energy without entropy =      629.10736545  energy(sigma->0) =      629.08158315


--------------------------------------------------------------------------------------------------------




--------------------------------------- Iteration      1(   9)  ---------------------------------------


    POTLOK:  cpu time      1.8278: real time      0.8648
    SETDIJ:  cpu time      4.2180: real time      0.5306
    EDDIAG:  cpu time     66.9450: real time     10.1531
  RMM-DIIS:  cpu time    229.5897: real time     29.3395
    ORTHCH:  cpu time     10.5719: real time      2.3157
       DOS:  cpu time      0.0009: real time      0.0009
    CHARGE:  cpu time     15.3976: real time      2.1968
    MIXING:  cpu time      0.0486: real time      0.0104
    --------------------------------------------
      LOOP:  cpu time    328.5995: real time     45.4118

 eigenvalue-minimisations  : 10901
 total energy-change (2. order) :-0.1161397E+03  (-0.7096995E+01)
 number of electron     639.9999981 magnetization     285.8713348
 augmentation part      272.9160610 magnetization     190.2407294

 Broyden mixing:
  rms(total) = 0.10938E+02    rms(broyden)= 0.10938E+02
  rms(prec ) = 0.11946E+02
  weight for this iteration     100.00

 eigenvalues of (default mixing * dielectric matrix)
  average eigenvalue GAMMA=   0.5475
  1.0560  0.5918  0.2712  0.2712

 Free energy of the ion-electron system (eV)
  ---------------------------------------------------
  alpha Z        PSCENC =       555.12588720
  Ewald energy   TEWEN  =    586952.44168828
  -Hartree energ DENC   =   -638978.92950237
  -exchange      EXHF   =         0.00000000
  -V(xc)+E(xc)   XCENC  =     -1386.34292773
  PAW double counting   =     61462.22532645   -57567.24435276
  entropy T*S    EENTRO =        -0.01834406
  eigenvalues    EBANDS =     -2348.20730103
  atomic energy  EATOM  =     51823.87853440
  Solvation  Ediel_sol  =         0.00000000
  ---------------------------------------------------
  free energy    TOTEN  =       512.92900837 eV

  energy without entropy =      512.94735243  energy(sigma->0) =      512.93512306


--------------------------------------------------------------------------------------------------------




--------------------------------------- Iteration      1(  10)  ---------------------------------------


    POTLOK:  cpu time      2.0809: real time      0.9207
    SETDIJ:  cpu time      4.2666: real time      0.5540
    EDDIAG:  cpu time     67.9523: real time     10.5105
  RMM-DIIS:  cpu time    229.8779: real time     29.4675
    ORTHCH:  cpu time     11.5871: real time      2.4307
       DOS:  cpu time      0.0011: real time      0.0011
    CHARGE:  cpu time     15.3922: real time      2.1767
    MIXING:  cpu time      0.0506: real time      0.0105
    --------------------------------------------
      LOOP:  cpu time    331.2086: real time     46.0717

 eigenvalue-minimisations  : 10901
 total energy-change (2. order) :-0.1852881E+02  (-0.6552664E+01)
 number of electron     639.9999980 magnetization     277.9635356
 augmentation part      273.1728585 magnetization     191.4256233

 Broyden mixing:
  rms(total) = 0.85023E+01    rms(broyden)= 0.85022E+01
  rms(prec ) = 0.92625E+01
  weight for this iteration     100.00

 eigenvalues of (default mixing * dielectric matrix)
  average eigenvalue GAMMA=   0.6398
  0.9871  0.9871  0.7189  0.3720  0.1339

 Free energy of the ion-electron system (eV)
  ---------------------------------------------------
  alpha Z        PSCENC =       555.12588720
  Ewald energy   TEWEN  =    586952.44168828
  -Hartree energ DENC   =   -639074.12262206
  -exchange      EXHF   =         0.00000000
  -V(xc)+E(xc)   XCENC  =     -1416.90909561
  PAW double counting   =     61843.35774202   -57954.85554931
  entropy T*S    EENTRO =        -0.00555277
  eigenvalues    EBANDS =     -2234.51083035
  atomic energy  EATOM  =     51823.87853440
  Solvation  Ediel_sol  =         0.00000000
  ---------------------------------------------------
  free energy    TOTEN  =       494.40020179 eV

  energy without entropy =      494.40575456  energy(sigma->0) =      494.40205271


--------------------------------------------------------------------------------------------------------




--------------------------------------- Iteration      1(  11)  ---------------------------------------


    POTLOK:  cpu time      1.8832: real time      0.8880
    SETDIJ:  cpu time      4.2240: real time      0.5610
    EDDIAG:  cpu time     67.8050: real time     10.6249
  RMM-DIIS:  cpu time    229.4346: real time     29.5760
    ORTHCH:  cpu time     11.0788: real time      2.3947
       DOS:  cpu time      0.0010: real time      0.0010
    CHARGE:  cpu time     14.9865: real time      2.1353
    MIXING:  cpu time      0.0533: real time      0.0117
    --------------------------------------------
      LOOP:  cpu time    329.4664: real time     46.1927

 eigenvalue-minimisations  : 10906
 total energy-change (2. order) :-0.1585359E+03  (-0.8080807E+01)
 number of electron     639.9999979 magnetization     274.2831906
 augmentation part      271.3420155 magnetization     200.0737892

 Broyden mixing:
  rms(total) = 0.82535E+01    rms(broyden)= 0.82535E+01
  rms(prec ) = 0.85188E+01
  weight for this iteration     100.00

 eigenvalues of (default mixing * dielectric matrix)
  average eigenvalue GAMMA=   0.6335
  1.1708  1.1708  0.7172  0.3073  0.3073  0.1274

 Free energy of the ion-electron system (eV)
  ---------------------------------------------------
  alpha Z        PSCENC =       555.12588720
  Ewald energy   TEWEN  =    586952.44168828
  -Hartree energ DENC   =   -639143.66204078
  -exchange      EXHF   =         0.00000000
  -V(xc)+E(xc)   XCENC  =     -1500.21358613
  PAW double counting   =     62487.68944104   -58616.11494193
  entropy T*S    EENTRO =         0.01607702
  eigenvalues    EBANDS =     -2223.29678969
  atomic energy  EATOM  =     51823.87853440
  Solvation  Ediel_sol  =         0.00000000
  ---------------------------------------------------
  free energy    TOTEN  =       335.86426941 eV

  energy without entropy =      335.84819239  energy(sigma->0) =      335.85891040


--------------------------------------------------------------------------------------------------------




--------------------------------------- Iteration      1(  12)  ---------------------------------------


    POTLOK:  cpu time      1.8511: real time      0.8882
    SETDIJ:  cpu time      4.2500: real time      0.5603
    EDDIAG:  cpu time     67.8411: real time     10.4934
  RMM-DIIS:  cpu time    229.9611: real time     29.5884
    ORTHCH:  cpu time     11.3610: real time      2.6506
       DOS:  cpu time      0.0010: real time      0.0010
    CHARGE:  cpu time     14.9457: real time      2.1581
    MIXING:  cpu time      0.0557: real time      0.0116
    --------------------------------------------
      LOOP:  cpu time    330.2667: real time     46.3516

 eigenvalue-minimisations  : 10906
 total energy-change (2. order) :-0.4206109E+02  (-0.3060062E+01)
 number of electron     639.9999978 magnetization     270.8430099
 augmentation part      270.8668378 magnetization     202.3287544

 Broyden mixing:
  rms(total) = 0.72451E+01    rms(broyden)= 0.72451E+01
  rms(prec ) = 0.74801E+01
  weight for this iteration     100.00

 eigenvalues of (default mixing * dielectric matrix)
  average eigenvalue GAMMA=   0.5980
  1.2291  1.2291  0.7191  0.3578  0.3578  0.1700  0.1231

 Free energy of the ion-electron system (eV)
  ---------------------------------------------------
  alpha Z        PSCENC =       555.12588720
  Ewald energy   TEWEN  =    586952.44168828
  -Hartree energ DENC   =   -639020.45589105
  -exchange      EXHF   =         0.00000000
  -V(xc)+E(xc)   XCENC  =     -1524.77849206
  PAW double counting   =     62714.56789206   -58850.98737451
  entropy T*S    EENTRO =         0.01664555
  eigenvalues    EBANDS =     -2356.00570987
  atomic energy  EATOM  =     51823.87853440
  Solvation  Ediel_sol  =         0.00000000
  ---------------------------------------------------
  free energy    TOTEN  =       293.80317999 eV

  energy without entropy =      293.78653444  energy(sigma->0) =      293.79763147


--------------------------------------------------------------------------------------------------------




--------------------------------------- Iteration      1(  13)  ---------------------------------------


    POTLOK:  cpu time      1.9506: real time      0.8802
    SETDIJ:  cpu time      4.3895: real time      0.5555
    EDDIAG:  cpu time     67.9213: real time     10.6678
  RMM-DIIS:  cpu time    230.4197: real time     29.3865
    ORTHCH:  cpu time     11.0604: real time      2.4032
       DOS:  cpu time      0.0011: real time      0.0011
    CHARGE:  cpu time     14.9182: real time      2.1243
    MIXING:  cpu time      0.0537: real time      0.0122
    --------------------------------------------
      LOOP:  cpu time    330.7144: real time     46.0309

 eigenvalue-minimisations  : 10908
 total energy-change (2. order) :-0.2789290E+02  (-0.1930347E+01)
 number of electron     639.9999978 magnetization     267.5834365
 augmentation part      271.0658636 magnetization     204.3811554

 Broyden mixing:
  rms(total) = 0.53922E+01    rms(broyden)= 0.53922E+01
  rms(prec ) = 0.54408E+01
  weight for this iteration     100.00

 eigenvalues of (default mixing * dielectric matrix)
  average eigenvalue GAMMA=   0.5756
  1.1811  1.1811  0.7470  0.4164  0.4164  0.3613  0.1247  0.1764

 Free energy of the ion-electron system (eV)
  ---------------------------------------------------
  alpha Z        PSCENC =       555.12588720
  Ewald energy   TEWEN  =    586952.44168828
  -Hartree energ DENC   =   -638908.56530685
  -exchange      EXHF   =         0.00000000
  -V(xc)+E(xc)   XCENC  =     -1546.38649089
  PAW double counting   =     62829.05422100   -58971.59040795
  entropy T*S    EENTRO =        -0.02423362
  eigenvalues    EBANDS =     -2468.02360720
  atomic energy  EATOM  =     51823.87853440
  Solvation  Ediel_sol  =         0.00000000
  ---------------------------------------------------
  free energy    TOTEN  =       265.91028437 eV

  energy without entropy =      265.93451799  energy(sigma->0) =      265.91836225


--------------------------------------------------------------------------------------------------------




--------------------------------------- Iteration      1(  14)  ---------------------------------------


    POTLOK:  cpu time      1.8964: real time      0.9047
    SETDIJ:  cpu time      4.2791: real time      0.5619
    EDDIAG:  cpu time     68.4194: real time     10.7957
  RMM-DIIS:  cpu time    230.0027: real time     29.4401
    ORTHCH:  cpu time     11.1172: real time      2.4108
       DOS:  cpu time      0.0011: real time      0.0011
    CHARGE:  cpu time     15.0631: real time      2.1277
    MIXING:  cpu time      0.0543: real time      0.0123
    --------------------------------------------
      LOOP:  cpu time    330.8333: real time     46.2543

 eigenvalue-minimisations  : 10894
 total energy-change (2. order) :-0.3971106E+02  (-0.1045070E+01)
 number of electron     639.9999978 magnetization     265.2531444
 augmentation part      270.6073474 magnetization     204.8223459

 Broyden mixing:
  rms(total) = 0.52551E+01    rms(broyden)= 0.52551E+01
  rms(prec ) = 0.53023E+01
  weight for this iteration     100.00

 eigenvalues of (default mixing * dielectric matrix)
  average eigenvalue GAMMA=   0.5812
  1.2215  1.2215  0.9115  0.6460  0.3915  0.3915  0.1769  0.1250  0.1457

 Free energy of the ion-electron system (eV)
  ---------------------------------------------------
  alpha Z        PSCENC =       555.12588720
  Ewald energy   TEWEN  =    586952.44168828
  -Hartree energ DENC   =   -638925.95455355
  -exchange      EXHF   =         0.00000000
  -V(xc)+E(xc)   XCENC  =     -1564.49643976
  PAW double counting   =     62774.47242865   -58918.77086931
  entropy T*S    EENTRO =        -0.04536197
  eigenvalues    EBANDS =     -2470.45209010
  atomic energy  EATOM  =     51823.87853440
  Solvation  Ediel_sol  =         0.00000000
  ---------------------------------------------------
  free energy    TOTEN  =       226.19922385 eV

  energy without entropy =      226.24458581  energy(sigma->0) =      226.21434450


--------------------------------------------------------------------------------------------------------




--------------------------------------- Iteration      1(  15)  ---------------------------------------


    POTLOK:  cpu time      1.8508: real time      0.8942
    SETDIJ:  cpu time      4.2884: real time      0.5431
    EDDIAG:  cpu time     68.7594: real time     10.6510
  RMM-DIIS:  cpu time    228.5102: real time     29.5545
    ORTHCH:  cpu time     11.0967: real time      2.4436
       DOS:  cpu time      0.0012: real time      0.0012
    CHARGE:  cpu time     15.0836: real time      2.1365
    MIXING:  cpu time      0.0558: real time      0.0130
    --------------------------------------------
      LOOP:  cpu time    329.6462: real time     46.2371

 eigenvalue-minimisations  : 10894
 total energy-change (2. order) :-0.2325922E+02  (-0.4555044E+00)
 number of electron     639.9999978 magnetization     260.2866483
 augmentation part      270.3101314 magnetization     201.5983335

 Broyden mixing:
  rms(total) = 0.49928E+01    rms(broyden)= 0.49928E+01
  rms(prec ) = 0.50198E+01
  weight for this iteration     100.00

 eigenvalues of (default mixing * dielectric matrix)
  average eigenvalue GAMMA=   0.5956
  1.4072  1.4072  0.9873  0.6506  0.3855  0.3855  0.3180  0.1750  0.1264  0.1131

 Free energy of the ion-electron system (eV)
  ---------------------------------------------------
  alpha Z        PSCENC =       555.12588720
  Ewald energy   TEWEN  =    586952.44168828
  -Hartree energ DENC   =   -638970.89639205
  -exchange      EXHF   =         0.00000000
  -V(xc)+E(xc)   XCENC  =     -1575.66377613
  PAW double counting   =     62690.01309716   -58834.78554191
  entropy T*S    EENTRO =        -0.04737316
  eigenvalues    EBANDS =     -2437.12611896
  atomic energy  EATOM  =     51823.87853440
  Solvation  Ediel_sol  =         0.00000000
  ---------------------------------------------------
  free energy    TOTEN  =       202.94000483 eV

  energy without entropy =      202.98737798  energy(sigma->0) =      202.95579588


--------------------------------------------------------------------------------------------------------




--------------------------------------- Iteration      1(  16)  ---------------------------------------


    POTLOK:  cpu time      1.8975: real time      0.8981
    SETDIJ:  cpu time      4.3602: real time      0.5598
    EDDIAG:  cpu time     69.0984: real time     10.7217
  RMM-DIIS:  cpu time    233.9998: real time     29.7249
    ORTHCH:  cpu time     11.3246: real time      2.6821
       DOS:  cpu time      0.0010: real time      0.0010
    CHARGE:  cpu time     15.2072: real time      2.1178
    MIXING:  cpu time      0.0563: real time      0.0134
    --------------------------------------------
      LOOP:  cpu time    335.9450: real time     46.7189

 eigenvalue-minimisations  : 10945
 total energy-change (2. order) :-0.4685604E+02  (-0.1175585E+01)
 number of electron     639.9999978 magnetization     245.8117840
 augmentation part      270.1327813 magnetization     190.0483893

 Broyden mixing:
  rms(total) = 0.53298E+01    rms(broyden)= 0.53298E+01
  rms(prec ) = 0.54196E+01
  weight for this iteration     100.00

 eigenvalues of (default mixing * dielectric matrix)
  average eigenvalue GAMMA=   0.6160
  1.6260  1.6260  0.9627  0.6003  0.6003  0.3808  0.3808  0.1920  0.1675  0.1214
  0.1178

 Free energy of the ion-electron system (eV)
  ---------------------------------------------------
  alpha Z        PSCENC =       555.12588720
  Ewald energy   TEWEN  =    586952.44168828
  -Hartree energ DENC   =   -639052.16141188
  -exchange      EXHF   =         0.00000000
  -V(xc)+E(xc)   XCENC  =     -1596.95755120
  PAW double counting   =     62464.76527361   -58611.09054456
  entropy T*S    EENTRO =        -0.01186638
  eigenvalues    EBANDS =     -2379.90604338
  atomic energy  EATOM  =     51823.87853440
  Solvation  Ediel_sol  =         0.00000000
  ---------------------------------------------------
  free energy    TOTEN  =       156.08396609 eV

  energy without entropy =      156.09583248  energy(sigma->0) =      156.08792155


--------------------------------------------------------------------------------------------------------




--------------------------------------- Iteration      1(  17)  ---------------------------------------


    POTLOK:  cpu time      1.8465: real time      0.9035
    SETDIJ:  cpu time      4.2741: real time      0.5431
    EDDIAG:  cpu time     66.9971: real time     10.1657
  RMM-DIIS:  cpu time    270.2691: real time     34.5160
    ORTHCH:  cpu time     10.4712: real time      2.1616
       DOS:  cpu time      0.0012: real time      0.0012
    CHARGE:  cpu time     15.0433: real time      2.0955
    MIXING:  cpu time      0.0574: real time      0.0137
    --------------------------------------------
      LOOP:  cpu time    368.9597: real time     50.4003

 eigenvalue-minimisations  : 12600
 total energy-change (2. order) :-0.8171719E+02  (-0.4036901E+01)
 number of electron     639.9999979 magnetization     217.0860741
 augmentation part      271.8000980 magnetization     166.6788492

 Broyden mixing:
  rms(total) = 0.55801E+01    rms(broyden)= 0.55800E+01
  rms(prec ) = 0.57189E+01
  weight for this iteration     100.00

 eigenvalues of (default mixing * dielectric matrix)
  average eigenvalue GAMMA=   0.6712
  1.9704  1.9704  0.9260  0.7509  0.7509  0.3882  0.3882  0.3389  0.1683  0.1636
  0.1249  0.1132

 Free energy of the ion-electron system (eV)
  ---------------------------------------------------
  alpha Z        PSCENC =       555.12588720
  Ewald energy   TEWEN  =    586952.44168828
  -Hartree energ DENC   =   -639203.51188923
  -exchange      EXHF   =         0.00000000
  -V(xc)+E(xc)   XCENC  =     -1643.60921241
  PAW double counting   =     61904.95187451   -58058.30768615
  entropy T*S    EENTRO =        -0.01310973
  eigenvalues    EBANDS =     -2256.58931026
  atomic energy  EATOM  =     51823.87853440
  Solvation  Ediel_sol  =         0.00000000
  ---------------------------------------------------
  free energy    TOTEN  =        74.36677661 eV

  energy without entropy =       74.37988634  energy(sigma->0) =       74.37114652


--------------------------------------------------------------------------------------------------------




--------------------------------------- Iteration      1(  18)  ---------------------------------------


    POTLOK:  cpu time      1.8036: real time      0.8531
    SETDIJ:  cpu time      4.2889: real time      0.5396
    EDDIAG:  cpu time     67.2231: real time     10.2457
  RMM-DIIS:  cpu time    305.9848: real time     39.2292
    ORTHCH:  cpu time     10.4894: real time      2.1495
       DOS:  cpu time      0.0011: real time      0.0011
    CHARGE:  cpu time     15.0355: real time      2.0949
    MIXING:  cpu time      0.0590: real time      0.0144
    --------------------------------------------
      LOOP:  cpu time    404.8853: real time     55.1275

 eigenvalue-minimisations  : 14175
 total energy-change (2. order) :-0.9973634E+02  (-0.7578104E+01)
 number of electron     639.9999980 magnetization     199.7096548
 augmentation part      275.0893628 magnetization     159.9751738

 Broyden mixing:
  rms(total) = 0.58386E+01    rms(broyden)= 0.58386E+01
  rms(prec ) = 0.60406E+01
  weight for this iteration     100.00

 eigenvalues of (default mixing * dielectric matrix)
  average eigenvalue GAMMA=   0.6888
  1.7812  1.7462  1.7462  0.8021  0.8021  0.4956  0.3853  0.3853  0.2377  0.1747
  0.1607  0.1247  0.1130

 Free energy of the ion-electron system (eV)
  ---------------------------------------------------
  alpha Z        PSCENC =       555.12588720
  Ewald energy   TEWEN  =    586952.44168828
  -Hartree energ DENC   =   -639437.37836131
  -exchange      EXHF   =         0.00000000
  -V(xc)+E(xc)   XCENC  =     -1696.57109618
  PAW double counting   =     61144.29624875   -57311.50023936
  entropy T*S    EENTRO =         0.00593626
  eigenvalues    EBANDS =     -2055.66815882
  atomic energy  EATOM  =     51823.87853440
  Solvation  Ediel_sol  =         0.00000000
  ---------------------------------------------------
  free energy    TOTEN  =       -25.36956078 eV

  energy without entropy =      -25.37549704  energy(sigma->0) =      -25.37153953


--------------------------------------------------------------------------------------------------------




--------------------------------------- Iteration      1(  19)  ---------------------------------------


    POTLOK:  cpu time      1.8019: real time      0.8516
    SETDIJ:  cpu time      4.2266: real time      0.5355
    EDDIAG:  cpu time     67.2152: real time     10.2549
  RMM-DIIS:  cpu time    258.7671: real time     33.4913
    ORTHCH:  cpu time     12.2056: real time      2.6209
       DOS:  cpu time      0.0012: real time      0.0012
    CHARGE:  cpu time     15.3213: real time      2.1077
    MIXING:  cpu time      0.0621: real time      0.0153
    --------------------------------------------
      LOOP:  cpu time    359.6010: real time     49.8785

 eigenvalue-minimisations  : 12204
 total energy-change (2. order) :-0.4131449E+02  (-0.2108972E+01)
 number of electron     639.9999981 magnetization     192.4204295
 augmentation part      275.3536963 magnetization     155.9715635

 Broyden mixing:
  rms(total) = 0.63366E+01    rms(broyden)= 0.63366E+01
  rms(prec ) = 0.67243E+01
  weight for this iteration     100.00

 eigenvalues of (default mixing * dielectric matrix)
  average eigenvalue GAMMA=   0.7662
  3.9326  1.4147  1.4147  0.8358  0.6385  0.6385  0.3760  0.3760  0.3364  0.1822
  0.1822  0.1619  0.1244  0.1130

 Free energy of the ion-electron system (eV)
  ---------------------------------------------------
  alpha Z        PSCENC =       555.12588720
  Ewald energy   TEWEN  =    586952.44168828
  -Hartree energ DENC   =   -639489.07324710
  -exchange      EXHF   =         0.00000000
  -V(xc)+E(xc)   XCENC  =     -1718.75487634
  PAW double counting   =     61147.29261628   -57321.73631518
  entropy T*S    EENTRO =         0.00958671
  eigenvalues    EBANDS =     -2015.86792488
  atomic energy  EATOM  =     51823.87853440
  Solvation  Ediel_sol  =         0.00000000
  ---------------------------------------------------
  free energy    TOTEN  =       -66.68405062 eV

  energy without entropy =      -66.69363733  energy(sigma->0) =      -66.68724619


--------------------------------------------------------------------------------------------------------




--------------------------------------- Iteration      1(  20)  ---------------------------------------


    POTLOK:  cpu time      1.9386: real time      0.9161
    SETDIJ:  cpu time      4.3056: real time      0.5712
    EDDIAG:  cpu time     68.4527: real time     10.5300
  RMM-DIIS:  cpu time    232.1737: real time     29.7310
    ORTHCH:  cpu time     11.1005: real time      2.4846
       DOS:  cpu time      0.0010: real time      0.0010
    CHARGE:  cpu time     15.3002: real time      2.1363
    MIXING:  cpu time      0.0607: real time      0.0156
    --------------------------------------------
      LOOP:  cpu time    333.3330: real time     46.3858

 eigenvalue-minimisations  : 10953
 total energy-change (2. order) :-0.1563071E+02  (-0.1041278E+01)
 number of electron     639.9999980 magnetization     188.5911993
 augmentation part      274.3041944 magnetization     154.0091684

 Broyden mixing:
  rms(total) = 0.59412E+01    rms(broyden)= 0.59412E+01
  rms(prec ) = 0.63826E+01
  weight for this iteration     100.00

 eigenvalues of (default mixing * dielectric matrix)
  average eigenvalue GAMMA=   0.7977
  4.7940  1.4316  1.4316  0.8644  0.6493  0.6493  0.3845  0.3845  0.4080  0.2404
  0.1130  0.1248  0.1804  0.1639  0.1461

 Free energy of the ion-electron system (eV)
  ---------------------------------------------------
  alpha Z        PSCENC =       555.12588720
  Ewald energy   TEWEN  =    586952.44168828
  -Hartree energ DENC   =   -639441.87868814
  -exchange      EXHF   =         0.00000000
  -V(xc)+E(xc)   XCENC  =     -1729.83051972
  PAW double counting   =     61379.54218524   -57556.07365678
  entropy T*S    EENTRO =        -0.00711894
  eigenvalues    EBANDS =     -2065.51307025
  atomic energy  EATOM  =     51823.87853440
  Solvation  Ediel_sol  =         0.00000000
  ---------------------------------------------------
  free energy    TOTEN  =       -82.31475872 eV

  energy without entropy =      -82.30763978  energy(sigma->0) =      -82.31238574


--------------------------------------------------------------------------------------------------------




--------------------------------------- Iteration      1(  21)  ---------------------------------------


    POTLOK:  cpu time      1.8912: real time      0.8897
    SETDIJ:  cpu time      4.4353: real time      0.5629
    EDDIAG:  cpu time     68.8691: real time     10.7202
  RMM-DIIS:  cpu time    230.9555: real time     29.6042
    ORTHCH:  cpu time     12.1319: real time      2.5550
       DOS:  cpu time      0.0011: real time      0.0011
    CHARGE:  cpu time     14.9775: real time      2.1312
    MIXING:  cpu time      0.0591: real time      0.0155
    --------------------------------------------
      LOOP:  cpu time    333.3206: real time     46.4797

 eigenvalue-minimisations  : 10902
 total energy-change (2. order) :-0.5040557E+01  (-0.8229588E+00)
 number of electron     639.9999979 magnetization     182.6607012
 augmentation part      273.0139042 magnetization     148.1350643

 Broyden mixing:
  rms(total) = 0.50082E+01    rms(broyden)= 0.50082E+01
[...]
  297              dfftw_execute                         0.080114                    198   6
  298              map_forward                           0.194408                     60   6
  299                map_gather                            0.042863                   30   7
  300                m_alltoallv_z                         0.128620                   30   7
  301                map_scatter                           0.022816                   30   7
  302              map_backward                          0.289838                     72   6
  303                map_gather                            0.034204                   36   7
  304                m_alltoallv_z                         0.219892                   36   7
  305                map_scatter                           0.035570                   36   7
  306        m_sumb_d                              0.000615                           15   3
  307        forhar                                0.162335                            6   3
  308          m_sumb_d                              0.033199                          6   4
  309        chggra                                0.137557                            3   3
  310          fft3d_mpi                             0.073489                          9   4
  311            fftbrc_mpi                            0.071322                        9   5
  312              fftbas_plan_mpi                       0.071316                      9   6
  313                dfftw_execute                         0.010931                   27   7
  314                map_backward                          0.016104                    6   7
  315                  map_gather                            0.003183                  3   8
  316                  m_alltoallv_z                         0.010221                  3   8
  317                  map_scatter                           0.002691                  3   8
  318                map_forward                           0.037033                   12   7
  319                  map_gather                            0.006615                  6   8
  320                  m_alltoallv_z                         0.025909                  6   8
  321                  map_scatter                           0.004481                  6   8
  322          m_sumb_d                              0.000036                          6   4
  323          pothar                                0.018737                          3   4
  324            m_sumb_d                              0.000991                        3   5
  325        brmix                                 0.061386                            3   3
  326          m_sumb_d                              0.001130                         18   4
  327          brpre                                 0.000456                          6   4
  328          setg0                                 0.011992                          3   4
  329          broyd                                 0.031905                          3   4
  330            m_sumb_d                              0.003912                       79   5
  331            brget                                 0.006169                      317   5
  332            brsav                                 0.001393                       73   5
  333        m_bcast_d                             0.000672                            6   3
  334      potlok                                2.692127                              3   2
  335        fft3d_mpi                             0.761254                           78   3
  336          fftbrc_mpi                            0.701003                         78   4
  337            fftbas_plan_mpi                       0.700961                       78   5
  338              dfftw_execute                         0.075299                    234   6
  339              map_forward                           0.264593                     84   6
  340                map_gather                            0.043842                   48   7
  341                m_alltoallv_z                         0.187503                   48   7
  342                map_scatter                           0.033091                   48   7
  343              map_backward                          0.296995                     72   6
  344                map_gather                            0.031558                   36   7
  345                m_alltoallv_z                         0.238013                   36   7
  346                map_scatter                           0.027271                   36   7
  347        m_sumb_d                              0.001653                           15   3
  348        pothar                                0.016707                            3   3
  349          m_sumb_d                              0.000740                          3   4
  350        m_bcast_d                             0.048303                            6   3
  351      potlok_metagga                        0.000002                              3   2
  352      set_dd_magatom                        0.000000                              3   2
  353      set_dd_paw                            1.665378                              3   2
  354        set_rsgf_all                          0.000002                            3   3
  355        m_alltoall_d                          0.086320                            6   3
  356        m_sumb_d                              0.000800                           18   3
  357      wavpre_noio                           0.077575                              2   2
  358        stufak                                0.027403                            2   3
  359      densta                                0.022170                              1   2
  360        m_sumb_d                              0.000436                           41   3
  361        m_alltoall_d                          0.011489                            6   3
 
 Flat profile
 ============
 
             routine name                   CPU           calls
 ---------------------------------------------------------------
 fft3d                                1093.958652      220316
 vhamil                                524.163227       84035
 fftwav                                288.520871      136281
 m_alltoall_d                          265.568549      417670
 eccp                                  221.807054      101113
 w1_daxpy                              200.028433       95386
 orth1                                 160.453643       28236
 w1_dscal                              143.729130      117212
 w1_copy                               142.016508      172545
 lincom                                124.362909        1660
 redis_pw                              120.714129       28306
 m_sumb_d                               75.412321       31464
 potlok                                 51.976329          84
 pdssyex_zheevx                         49.495713         850
 ggemm                                  46.710565       10202
 set_dd_paw                             45.921328          87
 crrexp_mul_work_add                    40.081573     3680960
 rpromu_gemm                            37.008649      907136
 crrexp_mul_wave                        36.349864     3661760
 pw_charge                              32.736480       18204
 total_time                             30.850996           1
 gemm                                   30.782331      838016
 eddrmm                                 24.050431          78
 w1_gaxpy                               21.323134       51762
 fftext_mpi                             21.083557       84035
 kinhamil                               18.732152       84035
 racc0                                  18.456016        7822
 rpro1                                  15.895541        5442
 w1_gemv                                15.520350       96264
 m_alltoallv_z                          12.725244        2916
 apply_precond                          10.906086       81724
 m_bcast_z                               9.358622       13262
 eddiag                                  7.992389          78
 cnorma                                  6.143497       72213
 i2                                      5.865153       13094
 choleski                                5.492069         810
 orthch                                  5.198627          81
 w1_dot                                  5.033434       24520
 lapack                                  4.753277        7822
 eddav                                   4.390044           7
 soft_charge                             4.207975          81
 rpromu                                  3.693475       14174
 fft3d_mpi                               2.990412       86621
 dfftw_execute                           2.636180        7758
 setup_precond                           2.606486       28900
 map_gather                              2.551358        2916
 racc0mu                                 2.495397       13094
 fftbas_plan_mpi                         2.243697        2586
 force_and_stress                        1.777770           3
 map_scatter                             1.772724        2916
 m_bcast_d                               1.634621       15825
 phaser                                  1.535724         910
 overl1                                  1.508170      105647
 augmentation_charge                     1.350430          81
 zhegv                                   1.288571       23173
 setdij_                                 1.067331         106
 eccp_nl                                 0.936078       72213
 broyd                                   0.649822          81
 overl                                   0.601391       14854
 sphpro_fast                             0.565803           4
 elmin                                   0.520609           3
 pothar                                  0.472955          87
 i3                                      0.454312       13094
 hamiltmu                                0.409185       20916
 brmix                                   0.396299          81
 newband                                 0.352746       21766
 setg0                                   0.323720          87
 w1_projall                              0.300867       18536
 redis_proj                              0.276510       31438
 depsum                                  0.217388          81
 brget                                   0.192125       10429
 rpro_isp                                0.180988          60
 rspher_all                              0.172469          13
 raccmu_                                 0.169089       20916
 fftwav_mpi                              0.168664      136281
 forhar                                  0.129136           6
 hamilt_local                            0.104854       26520
 set_charge                              0.100220          81
 fft_gq                                  0.091380          81
 i1                                      0.063182       13094
 forloc                                  0.058420           3
 densta                                  0.057235          86
 brsav                                   0.052456        2737
 wavpre_noio                             0.050172           2
 chggra                                  0.045294           3
 stufak                                  0.041676           3
 truncate_high_frequency_w1              0.030140       86415
 fornlr                                  0.027166           3
 brpre                                   0.008593         162
 map_backward                            0.006490        2742
 map_forward                             0.004415        2430
 rsp                                     0.002417           3
 fftbrc_mpi                              0.001552        2586
 brgrid                                  0.000599           1
 fordep                                  0.000465           3
 fewald                                  0.000400           3
 rcp                                     0.000235           3
 shift_bands_between_low_high            0.000200         780
 proall                                  0.000115           3
 set_rsgf_all                            0.000081          87
 potlok_metagga                          0.000046          84
 crpa_reader                             0.000031           1
 vectorpot                               0.000023          82
 FERMAT_RAZOR                            0.000014           1
 set_dd_magatom                          0.000006          87
 redis_pw_over_bands                     0.000002           3
 rotate_active_occupied_orbital          0.000001           3
 ---------------------------------------------------------------
  summed up times     4019.167237997055     
 
 Accumulative profile
 ====================
 
             routine name                   CPU           calls
 ---------------------------------------------------------------
 total_time                           4019.167238           1
 elmin                                3913.125473           3
 eddrmm                               2141.925277          78
 fft3d                                1093.958652      220316
 fftwav_mpi                            970.156394      136281
 fftwav                                969.987731      136281
 eddiag                                824.054099          78
 hamiltmu                              791.813182       20916
 i3                                    549.114410       13094
 vhamil                                524.163227       84035
 i2                                    487.825598       13094
 eddav                                 471.198720           7
 kinhamil                              452.478863       84035
 fft3d_mpi                             437.423867       86621
 fftext_mpi                            433.746710       84035
 newband                               281.899803       21766
 hamilt_local                          278.336350       26520
 redis_pw                              277.291903       28306
 m_alltoall_d                          265.568549      417670
 eccp                                  221.807054      101113
 orthch                                200.402190          81
 w1_daxpy                              200.028433       95386
 set_charge                            171.028504          81
 soft_charge                           168.043467          81
 orth1                                 160.453643       28236
 w1_dscal                              143.729130      117212
 w1_copy                               142.016508      172545
 lincom                                124.362909        1660
 raccmu_                                92.993403       20916
 w1_projall                             87.619641       18536
 m_sumb_d                               75.412321       31464
 potlok                                 74.739377          84
 rpromu                                 72.278182       14174
 racc0mu                                64.860953       13094
 redis_proj                             56.896962       31438
 pdssyex_zheevx                         49.495728         850
 set_dd_paw                             47.577977          87
 ggemm                                  46.710565       10202
 crrexp_mul_work_add                    40.081573     3680960
 force_and_stress                       39.738600           3
 rpromu_gemm                            37.008649      907136
 crrexp_mul_wave                        36.349864     3661760
 rpro_isp                               35.356181          60
 pw_charge                              32.736480       18204
 gemm                                   30.782331      838016
 fornlr                                 28.663425           3
 racc0                                  26.954363        7822
 fftbrc_mpi                             21.941661        2586
 fftbas_plan_mpi                        21.940109        2586
 w1_gaxpy                               21.323134       51762
 rpro1                                  20.669348        5442
 w1_gemv                                16.019522       96264
 m_alltoallv_z                          12.725244        2916
 i1                                     11.742495       13094
 apply_precond                          10.906086       81724
 map_backward                           10.215591        2742
 m_bcast_z                               9.358622       13262
 proall                                  8.818539           3
 cnorma                                  7.079575       72213
 map_forward                             6.844641        2430
 choleski                                5.492069         810
 w1_dot                                  5.033434       24520
 lapack                                  4.753277        7822
 dfftw_execute                           2.636180        7758
 setup_precond                           2.606486       28900
 augmentation_charge                     2.576259          81
 map_gather                              2.551358        2916
 fft_gq                                  2.093857          81
 brmix                                   1.784282          81
 map_scatter                             1.772724        2916
 m_bcast_d                               1.634621       15825
 phaser                                  1.535724         910
 overl1                                  1.508170      105647
 zhegv                                   1.288571       23173
 setdij_                                 1.200094         106
 broyd                                   1.035040          81
 eccp_nl                                 0.936078       72213
 sphpro_fast                             0.645525           4
 overl                                   0.601391       14854
 pothar                                  0.493992          87
 setg0                                   0.323720          87
 depsum                                  0.308558          81
 brget                                   0.192125       10429
 fordep                                  0.178653           3
 rspher_all                              0.172469          13
 forhar                                  0.162335           6
 chggra                                  0.137557           3
 densta                                  0.098097          86
 forloc                                  0.083408           3
 wavpre_noio                             0.077575           2
 brsav                                   0.052456        2737
 stufak                                  0.041676           3
 truncate_high_frequency_w1              0.030140       86415
 brpre                                   0.008593         162
 fewald                                  0.003980           3
 rsp                                     0.002417           3
 brgrid                                  0.000599           1
 rcp                                     0.000235           3
 shift_bands_between_low_high            0.000200         780
 set_rsgf_all                            0.000081          87
 potlok_metagga                          0.000046          84
 crpa_reader                             0.000031           1
 vectorpot                               0.000023          82
 FERMAT_RAZOR                            0.000014           1
 set_dd_magatom                          0.000006          87
 redis_pw_over_bands                     0.000002           3
 rotate_active_occupied_orbital          0.000001           3
 ---------------------------------------------------------------
 
Profiling took   1.548907  1.083219  0.003071  0.002913 seconds
Profiling took   1.563960 seconds
