 ----------------------------------------------------
    OOO  PPPP  EEEEE N   N M   M PPPP
   O   O P   P E     NN  N MM MM P   P
   O   O PPPP  EEEEE N N N M M M PPPP   -- VERSION
   O   O P     E     N  NN M   M P
    OOO  P     EEEEE N   N M   M P
 ----------------------------------------------------
 running   16 mpi-ranks, with    4 threads/rank
 distrk:  each k-point on   16 cores,    1 groups
 distr:  one band on    1 cores,   16 groups
 vasp.6.2.1 16May21 (build Jul 28 2021 23:24:15) complex                        
  
 POSCAR found type information on POSCAR IrO 
 POSCAR found :  2 types and      99 ions
 scaLAPACK will be used
 -----------------------------------------------------------------------------
|                                                                             |
|           W    W    AA    RRRRR   N    N  II  N    N   GGGG   !!!           |
|           W    W   A  A   R    R  NN   N  II  NN   N  G    G  !!!           |
|           W    W  A    A  R    R  N N  N  II  N N  N  G       !!!           |
|           W WW W  AAAAAA  RRRRR   N  N N  II  N  N N  G  GGG   !            |
|           WW  WW  A    A  R   R   N   NN  II  N   NN  G    G                |
|           W    W  A    A  R    R  N    N  II  N    N   GGGG   !!!           |
|                                                                             |
|     The real-space projection scheme for the treatment of the non-local     |
|     pseudopotentials has been switched on but on file POTCAR I have not     |
|     found any entries, signalling me that you have never performed a        |
|     real-space optimization of all non-local projectors! BE WARNED that     |
|     a calculation using the real-space projection scheme together with      |
|     non-local projectors which were not real-space optimized (according     |
|     to the plane-wave cutoff used in this calculation) might give more      |
|     or less inaccurate results. I hope you know what you are doing.         |
|                                                                             |
 -----------------------------------------------------------------------------

 LDA part: xc-table for Pade appr. of Perdew
 POSCAR, INCAR and KPOINTS ok, starting setup
 FFT: planning ...
 WAVECAR not read
 WARNING: random wavefunctions but no delay for mixing, default for NELMDL
 entering main loop
       N       E                     dE             d eps       ncg     rms          rms(c)
DAV:   1     0.746610434893E+04    0.74661E+04   -0.29216E+05 15120   0.123E+03
DAV:   2     0.580364319165E+03   -0.68857E+04   -0.61928E+04 16048   0.367E+02
DAV:   3    -0.745978355166E+03   -0.13263E+04   -0.12724E+04 18480   0.163E+02
DAV:   4    -0.816135295912E+03   -0.70157E+02   -0.68394E+02 20112   0.423E+01
DAV:   5    -0.817757295275E+03   -0.16220E+01   -0.16039E+01 19104   0.603E+00    0.185E+02
RMM:   6    -0.671086913496E+03    0.14667E+03   -0.60208E+02 14874   0.390E+01    0.159E+02
RMM:   7    -0.142413855525E+04   -0.75305E+03   -0.38125E+02 16295   0.270E+01    0.366E+02
RMM:   8    -0.122342568455E+04    0.20071E+03   -0.99095E+01 18240   0.108E+01    0.320E+02
RMM:   9    -0.114252761049E+04    0.80898E+02   -0.47709E+01 15211   0.104E+01    0.349E+02
RMM:  10    -0.122630376136E+04   -0.83776E+02   -0.55318E+02 22128   0.255E+01    0.350E+02
RMM:  11    -0.125952742307E+04   -0.33224E+02   -0.86795E+01 16825   0.938E+00    0.327E+02
RMM:  12    -0.106588321986E+04    0.19364E+03   -0.13553E+02 18104   0.106E+01    0.256E+02
RMM:  13    -0.882607918927E+03    0.18328E+03   -0.94765E+01 19032   0.133E+01    0.226E+02
RMM:  14    -0.741315947071E+03    0.14129E+03   -0.39214E+01 16520   0.830E+00    0.120E+02
RMM:  15    -0.675578563219E+03    0.65737E+02   -0.55197E+01 17826   0.104E+01    0.112E+02
RMM:  16    -0.620644443766E+03    0.54934E+02   -0.10913E+01 15503   0.502E+00    0.983E+01
RMM:  17    -0.635241612124E+03   -0.14597E+02   -0.63525E+00 15547   0.392E+00    0.943E+01
RMM:  18    -0.629434867861E+03    0.58067E+01   -0.39993E+00 15922   0.285E+00    0.863E+01
RMM:  19    -0.630508819216E+03   -0.10740E+01   -0.46770E+00 16205   0.298E+00    0.771E+01
RMM:  20    -0.624283762092E+03    0.62251E+01   -0.35446E+00 16183   0.261E+00    0.658E+01
RMM:  21    -0.622562750099E+03    0.17210E+01   -0.15020E+00 15825   0.176E+00    0.576E+01
RMM:  22    -0.623934774461E+03   -0.13720E+01   -0.20356E+00 16829   0.201E+00    0.472E+01
RMM:  23    -0.632090759425E+03   -0.81560E+01   -0.39175E+00 18877   0.280E+00    0.352E+01
RMM:  24    -0.633036375704E+03   -0.94562E+00   -0.77841E-01 15245   0.138E+00    0.312E+01
RMM:  25    -0.641349964209E+03   -0.83136E+01   -0.30425E+00 18260   0.243E+00    0.265E+01
RMM:  26    -0.648725888634E+03   -0.73759E+01   -0.34992E+00 19116   0.258E+00    0.205E+01
RMM:  27    -0.651436390974E+03   -0.27105E+01   -0.14115E+00 16636   0.171E+00    0.175E+01
RMM:  28    -0.652884064227E+03   -0.14477E+01   -0.64827E-01 15620   0.126E+00    0.167E+01
RMM:  29    -0.656164035823E+03   -0.32800E+01   -0.74296E-01 16372   0.122E+00    0.154E+01
RMM:  30    -0.660324472959E+03   -0.41604E+01   -0.92336E-01 17394   0.134E+00    0.156E+01
RMM:  31    -0.662775985771E+03   -0.24515E+01   -0.10941E+00 17864   0.159E+00    0.163E+01
RMM:  32    -0.663010671924E+03   -0.23469E+00   -0.34345E-01 15767   0.890E-01    0.167E+01
RMM:  33    -0.663580850005E+03   -0.57018E+00   -0.24943E-01 15593   0.797E-01    0.145E+01
RMM:  34    -0.664869731769E+03   -0.12889E+01   -0.21108E-01 15794   0.687E-01    0.116E+01
RMM:  35    -0.665763125825E+03   -0.89339E+00   -0.22420E-01 16380   0.685E-01    0.107E+01
RMM:  36    -0.666601201656E+03   -0.83808E+00   -0.20899E-01 16504   0.678E-01    0.114E+01
RMM:  37    -0.667720031562E+03   -0.11188E+01   -0.16515E-01 16241   0.621E-01    0.103E+01
RMM:  38    -0.668690118490E+03   -0.97009E+00   -0.45976E-01 18957   0.907E-01    0.994E+00
RMM:  39    -0.668981311185E+03   -0.29119E+00   -0.38561E-01 19035   0.847E-01    0.101E+01
RMM:  40    -0.669947184792E+03   -0.96587E+00   -0.40393E-01 18046   0.794E-01    0.101E+01
RMM:  41    -0.671219098536E+03   -0.12719E+01   -0.17475E-01 17205   0.613E-01    0.999E+00
RMM:  42    -0.673355641778E+03   -0.21365E+01   -0.10588E-01 15958   0.503E-01    0.953E+00
RMM:  43    -0.674406094903E+03   -0.10505E+01   -0.15142E-01 17074   0.547E-01    0.100E+01
RMM:  44    -0.676013588064E+03   -0.16075E+01   -0.22917E-01 18439   0.604E-01    0.917E+00
RMM:  45    -0.676138094554E+03   -0.12451E+00   -0.15721E-01 17043   0.498E-01    0.994E+00
RMM:  46    -0.677053243901E+03   -0.91515E+00   -0.24025E-01 18116   0.575E-01    0.913E+00
RMM:  47    -0.677199873006E+03   -0.14663E+00   -0.16364E-01 17490   0.466E-01    0.867E+00
RMM:  48    -0.677456328234E+03   -0.25646E+00   -0.60644E-02 16091   0.311E-01    0.830E+00
RMM:  49    -0.677859204801E+03   -0.40288E+00   -0.69647E-02 17343   0.341E-01    0.795E+00
RMM:  50    -0.678710266438E+03   -0.85106E+00   -0.11793E-01 18538   0.410E-01    0.722E+00
RMM:  51    -0.679848111940E+03   -0.11378E+01   -0.20107E-01 20434   0.561E-01    0.529E+00
RMM:  52    -0.679882465012E+03   -0.34353E-01   -0.18309E-02 15006   0.232E-01    0.416E+00
RMM:  53    -0.680089417457E+03   -0.20695E+00   -0.23736E-02 15972   0.245E-01    0.375E+00
RMM:  54    -0.680142127521E+03   -0.52710E-01   -0.19509E-02 15922   0.210E-01    0.281E+00
RMM:  55    -0.680278913057E+03   -0.13679E+00   -0.10511E-02 15224   0.157E-01    0.263E+00
RMM:  56    -0.679891365191E+03    0.38755E+00   -0.10914E-01 20967   0.366E-01    0.226E+00
RMM:  57    -0.679816197919E+03    0.75167E-01   -0.68039E-03 15053   0.137E-01    0.171E+00
RMM:  58    -0.680057142487E+03   -0.24094E+00   -0.88700E-03 15734   0.117E-01    0.120E+00
RMM:  59    -0.680331607110E+03   -0.27446E+00   -0.53274E-03 15692   0.102E-01    0.901E-01
RMM:  60    -0.680490415780E+03   -0.15881E+00   -0.46313E-03 16276   0.949E-02    0.671E-01
RMM:  61    -0.680585566259E+03   -0.95150E-01   -0.44238E-03 16802   0.962E-02    0.672E-01
RMM:  62    -0.680666792921E+03   -0.81227E-01   -0.33304E-03 15417   0.792E-02    0.412E-01
RMM:  63    -0.680806964453E+03   -0.14017E+00   -0.27444E-03 15530   0.665E-02    0.406E-01
RMM:  64    -0.680950189918E+03   -0.14323E+00   -0.17681E-03 14753   0.533E-02    0.313E-01
RMM:  65    -0.681035212745E+03   -0.85023E-01   -0.75106E-04 12977   0.366E-02    0.220E-01
RMM:  66    -0.681079486590E+03   -0.44274E-01   -0.55955E-04 12282   0.346E-02    0.258E-01
RMM:  67    -0.681139296505E+03   -0.59810E-01   -0.27748E-04 10596   0.255E-02    0.125E-01
RMM:  68    -0.681206804609E+03   -0.67508E-01   -0.36712E-04 10627   0.219E-02    0.983E-02
RMM:  69    -0.681233143749E+03   -0.26339E-01   -0.13514E-04  9349   0.169E-02    0.745E-02
RMM:  70    -0.681247679063E+03   -0.14535E-01   -0.62227E-05  8893   0.130E-02    0.544E-02
RMM:  71    -0.681253338832E+03   -0.56598E-02   -0.26624E-05  8172   0.880E-03    0.338E-02
RMM:  72    -0.681259014077E+03   -0.56752E-02   -0.21262E-05  8185   0.713E-03    0.352E-02
RMM:  73    -0.681262570905E+03   -0.35568E-02   -0.14454E-05  7544   0.572E-03    0.210E-02
RMM:  74    -0.681265349460E+03   -0.27786E-02   -0.10789E-05  6599   0.483E-03    0.157E-02
RMM:  75    -0.681267142140E+03   -0.17927E-02   -0.12566E-05  6176   0.442E-03    0.157E-02
RMM:  76    -0.681267480711E+03   -0.33857E-03   -0.38389E-06  4941   0.370E-03    0.166E-02
RMM:  77    -0.681269343671E+03   -0.18630E-02   -0.16736E-05  6614   0.448E-03    0.101E-02
RMM:  78    -0.681270061912E+03   -0.71824E-03   -0.81987E-06  5221   0.378E-03    0.970E-03
RMM:  79    -0.681270428846E+03   -0.36693E-03   -0.58420E-06  4848   0.363E-03    0.589E-03
RMM:  80    -0.681270660089E+03   -0.23124E-03   -0.29923E-06  4108   0.329E-03
 -----------------------------------------------------------------------------
|                                                                             |
|           W    W    AA    RRRRR   N    N  II  N    N   GGGG   !!!           |
|           W    W   A  A   R    R  NN   N  II  NN   N  G    G  !!!           |
|           W    W  A    A  R    R  N N  N  II  N N  N  G       !!!           |
|           W WW W  AAAAAA  RRRRR   N  N N  II  N  N N  G  GGG   !            |
|           WW  WW  A    A  R   R   N   NN  II  N   NN  G    G                |
|           W    W  A    A  R    R  N    N  II  N    N   GGGG   !!!           |
|                                                                             |
|     The electronic self-consistency was not achieved in the given           |
|     number of steps (NELM). The forces and other quantities evaluated       |
|     might not be reliable so examine the results carefully. If you find     |
|     spurious results, we suggest increasing NELM, if you were close to      |
|     convergence or switching to a different ALGO or adjusting the           |
|     density mixing parameters otherwise.                                    |
|                                                                             |
 -----------------------------------------------------------------------------

   1 F= -.68127066E+03 E0= -.68069447E+03  d E =-.681271E+03  mag=     3.0620
 curvature:   0.00 expect dE= 0.000E+00 dE for cont linesearch  0.000E+00
 trial: gam= 0.00000 g(F)=  0.498E+00 g(S)=  0.000E+00 ort = 0.000E+00 (trialstep = 0.100E+01)
 search vector abs. value=  0.498E+00
 bond charge predicted
       N       E                     dE             d eps       ncg     rms          rms(c)
DAV:   1    -0.680907621901E+03    0.36281E+00   -0.10728E+02 15376   0.120E+01    0.438E+00
RMM:   2    -0.681919089589E+03   -0.10115E+01   -0.38239E+00 14848   0.349E+00    0.170E+01
RMM:   3    -0.681611389364E+03    0.30770E+00   -0.11524E+00 17027   0.131E+00    0.128E+01
RMM:   4    -0.682974299369E+03   -0.13629E+01   -0.20367E-01 15287   0.630E-01    0.191E+01
RMM:   5    -0.681215511824E+03    0.17588E+01   -0.15092E-01 15135   0.655E-01    0.738E+00
RMM:   6    -0.681138794835E+03    0.76717E-01   -0.11879E-01 15402   0.542E-01    0.562E+00
RMM:   7    -0.681107538758E+03    0.31256E-01   -0.75633E-02 15351   0.460E-01    0.405E+00
RMM:   8    -0.681102011125E+03    0.55276E-02   -0.34178E-02 15097   0.299E-01    0.345E+00
RMM:   9    -0.681104505114E+03   -0.24940E-02   -0.23077E-02 15733   0.236E-01    0.314E+00
RMM:  10    -0.681097896970E+03    0.66081E-02   -0.55226E-03 15421   0.119E-01    0.286E+00
RMM:  11    -0.681092160208E+03    0.57368E-02   -0.16558E-03 14190   0.696E-02    0.259E+00
RMM:  12    -0.681086077839E+03    0.60824E-02   -0.18514E-03 14396   0.650E-02    0.224E+00
RMM:  13    -0.681079295240E+03    0.67826E-02   -0.33974E-03 16205   0.765E-02    0.178E+00
RMM:  14    -0.681076929119E+03    0.23661E-02   -0.96859E-04 13928   0.454E-02    0.154E+00
RMM:  15    -0.681076469387E+03    0.45973E-03   -0.34186E-04 11146   0.290E-02    0.144E+00
RMM:  16    -0.681076161384E+03    0.30800E-03   -0.15446E-04  9387   0.206E-02    0.134E+00
RMM:  17    -0.681075831593E+03    0.32979E-03   -0.25019E-04  9950   0.230E-02    0.116E+00
RMM:  18    -0.681075338629E+03    0.49296E-03   -0.80288E-04 12965   0.373E-02    0.792E-01
RMM:  19    -0.681075177613E+03    0.16102E-03   -0.81836E-04 13104   0.391E-02    0.445E-01
RMM:  20    -0.681075402334E+03   -0.22472E-03   -0.57890E-04 11964   0.338E-02    0.200E-01
RMM:  21    -0.681076207445E+03   -0.80511E-03   -0.26752E-04 10042   0.248E-02    0.115E-01
RMM:  22    -0.681076779592E+03   -0.57215E-03   -0.13099E-04  9059   0.190E-02    0.116E-01
RMM:  23    -0.681077426463E+03   -0.64687E-03   -0.52385E-05  8637   0.139E-02    0.914E-02
RMM:  24    -0.681077896301E+03   -0.46984E-03   -0.18355E-05  7823   0.833E-03    0.491E-02
RMM:  25    -0.681078390083E+03   -0.49378E-03   -0.10975E-05  7198   0.552E-03    0.411E-02
RMM:  26    -0.681078921481E+03   -0.53140E-03   -0.70518E-06  6702   0.458E-03    0.320E-02
RMM:  27    -0.681079542983E+03   -0.62150E-03   -0.82625E-06  6366   0.421E-03    0.231E-02
RMM:  28    -0.681079895276E+03   -0.35229E-03   -0.37506E-06  4900   0.354E-03    0.180E-02
RMM:  29    -0.681080075076E+03   -0.17980E-03   -0.16563E-06  3631   0.301E-03    0.137E-02
RMM:  30    -0.681080417345E+03   -0.34227E-03   -0.17397E-06  3244   0.287E-03    0.144E-02
RMM:  31    -0.681081024949E+03   -0.60760E-03   -0.44475E-06  4306   0.324E-03    0.150E-02
RMM:  32    -0.681081439131E+03   -0.41418E-03   -0.26693E-06  3889   0.314E-03    0.112E-02
RMM:  33    -0.681082265498E+03   -0.82637E-03   -0.75995E-06  4354   0.340E-03    0.137E-02
RMM:  34    -0.681082916469E+03   -0.65097E-03   -0.70195E-06  4461   0.341E-03    0.103E-02
RMM:  35    -0.681083307090E+03   -0.39062E-03   -0.45214E-06  4313   0.339E-03    0.808E-03
RMM:  36    -0.681083593223E+03   -0.28613E-03   -0.30558E-06  3898   0.324E-03    0.695E-03
RMM:  37    -0.681083844447E+03   -0.25122E-03   -0.22165E-06  3624   0.308E-03    0.788E-03
RMM:  38    -0.681084003852E+03   -0.15940E-03   -0.11034E-06  3223   0.296E-03    0.502E-03
RMM:  39    -0.681084099387E+03   -0.95535E-04   -0.62038E-07  2731   0.283E-03
   2 F= -.68108410E+03 E0= -.68051639E+03  d E =0.186561E+00  mag=     3.1899
 trial-energy change:    0.186561  1 .order    0.015010   -0.498151    0.528171
 step:   0.2822(harm=  0.4854)  dis= 0.01001  next Energy=  -681.337097 (dE=-0.664E-01)
 bond charge predicted
       N       E                     dE             d eps       ncg     rms          rms(c)
DAV:   1    -0.681195650670E+03   -0.11165E+00   -0.54289E+01 15424   0.862E+00    0.431E+00
RMM:   2    -0.681474713033E+03   -0.27906E+00   -0.10721E+00 14849   0.179E+00    0.625E+00
RMM:   3    -0.681367912575E+03    0.10680E+00   -0.31431E-01 16516   0.743E-01    0.456E+00
RMM:   4    -0.682030188758E+03   -0.66228E+00   -0.11930E-01 14975   0.528E-01    0.109E+01
RMM:   5    -0.681388958294E+03    0.64123E+00   -0.10710E-01 15354   0.559E-01    0.409E+00
RMM:   6    -0.681329871914E+03    0.59086E-01   -0.48445E-02 14978   0.407E-01    0.288E+00
RMM:   7    -0.681300545469E+03    0.29326E-01   -0.26035E-02 14993   0.279E-01    0.178E+00
RMM:   8    -0.681284768050E+03    0.15777E-01   -0.86767E-03 14917   0.176E-01    0.877E-01
RMM:   9    -0.681285504838E+03   -0.73679E-03   -0.24173E-03 14592   0.846E-02    0.756E-01
RMM:  10    -0.681285754024E+03   -0.24919E-03   -0.17144E-03 14336   0.670E-02    0.632E-01
RMM:  11    -0.681287177662E+03   -0.14236E-02   -0.22901E-03 15083   0.657E-02    0.406E-01
RMM:  12    -0.681288523270E+03   -0.13456E-02   -0.21568E-03 15608   0.653E-02    0.215E-01
RMM:  13    -0.681288874117E+03   -0.35085E-03   -0.36672E-04 11901   0.341E-02    0.142E-01
RMM:  14    -0.681288973536E+03   -0.99419E-04   -0.12915E-04  9191   0.202E-02
   3 F= -.68128897E+03 E0= -.68071747E+03  d E =-.183134E-01  mag=     3.1691
 curvature:  -0.20 expect dE=-0.438E+00 dE for cont linesearch -0.282E-01
 ZBRENT: interpolating
 opt :   0.1850  next Energy=  -681.301706 (dE=-0.310E-01)
 bond charge predicted
       N       E                     dE             d eps       ncg     rms          rms(c)
DAV:   1    -0.681304165173E+03   -0.15291E-01   -0.10020E+00 15456   0.115E+00    0.333E-01
RMM:   2    -0.681310234873E+03   -0.60697E-02   -0.18277E-02 14628   0.222E-01    0.101E+00
RMM:   3    -0.681307179403E+03    0.30555E-02   -0.34922E-03 15124   0.947E-02    0.665E-01
RMM:   4    -0.681311957164E+03   -0.47778E-02   -0.12568E-03 14150   0.494E-02    0.105E+00
RMM:   5    -0.681306334477E+03    0.56227E-02   -0.11547E-03 13785   0.543E-02    0.528E-01
RMM:   6    -0.681305288627E+03    0.10458E-02   -0.71208E-04 13571   0.456E-02    0.313E-01
RMM:   7    -0.681305076935E+03    0.21169E-03   -0.39894E-04 11873   0.331E-02    0.237E-01
RMM:   8    -0.681304888049E+03    0.18889E-03   -0.15939E-04  9303   0.225E-02    0.128E-01
RMM:   9    -0.681304905421E+03   -0.17372E-04   -0.62739E-05  8571   0.152E-02
   4 F= -.68130491E+03 E0= -.68073233E+03  d E =-.342453E-01  mag=     3.1579
 curvature:  -0.09 expect dE=-0.138E+00 dE for cont linesearch -0.650E-03
 trial: gam= 3.12405 g(F)=  0.150E+01 g(S)=  0.000E+00 ort =-0.592E-01 (trialstep = 0.696E-01)
 search vector abs. value=  0.599E+01
 bond charge predicted
       N       E                     dE             d eps       ncg     rms          rms(c)
DAV:   1    -0.681364443090E+03   -0.59555E-01   -0.58018E+00 15360   0.232E+00    0.879E-01
RMM:   2    -0.681430556694E+03   -0.66114E-01   -0.10994E-01 14849   0.570E-01    0.329E+00
RMM:   3    -0.681416553421E+03    0.14003E-01   -0.26567E-02 15022   0.272E-01    0.286E+00
RMM:   4    -0.681371995320E+03    0.44558E-01   -0.10099E-02 15371   0.158E-01    0.941E-01
RMM:   5    -0.681374252931E+03   -0.22576E-02   -0.24194E-03 14480   0.827E-02    0.109E+00
RMM:   6    -0.681374003291E+03    0.24964E-03   -0.21105E-03 14465   0.736E-02    0.930E-01
RMM:   7    -0.681372215352E+03    0.17879E-02   -0.21217E-03 15154   0.712E-02    0.648E-01
RMM:   8    -0.681370463181E+03    0.17522E-02   -0.98628E-04 13876   0.528E-02    0.281E-01
RMM:   9    -0.681370391021E+03    0.72160E-04   -0.23134E-04 10328   0.279E-02
   5 F= -.68137039E+03 E0= -.68080017E+03  d E =-.654856E-01  mag=     3.1535
 trial-energy change:   -0.065486  1 .order   -0.070905   -0.091354   -0.050457
 step:   0.1555(harm=  0.1555)  dis= 0.01535  next Energy=  -681.406936 (dE=-0.102E+00)
 bond charge predicted
       N       E                     dE             d eps       ncg     rms          rms(c)
DAV:   1    -0.681385221759E+03   -0.14759E-01   -0.87949E+00 15344   0.288E+00    0.105E+00
RMM:   2    -0.681436367622E+03   -0.51146E-01   -0.17933E-01 14849   0.765E-01    0.304E+00
RMM:   3    -0.681423695098E+03    0.12673E-01   -0.52476E-02 16216   0.315E-01    0.244E+00
RMM:   4    -0.681409873455E+03    0.13822E-01   -0.10030E-02 15752   0.144E-01    0.183E+00
RMM:   5    -0.681413721728E+03   -0.38483E-02   -0.43545E-03 14689   0.105E-01    0.192E+00
RMM:   6    -0.681407329880E+03    0.63918E-02   -0.61955E-03 15876   0.122E-01    0.148E+00
RMM:   7    -0.681403117646E+03    0.42122E-02   -0.48873E-03 16055   0.109E-01    0.979E-01
RMM:   8    -0.681399068773E+03    0.40489E-02   -0.24280E-03 14750   0.805E-02    0.400E-01
RMM:   9    -0.681398833805E+03    0.23497E-03   -0.49617E-04 12612   0.424E-02    0.303E-01
RMM:  10    -0.681398632631E+03    0.20117E-03   -0.24760E-04 10173   0.265E-02    0.247E-01
RMM:  11    -0.681398535234E+03    0.97397E-04   -0.27211E-04  9896   0.230E-02
   6 F= -.68139854E+03 E0= -.68083043E+03  d E =-.936298E-01  mag=     3.1545
 curvature:  -0.35 expect dE=-0.374E+00 dE for cont linesearch -0.359E-03
 trial: gam= 0.12551 g(F)=  0.105E+01 g(S)=  0.000E+00 ort = 0.779E-01 (trialstep = 0.868E-01)
 search vector abs. value=  0.117E+01
 bond charge predicted
       N       E                     dE             d eps       ncg     rms          rms(c)
DAV:   1    -0.681412954708E+03   -0.14322E-01   -0.20592E+00 15648   0.208E+00    0.344E-01
RMM:   2    -0.681421650243E+03   -0.86955E-02   -0.41780E-02 14848   0.387E-01    0.105E+00
RMM:   3    -0.681417828232E+03    0.38220E-02   -0.85200E-03 16043   0.153E-01    0.435E-01
RMM:   4    -0.681424570160E+03   -0.67419E-02   -0.20158E-03 14856   0.775E-02    0.110E+00
RMM:   5    -0.681419354786E+03    0.52154E-02   -0.62770E-04 13357   0.511E-02    0.628E-01
RMM:   6    -0.681418325687E+03    0.10291E-02   -0.41565E-04 12448   0.360E-02    0.447E-01
RMM:   7    -0.681417822542E+03    0.50314E-03   -0.44077E-04 12107   0.356E-02    0.222E-01
RMM:   8    -0.681417863445E+03   -0.40903E-04   -0.17382E-04  9323   0.246E-02
   7 F= -.68141786E+03 E0= -.68084968E+03  d E =-.193282E-01  mag=     3.1562
 trial-energy change:   -0.019328  1 .order   -0.021768   -0.092223    0.048687
 step:   0.0547(harm=  0.0568)  dis= 0.00169  next Energy=  -681.426987 (dE=-0.285E-01)
 bond charge predicted
       N       E                     dE             d eps       ncg     rms          rms(c)
DAV:   1    -0.681426686761E+03   -0.88642E-02   -0.28294E-01 15648   0.772E-01    0.176E-01
RMM:   2    -0.681431140850E+03   -0.44541E-02   -0.64409E-03 14824   0.150E-01    0.850E-01
RMM:   3    -0.681427879426E+03    0.32614E-02   -0.11943E-03 14209   0.665E-02    0.352E-01
RMM:   4    -0.681428028660E+03   -0.14923E-03   -0.43811E-04 12289   0.384E-02    0.402E-01
RMM:   5    -0.681427452513E+03    0.57615E-03   -0.15411E-04  9015   0.250E-02    0.245E-01
RMM:   6    -0.681427208491E+03    0.24402E-03   -0.81873E-05  8422   0.177E-02    0.141E-01
RMM:   7    -0.681427250697E+03   -0.42205E-04   -0.61319E-05  8310   0.139E-02    0.116E-01
RMM:   8    -0.681427242018E+03    0.86786E-05   -0.40113E-05  8162   0.121E-02
   8 F= -.68142724E+03 E0= -.68085915E+03  d E =-.287068E-01  mag=     3.1561
 curvature:  -0.03 expect dE=-0.871E-02 dE for cont linesearch -0.807E-05
 trial: gam= 0.29314 g(F)=  0.281E+00 g(S)=  0.000E+00 ort =-0.174E-01 (trialstep = 0.804E-01)
 search vector abs. value=  0.371E+00
 bond charge predicted
       N       E                     dE             d eps       ncg     rms          rms(c)
DAV:   1    -0.681437745307E+03   -0.10495E-01   -0.51429E-01 15648   0.101E+00    0.257E-01
RMM:   2    -0.681454269366E+03   -0.16524E-01   -0.11750E-02 14848   0.221E-01    0.166E+00
RMM:   3    -0.681440618276E+03    0.13651E-01   -0.25180E-03 15224   0.934E-02    0.727E-01
RMM:   4    -0.681441935949E+03   -0.13177E-02   -0.76610E-04 13838   0.465E-02    0.819E-01
RMM:   5    -0.681439162157E+03    0.27738E-02   -0.40309E-04 12394   0.346E-02    0.453E-01
RMM:   6    -0.681438997649E+03    0.16451E-03   -0.39449E-04 11770   0.344E-02    0.334E-01
RMM:   7    -0.681438777409E+03    0.22024E-03   -0.16979E-04  9336   0.252E-02    0.232E-01
RMM:   8    -0.681438669100E+03    0.10831E-03   -0.10605E-04  8776   0.187E-02    0.153E-01
RMM:   9    -0.681438584814E+03    0.84286E-04   -0.51773E-05  8470   0.135E-02
   9 F= -.68143858E+03 E0= -.68087037E+03  d E =-.113428E-01  mag=     3.1571
 trial-energy change:   -0.011343  1 .order   -0.011255   -0.022158   -0.000352
 step:   0.0817(harm=  0.0817)  dis= 0.00246  next Energy=  -681.438500 (dE=-0.113E-01)
 bond charge predicted
       N       E                     dE             d eps       ncg     rms          rms(c)
DAV:   1    -0.681438575570E+03    0.93530E-04   -0.22253E-04 10928   0.299E-02    0.519E-02
RMM:   2    -0.681439068980E+03   -0.49341E-03   -0.12925E-04  8228   0.219E-02    0.273E-01
RMM:   3    -0.681438738356E+03    0.33062E-03   -0.66312E-05  8081   0.176E-02    0.179E-01
RMM:   4    -0.681438588938E+03    0.14942E-03   -0.18358E-05  7788   0.893E-03    0.557E-02
RMM:   5    -0.681438563227E+03    0.25711E-04   -0.77519E-06  6879   0.527E-03    0.350E-02
RMM:   6    -0.681438551375E+03    0.11853E-04   -0.31191E-06  5270   0.383E-03    0.166E-02
RMM:   7    -0.681438542072E+03    0.93022E-05   -0.77929E-07  3206   0.291E-03    0.110E-02
RMM:   8    -0.681438533078E+03    0.89945E-05   -0.66192E-07  3002   0.287E-03
  10 F= -.68143853E+03 E0= -.68087032E+03  d E =-.112911E-01  mag=     3.1569
 curvature:  -0.05 expect dE=-0.471E-02 dE for cont linesearch -0.190E-06
 trial: gam= 0.28197 g(F)=  0.857E-01 g(S)=  0.000E+00 ort = 0.113E-02 (trialstep = 0.806E-01)
 search vector abs. value=  0.116E+00
 bond charge predicted
       N       E                     dE             d eps       ncg     rms          rms(c)
DAV:   1    -0.681441494741E+03   -0.29527E-02   -0.16394E-01 15584   0.543E-01    0.222E-01
RMM:   2    -0.681442368266E+03   -0.87353E-03   -0.35849E-03 14673   0.111E-01    0.437E-01
RMM:   3    -0.681442041868E+03    0.32640E-03   -0.87202E-04 13632   0.458E-02    0.349E-01
RMM:   4    -0.681443474270E+03   -0.14324E-02   -0.19158E-04  9316   0.253E-02    0.568E-01
RMM:   5    -0.681441917164E+03    0.15571E-02   -0.35192E-04 11063   0.310E-02    0.295E-01
RMM:   6    -0.681442185244E+03   -0.26808E-03   -0.35613E-04 11195   0.312E-02    0.282E-01
RMM:   7    -0.681441832532E+03    0.35271E-03   -0.18819E-04  9270   0.244E-02    0.154E-01
RMM:   8    -0.681441808203E+03    0.24329E-04   -0.60408E-05  8236   0.159E-02
  11 F= -.68144181E+03 E0= -.68087358E+03  d E =-.327513E-02  mag=     3.1568
 trial-energy change:   -0.003275  1 .order   -0.003117   -0.006939    0.000705
 step:   0.0732(harm=  0.0732)  dis= 0.00208  next Energy=  -681.441683 (dE=-0.315E-02)
 bond charge predicted
       N       E                     dE             d eps       ncg     rms          rms(c)
DAV:   1    -0.681441828997E+03    0.35352E-05   -0.14937E-03 15040   0.553E-02    0.796E-02
RMM:   2    -0.681441923994E+03   -0.94997E-04   -0.11568E-04  8267   0.185E-02    0.137E-01
RMM:   3    -0.681442197862E+03   -0.27387E-03   -0.79679E-05  8078   0.176E-02    0.252E-01
RMM:   4    -0.681441798530E+03    0.39933E-03   -0.25838E-05  8019   0.111E-02    0.735E-02
RMM:   5    -0.681441811319E+03   -0.12789E-04   -0.22137E-05  7345   0.799E-03    0.806E-02
RMM:   6    -0.681441759095E+03    0.52224E-04   -0.21668E-05  7657   0.838E-03    0.376E-02
RMM:   7    -0.681441745429E+03    0.13666E-04   -0.87783E-06  6846   0.599E-03    0.244E-02
RMM:   8    -0.681441738165E+03    0.72636E-05   -0.35764E-06  5719   0.403E-03
  12 F= -.68144174E+03 E0= -.68087357E+03  d E =-.320509E-02  mag=     3.1561
 curvature:  -0.05 expect dE=-0.268E-02 dE for cont linesearch -0.210E-06
 trial: gam= 0.63849 g(F)=  0.543E-01 g(S)=  0.000E+00 ort = 0.703E-03 (trialstep = 0.791E-01)
 search vector abs. value=  0.102E+00
 bond charge predicted
       N       E                     dE             d eps       ncg     rms          rms(c)
DAV:   1    -0.681443859982E+03   -0.21146E-02   -0.12905E-01 15504   0.439E-01    0.200E-01
RMM:   2    -0.681444560494E+03   -0.70051E-03   -0.25074E-03 14548   0.951E-02    0.368E-01
RMM:   3    -0.681444168780E+03    0.39171E-03   -0.64290E-04 12957   0.401E-02    0.236E-01
RMM:   4    -0.681444719307E+03   -0.55053E-03   -0.16734E-04  9089   0.233E-02    0.352E-01
RMM:   5    -0.681444489131E+03    0.23018E-03   -0.36117E-04 11280   0.310E-02    0.282E-01
RMM:   6    -0.681444162131E+03    0.32700E-03   -0.21819E-04  9518   0.277E-02    0.157E-01
RMM:   7    -0.681444079074E+03    0.83056E-04   -0.73919E-05  8238   0.182E-02    0.689E-02
RMM:   8    -0.681444068455E+03    0.10619E-04   -0.24768E-05  7533   0.891E-03
  13 F= -.68144407E+03 E0= -.68087603E+03  d E =-.233029E-02  mag=     3.1557
 trial-energy change:   -0.002330  1 .order   -0.002280   -0.004334   -0.000227
 step:   0.0835(harm=  0.0835)  dis= 0.00144  next Energy=  -681.444025 (dE=-0.229E-02)
 bond charge predicted
       N       E                     dE             d eps       ncg     rms          rms(c)
DAV:   1    -0.681444076808E+03    0.22665E-05   -0.43332E-04 14944   0.292E-02    0.286E-02
RMM:   2    -0.681444173333E+03   -0.96526E-04   -0.40135E-05  8006   0.104E-02    0.124E-01
RMM:   3    -0.681444110154E+03    0.63180E-04   -0.20196E-05  7918   0.987E-03    0.802E-02
RMM:   4    -0.681444076557E+03    0.33597E-04   -0.55779E-06  6564   0.481E-03    0.291E-02
RMM:   5    -0.681444071404E+03    0.51536E-05   -0.19524E-06  4736   0.351E-03    0.139E-02
RMM:   6    -0.681444064409E+03    0.69947E-05   -0.99346E-07  3461   0.301E-03    0.205E-02
RMM:   7    -0.681444059467E+03    0.49423E-05   -0.26317E-07  2620   0.269E-03    0.107E-02
RMM:   8    -0.681444056349E+03    0.31176E-05   -0.43371E-08  1498   0.253E-03
  14 F= -.68144406E+03 E0= -.68087599E+03  d E =-.231818E-02  mag=     3.1550
 curvature:  -0.08 expect dE=-0.282E-02 dE for cont linesearch -0.693E-06
 trial: gam= 0.64258 g(F)=  0.361E-01 g(S)=  0.000E+00 ort = 0.953E-03 (trialstep = 0.800E-01)
 search vector abs. value=  0.796E-01
 bond charge predicted
       N       E                     dE             d eps       ncg     rms          rms(c)
DAV:   1    -0.681445292511E+03   -0.12330E-02   -0.10389E-01 15472   0.409E-01    0.134E-01
RMM:   2    -0.681445593370E+03   -0.30086E-03   -0.19306E-03 14590   0.871E-02    0.200E-01
RMM:   3    -0.681445521242E+03    0.72128E-04   -0.47478E-04 12194   0.364E-02    0.123E-01
RMM:   4    -0.681446402766E+03   -0.88152E-03   -0.17123E-04  9155   0.229E-02    0.376E-01
RMM:   5    -0.681445639642E+03    0.76312E-03   -0.12554E-04  8711   0.215E-02    0.211E-01
RMM:   6    -0.681445466763E+03    0.17288E-03   -0.76524E-05  8315   0.177E-02    0.811E-02
RMM:   7    -0.681445464655E+03    0.21080E-05   -0.32288E-05  7978   0.110E-02    0.414E-02
RMM:   8    -0.681445465072E+03   -0.41752E-06   -0.14501E-05  7088   0.698E-03
  15 F= -.68144547E+03 E0= -.68087740E+03  d E =-.140872E-02  mag=     3.1544
 trial-energy change:   -0.001409  1 .order   -0.001334   -0.002938    0.000271
 step:   0.0733(harm=  0.0733)  dis= 0.00120  next Energy=  -681.445401 (dE=-0.135E-02)
 bond charge predicted
       N       E                     dE             d eps       ncg     rms          rms(c)
DAV:   1    -0.681445470022E+03   -0.53670E-05   -0.75754E-04 14736   0.361E-02    0.212E-02
RMM:   2    -0.681445613203E+03   -0.14318E-03   -0.31124E-05  8012   0.100E-02    0.148E-01
RMM:   3    -0.681445468612E+03    0.14459E-03   -0.12482E-05  7806   0.784E-03    0.360E-02
RMM:   4    -0.681445471137E+03   -0.25242E-05   -0.35329E-06  5966   0.415E-03    0.189E-02
RMM:   5    -0.681445469059E+03    0.20781E-05   -0.45466E-07  3018   0.287E-03    0.104E-02
RMM:   6    -0.681445468699E+03    0.35999E-06   -0.13481E-07  1587   0.263E-03    0.834E-03
RMM:   7    -0.681445467889E+03    0.80926E-06   -0.78913E-07  2465   0.296E-03    0.102E-02
RMM:   8    -0.681445467594E+03    0.29509E-06   -0.52017E-07  2009   0.278E-03
  16 F= -.68144547E+03 E0= -.68087738E+03  d E =-.141125E-02  mag=     3.1537
 curvature:  -0.08 expect dE=-0.593E-03 dE for cont linesearch -0.307E-06
 trial: gam= 0.23662 g(F)=  0.747E-02 g(S)=  0.000E+00 ort = 0.554E-03 (trialstep = 0.787E-01)
 search vector abs. value=  0.122E-01
 bond charge predicted
       N       E                     dE             d eps       ncg     rms          rms(c)
DAV:   1    -0.681445734448E+03   -0.26656E-03   -0.15499E-02 15712   0.167E-01    0.423E-02
RMM:   2    -0.681445803562E+03   -0.69114E-04   -0.32061E-04 10372   0.361E-02    0.108E-01
RMM:   3    -0.681445784275E+03    0.19287E-04   -0.67296E-05  8090   0.171E-02    0.765E-02
RMM:   4    -0.681445771160E+03    0.13115E-04   -0.19692E-05  7708   0.933E-03    0.629E-02
RMM:   5    -0.681445779148E+03   -0.79885E-05   -0.10487E-05  7334   0.621E-03    0.657E-02
RMM:   6    -0.681445762238E+03    0.16911E-04   -0.89331E-06  7381   0.578E-03    0.492E-02
RMM:   7    -0.681445753767E+03    0.84706E-05   -0.79329E-06  7086   0.528E-03    0.177E-02
RMM:   8    -0.681445754544E+03   -0.77661E-06   -0.24117E-06  5393   0.371E-03
  17 F= -.68144575E+03 E0= -.68087765E+03  d E =-.286950E-03  mag=     3.1530
 trial-energy change:   -0.000287  1 .order   -0.000299   -0.000598   -0.000001
 step:   0.0788(harm=  0.0788)  dis= 0.00070  next Energy=  -681.445767 (dE=-0.299E-03)
 bond charge predicted
       N       E                     dE             d eps       ncg     rms          rms(c)
DAV:   1    -0.681445755499E+03   -0.17322E-05   -0.70795E-06  8864   0.557E-03    0.141E-02
RMM:   2    -0.681445823995E+03   -0.68496E-04   -0.66376E-06  6382   0.436E-03    0.103E-01
RMM:   3    -0.681445759771E+03    0.64224E-04   -0.51757E-06  6220   0.502E-03    0.348E-02
RMM:   4    -0.681445757239E+03    0.25320E-05   -0.71669E-07  3528   0.270E-03    0.122E-02
RMM:   5    -0.681445756568E+03    0.67137E-06   -0.49082E-08  1331   0.216E-03    0.778E-03
RMM:   6    -0.681445756984E+03   -0.41572E-06   -0.95434E-09  1119   0.209E-03    0.693E-03
RMM:   7    -0.681445757565E+03   -0.58116E-06   -0.60652E-09  1166   0.212E-03    0.446E-03
RMM:   8    -0.681445758517E+03   -0.95172E-06   -0.10217E-08  1068   0.218E-03
  18 F= -.68144576E+03 E0= -.68087765E+03  d E =-.290922E-03  mag=     3.1524
 curvature:  -0.06 expect dE=-0.462E-03 dE for cont linesearch -0.147E-07
 trial: gam= 0.94413 g(F)=  0.731E-02 g(S)=  0.000E+00 ort = 0.532E-04 (trialstep = 0.525E-01)
 search vector abs. value=  0.183E-01
 bond charge predicted
       N       E                     dE             d eps       ncg     rms          rms(c)
DAV:   1    -0.681446080677E+03   -0.32311E-03   -0.97860E-03 15600   0.117E-01    0.369E-02
RMM:   2    -0.681446124455E+03   -0.43778E-04   -0.19774E-04  8969   0.280E-02    0.968E-02
RMM:   3    -0.681446098481E+03    0.25973E-04   -0.40422E-05  7965   0.140E-02    0.425E-02
RMM:   4    -0.681446126510E+03   -0.28029E-04   -0.14694E-05  7165   0.711E-03    0.871E-02
RMM:   5    -0.681446133456E+03   -0.69458E-05   -0.10645E-05  7287   0.609E-03    0.815E-02
RMM:   6    -0.681446094557E+03    0.38899E-04   -0.64157E-06  7122   0.518E-03    0.284E-02
RMM:   7    -0.681446098633E+03   -0.40759E-05   -0.39584E-06  6043   0.393E-03    0.264E-02
RMM:   8    -0.681446100708E+03   -0.20753E-05   -0.12338E-06  3641   0.310E-03
  19 F= -.68144610E+03 E0= -.68087803E+03  d E =-.342191E-03  mag=     3.1518
 trial-energy change:   -0.000342  1 .order   -0.000327   -0.000386   -0.000267
 step:   0.1705(harm=  0.1705)  dis= 0.00207  next Energy=  -681.446386 (dE=-0.628E-03)
 bond charge predicted
       N       E                     dE             d eps       ncg     rms          rms(c)
DAV:   1    -0.681446346194E+03   -0.24756E-03   -0.49675E-02 15360   0.264E-01    0.842E-02
RMM:   2    -0.681446589588E+03   -0.24339E-03   -0.96419E-04 14149   0.623E-02    0.229E-01
RMM:   3    -0.681446468979E+03    0.12061E-03   -0.25328E-04  9807   0.259E-02    0.141E-01
RMM:   4    -0.681446510400E+03   -0.41421E-04   -0.54359E-05  8227   0.164E-02    0.154E-01
RMM:   5    -0.681446514499E+03   -0.40989E-05   -0.56472E-05  8152   0.128E-02    0.157E-01
RMM:   6    -0.681446420286E+03    0.94213E-04   -0.38059E-05  8054   0.124E-02    0.833E-02
RMM:   7    -0.681446407698E+03    0.12588E-04   -0.35385E-05  7985   0.104E-02    0.473E-02
RMM:   8    -0.681446407966E+03   -0.26771E-06   -0.12666E-05  7106   0.731E-03
  20 F= -.68144641E+03 E0= -.68087847E+03  d E =-.649449E-03  mag=     3.1512
 curvature:  -0.21 expect dE=-0.105E-02 dE for cont linesearch -0.360E-07
 trial: gam= 0.65583 g(F)=  0.497E-02 g(S)=  0.000E+00 ort = 0.558E-04 (trialstep = 0.761E-01)
 search vector abs. value=  0.129E-01
 bond charge predicted
       N       E                     dE             d eps       ncg     rms          rms(c)
DAV:   1    -0.681446494952E+03   -0.87254E-04   -0.15517E-02 15584   0.165E-01    0.486E-02
RMM:   2    -0.681446555802E+03   -0.60849E-04   -0.33735E-04 10717   0.370E-02    0.105E-01
RMM:   3    -0.681446527505E+03    0.28297E-04   -0.73698E-05  8078   0.171E-02    0.582E-02
RMM:   4    -0.681446587964E+03   -0.60459E-04   -0.26433E-05  7932   0.976E-03    0.111E-01
RMM:   5    -0.681446593503E+03   -0.55389E-05   -0.22000E-05  7665   0.823E-03    0.126E-01
RMM:   6    -0.681446514667E+03    0.78836E-04   -0.10632E-05  7294   0.709E-03    0.648E-02
RMM:   7    -0.681446500627E+03    0.14040E-04   -0.24305E-06  5825   0.393E-03    0.441E-02
RMM:   8    -0.681446496707E+03    0.39197E-05   -0.15690E-06  3853   0.315E-03
  21 F= -.68144650E+03 E0= -.68087856E+03  d E =-.887413E-04  mag=     3.1503
 trial-energy change:   -0.000089  1 .order   -0.000115   -0.000381    0.000151
 step:   0.0545(harm=  0.0545)  dis= 0.00051  next Energy=  -681.446545 (dE=-0.137E-03)
 bond charge predicted
       N       E                     dE             d eps       ncg     rms          rms(c)
DAV:   1    -0.681446505900E+03   -0.52732E-05   -0.12633E-03 14720   0.480E-02    0.253E-02
RMM:   2    -0.681446758199E+03   -0.25230E-03   -0.55800E-05  8012   0.137E-02    0.197E-01
RMM:   3    -0.681446505762E+03    0.25244E-03   -0.21370E-05  8015   0.107E-02    0.483E-02
RMM:   4    -0.681446508113E+03   -0.23514E-05   -0.47697E-06  6679   0.477E-03    0.173E-02
RMM:   5    -0.681446508806E+03   -0.69317E-06   -0.68956E-07  3519   0.303E-03    0.155E-02
RMM:   6    -0.681446511377E+03   -0.25703E-05   -0.14681E-07  2043   0.280E-03    0.166E-02
RMM:   7    -0.681446513562E+03   -0.21850E-05   -0.13999E-06  3659   0.317E-03    0.824E-03
RMM:   8    -0.681446515743E+03   -0.21810E-05   -0.34535E-07  1976   0.267E-03
  22 F= -.68144652E+03 E0= -.68087860E+03  d E =-.107777E-03  mag=     3.1495
 curvature:  -0.07 expect dE=-0.141E-03 dE for cont linesearch -0.271E-06
 trial: gam= 0.37780 g(F)=  0.201E-02 g(S)=  0.000E+00 ort = 0.223E-03 (trialstep = 0.718E-01)
 search vector abs. value=  0.403E-02
 bond charge predicted
       N       E                     dE             d eps       ncg     rms          rms(c)
DAV:   1    -0.681446611666E+03   -0.98105E-04   -0.41715E-03 15456   0.838E-02    0.249E-02
RMM:   2    -0.681446724997E+03   -0.11333E-03   -0.89700E-05  8052   0.188E-02    0.132E-01
RMM:   3    -0.681446631194E+03    0.93803E-04   -0.18580E-05  7952   0.101E-02    0.562E-02
RMM:   4    -0.681446645531E+03   -0.14337E-04   -0.54350E-06  6676   0.445E-03    0.695E-02
RMM:   5    -0.681446639788E+03    0.57429E-05   -0.50539E-06  6517   0.449E-03    0.536E-02
RMM:   6    -0.681446628800E+03    0.10987E-04   -0.32434E-06  6137   0.402E-03    0.272E-02
RMM:   7    -0.681446631345E+03   -0.25446E-05   -0.76054E-07  3385   0.308E-03    0.173E-02
RMM:   8    -0.681446632605E+03   -0.12605E-05   -0.21819E-07  1987   0.284E-03
  23 F= -.68144663E+03 E0= -.68087878E+03  d E =-.116863E-03  mag=     3.1488
 trial-energy change:   -0.000117  1 .order   -0.000098   -0.000151   -0.000045
 step:   0.1026(harm=  0.1026)  dis= 0.00047  next Energy=  -681.446623 (dE=-0.108E-03)
 reached required accuracy - stopping structural energy minimisation
 writing wavefunctions
