 ----------------------------------------------------
    OOO  PPPP  EEEEE N   N M   M PPPP
   O   O P   P E     NN  N MM MM P   P
   O   O PPPP  EEEEE N N N M M M PPPP   -- VERSION
   O   O P     E     N  NN M   M P
    OOO  P     EEEEE N   N M   M P
 ----------------------------------------------------
 running   16 mpi-ranks, with    4 threads/rank
 distrk:  each k-point on   16 cores,    1 groups
 distr:  one band on    1 cores,   16 groups
 vasp.6.2.1 16May21 (build Jul 28 2021 23:24:15) complex                        
  
 POSCAR found type information on POSCAR H IrO 
 POSCAR found :  3 types and     106 ions
 scaLAPACK will be used
 -----------------------------------------------------------------------------
|                                                                             |
|           W    W    AA    RRRRR   N    N  II  N    N   GGGG   !!!           |
|           W    W   A  A   R    R  NN   N  II  NN   N  G    G  !!!           |
|           W    W  A    A  R    R  N N  N  II  N N  N  G       !!!           |
|           W WW W  AAAAAA  RRRRR   N  N N  II  N  N N  G  GGG   !            |
|           WW  WW  A    A  R   R   N   NN  II  N   NN  G    G                |
|           W    W  A    A  R    R  N    N  II  N    N   GGGG   !!!           |
|                                                                             |
|     The real-space projection scheme for the treatment of the non-local     |
|     pseudopotentials has been switched on but on file POTCAR I have not     |
|     found any entries, signalling me that you have never performed a        |
|     real-space optimization of all non-local projectors! BE WARNED that     |
|     a calculation using the real-space projection scheme together with      |
|     non-local projectors which were not real-space optimized (according     |
|     to the plane-wave cutoff used in this calculation) might give more      |
|     or less inaccurate results. I hope you know what you are doing.         |
|                                                                             |
 -----------------------------------------------------------------------------

 LDA part: xc-table for Pade appr. of Perdew
 POSCAR, INCAR and KPOINTS ok, starting setup
 FFT: planning ...
 WAVECAR not read
 WARNING: random wavefunctions but no delay for mixing, default for NELMDL
 entering main loop
       N       E                     dE             d eps       ncg     rms          rms(c)
DAV:   1     0.783443624130E+04    0.78344E+04   -0.31216E+05 13664   0.127E+03
DAV:   2     0.606325884502E+03   -0.72281E+04   -0.65371E+04 14544   0.373E+02
DAV:   3    -0.790157733518E+03   -0.13965E+04   -0.13382E+04 17088   0.165E+02
DAV:   4    -0.866491783435E+03   -0.76334E+02   -0.74346E+02 18592   0.429E+01
DAV:   5    -0.868170227681E+03   -0.16784E+01   -0.16527E+01 17360   0.593E+00    0.197E+02
RMM:   6    -0.765148616951E+03    0.10302E+03   -0.71045E+02 13484   0.426E+01    0.206E+02
RMM:   7    -0.106108961411E+04   -0.29594E+03   -0.26293E+02 14151   0.262E+01    0.359E+02
RMM:   8    -0.934805879803E+03    0.12628E+03   -0.76257E+01 16150   0.977E+00    0.325E+02
RMM:   9    -0.122153139948E+04   -0.28673E+03   -0.35777E+02 18799   0.246E+01    0.363E+02
RMM:  10    -0.878830864893E+03    0.34270E+03   -0.11380E+02 15640   0.151E+01    0.179E+02
RMM:  11    -0.730012802951E+03    0.14882E+03   -0.31711E+01 13450   0.973E+00    0.113E+02
RMM:  12    -0.669344341181E+03    0.60668E+02   -0.65206E+01 15809   0.108E+01    0.845E+01
RMM:  13    -0.654910288343E+03    0.14434E+02   -0.97148E+00 14289   0.507E+00    0.723E+01
RMM:  14    -0.646008947924E+03    0.89013E+01   -0.70131E+00 14010   0.375E+00    0.511E+01
RMM:  15    -0.648601285079E+03   -0.25923E+01   -0.38738E+00 13841   0.322E+00    0.508E+01
RMM:  16    -0.652537416761E+03   -0.39361E+01   -0.45062E+00 14392   0.313E+00    0.419E+01
RMM:  17    -0.658817679730E+03   -0.62803E+01   -0.54249E+00 15149   0.323E+00    0.305E+01
RMM:  18    -0.664322877247E+03   -0.55052E+01   -0.33925E+00 14155   0.272E+00    0.297E+01
RMM:  19    -0.669787899399E+03   -0.54650E+01   -0.31937E+00 14633   0.260E+00    0.234E+01
RMM:  20    -0.678346961552E+03   -0.85591E+01   -0.63685E+00 16575   0.342E+00    0.201E+01
RMM:  21    -0.679967869033E+03   -0.16209E+01   -0.13964E+00 13879   0.181E+00    0.173E+01
RMM:  22    -0.683237491944E+03   -0.32696E+01   -0.17271E+00 14528   0.181E+00    0.151E+01
RMM:  23    -0.685951229377E+03   -0.27137E+01   -0.86402E-01 13667   0.147E+00    0.135E+01
RMM:  24    -0.687716721717E+03   -0.17655E+01   -0.42786E-01 13591   0.100E+00    0.128E+01
RMM:  25    -0.689806364904E+03   -0.20896E+01   -0.40869E-01 13989   0.922E-01    0.130E+01
RMM:  26    -0.693591567989E+03   -0.37852E+01   -0.85828E-01 15526   0.125E+00    0.138E+01
RMM:  27    -0.696425678172E+03   -0.28341E+01   -0.11072E+00 16724   0.134E+00    0.122E+01
RMM:  28    -0.697856200166E+03   -0.14305E+01   -0.34879E-01 14383   0.791E-01    0.100E+01
RMM:  29    -0.699770220780E+03   -0.19140E+01   -0.28525E-01 14746   0.710E-01    0.870E+00
RMM:  30    -0.701013550645E+03   -0.12433E+01   -0.27207E-01 15177   0.667E-01    0.644E+00
RMM:  31    -0.702153072937E+03   -0.11395E+01   -0.20711E-01 14747   0.585E-01    0.550E+00
RMM:  32    -0.703755153894E+03   -0.16021E+01   -0.26927E-01 15854   0.651E-01    0.503E+00
RMM:  33    -0.705272187295E+03   -0.15170E+01   -0.30445E-01 16520   0.655E-01    0.357E+00
RMM:  34    -0.705846852774E+03   -0.57467E+00   -0.11174E-01 14408   0.419E-01    0.308E+00
RMM:  35    -0.706415702993E+03   -0.56885E+00   -0.98197E-02 14882   0.391E-01    0.338E+00
RMM:  36    -0.706750923929E+03   -0.33522E+00   -0.57907E-02 14315   0.316E-01    0.268E+00
RMM:  37    -0.707097706708E+03   -0.34678E+00   -0.45057E-02 14506   0.261E-01    0.238E+00
RMM:  38    -0.707525015196E+03   -0.42731E+00   -0.57233E-02 15345   0.287E-01    0.240E+00
RMM:  39    -0.707960541654E+03   -0.43553E+00   -0.53135E-02 15402   0.277E-01    0.220E+00
RMM:  40    -0.708145263320E+03   -0.18472E+00   -0.31552E-02 14775   0.216E-01    0.189E+00
RMM:  41    -0.708337805332E+03   -0.19254E+00   -0.31820E-02 15412   0.218E-01    0.185E+00
RMM:  42    -0.708461185558E+03   -0.12338E+00   -0.14971E-02 14323   0.159E-01    0.163E+00
RMM:  43    -0.708585071692E+03   -0.12389E+00   -0.14177E-02 14895   0.140E-01    0.135E+00
RMM:  44    -0.708688913218E+03   -0.10384E+00   -0.52674E-03 13505   0.938E-02    0.111E+00
RMM:  45    -0.708791782863E+03   -0.10287E+00   -0.49684E-03 14437   0.875E-02    0.890E-01
RMM:  46    -0.708842557672E+03   -0.50775E-01   -0.20465E-03 13207   0.598E-02    0.734E-01
RMM:  47    -0.708902053497E+03   -0.59496E-01   -0.95311E-04 12542   0.447E-02    0.529E-01
RMM:  48    -0.708987712420E+03   -0.85659E-01   -0.92618E-04 12850   0.399E-02    0.454E-01
RMM:  49    -0.709062301804E+03   -0.74589E-01   -0.69100E-04 12200   0.349E-02    0.358E-01
RMM:  50    -0.709107192614E+03   -0.44891E-01   -0.53118E-04 11632   0.317E-02    0.218E-01
RMM:  51    -0.709121055708E+03   -0.13863E-01   -0.58822E-04 11820   0.311E-02    0.132E-01
RMM:  52    -0.709149172196E+03   -0.28116E-01   -0.14997E-04  8229   0.200E-02    0.960E-02
RMM:  53    -0.709158329105E+03   -0.91569E-02   -0.72358E-05  8176   0.154E-02    0.607E-02
RMM:  54    -0.709172183777E+03   -0.13855E-01   -0.62391E-05  8126   0.114E-02    0.762E-02
RMM:  55    -0.709176124866E+03   -0.39411E-02   -0.46615E-05  7553   0.930E-03    0.673E-02
RMM:  56    -0.709170371407E+03    0.57535E-02   -0.27815E-05  8002   0.827E-03    0.295E-02
RMM:  57    -0.709175570535E+03   -0.51991E-02   -0.27593E-05  7036   0.593E-03    0.249E-02
RMM:  58    -0.709178257905E+03   -0.26874E-02   -0.16960E-05  6436   0.532E-03    0.239E-02
RMM:  59    -0.709179061905E+03   -0.80400E-03   -0.74987E-06  5504   0.451E-03    0.156E-02
RMM:  60    -0.709180003571E+03   -0.94167E-03   -0.77151E-06  5326   0.392E-03    0.144E-02
RMM:  61    -0.709179840955E+03    0.16262E-03   -0.21160E-06  4055   0.344E-03    0.139E-02
RMM:  62    -0.709180749963E+03   -0.90901E-03   -0.39029E-06  4347   0.328E-03    0.108E-02
RMM:  63    -0.709180977607E+03   -0.22764E-03   -0.21347E-06  3802   0.305E-03    0.757E-03
RMM:  64    -0.709181168817E+03   -0.19121E-03   -0.88121E-07  3150   0.286E-03    0.770E-03
RMM:  65    -0.709181281425E+03   -0.11261E-03   -0.40649E-07  2698   0.276E-03    0.586E-03
RMM:  66    -0.709181424537E+03   -0.14311E-03   -0.82277E-07  2800   0.284E-03    0.412E-03
RMM:  67    -0.709181516450E+03   -0.91913E-04   -0.58998E-07  2581   0.282E-03
   1 F= -.70918152E+03 E0= -.70856158E+03  d E =-.709182E+03  mag=     7.3006
 curvature:   0.00 expect dE= 0.000E+00 dE for cont linesearch  0.000E+00
 trial: gam= 0.00000 g(F)=  0.746E+00 g(S)=  0.000E+00 ort = 0.000E+00 (trialstep = 0.100E+01)
 search vector abs. value=  0.746E+00
 bond charge predicted
       N       E                     dE             d eps       ncg     rms          rms(c)
DAV:   1    -0.708750942025E+03    0.43048E+00   -0.17094E+02 13888   0.179E+01    0.444E+00
RMM:   2    -0.710080050259E+03   -0.13291E+01   -0.39559E+00 13440   0.335E+00    0.130E+01
RMM:   3    -0.709338045515E+03    0.74200E+00   -0.89273E-01 14360   0.147E+00    0.699E+00
RMM:   4    -0.709348520570E+03   -0.10475E-01   -0.25705E-01 13586   0.822E-01    0.679E+00
RMM:   5    -0.709119907237E+03    0.22861E+00   -0.64817E-02 13459   0.500E-01    0.263E+00
RMM:   6    -0.709115507086E+03    0.44002E-02   -0.42047E-02 13536   0.328E-01    0.245E+00
RMM:   7    -0.709083739120E+03    0.31768E-01   -0.36005E-02 13893   0.294E-01    0.144E+00
RMM:   8    -0.709076477991E+03    0.72611E-02   -0.17747E-02 13633   0.217E-01    0.948E-01
RMM:   9    -0.709071242943E+03    0.52350E-02   -0.76715E-03 13628   0.149E-01    0.509E-01
RMM:  10    -0.709070341413E+03    0.90153E-03   -0.22707E-03 14269   0.705E-02    0.286E-01
RMM:  11    -0.709071012545E+03   -0.67113E-03   -0.46999E-04 11322   0.343E-02    0.224E-01
RMM:  12    -0.709072685437E+03   -0.16729E-02   -0.69277E-04 12002   0.365E-02    0.168E-01
RMM:  13    -0.709074496007E+03   -0.18106E-02   -0.67325E-04 11932   0.350E-02    0.773E-02
RMM:  14    -0.709075675871E+03   -0.11799E-02   -0.15963E-04  8291   0.208E-02    0.799E-02
RMM:  15    -0.709076344840E+03   -0.66897E-03   -0.47847E-05  7765   0.144E-02    0.637E-02
RMM:  16    -0.709076959222E+03   -0.61438E-03   -0.23199E-05  7142   0.710E-03    0.592E-02
RMM:  17    -0.709076791764E+03    0.16746E-03   -0.60977E-06  6313   0.546E-03    0.599E-02
RMM:  18    -0.709076899558E+03   -0.10779E-03   -0.13477E-06  3525   0.286E-03    0.616E-02
RMM:  19    -0.709076904086E+03   -0.45281E-05   -0.49459E-07  3165   0.282E-03
   2 F= -.70907690E+03 E0= -.70845583E+03  d E =0.104612E+00  mag=     7.3953
 trial-energy change:    0.104612  1 .order   -0.055075   -0.746433    0.636283
 step:   0.3771(harm=  0.5398)  dis= 0.01971  next Energy=  -709.313684 (dE=-0.132E+00)
 bond charge predicted
       N       E                     dE             d eps       ncg     rms          rms(c)
DAV:   1    -0.709176432061E+03   -0.99533E-01   -0.65988E+01 13808   0.111E+01    0.336E+00
RMM:   2    -0.709913271485E+03   -0.73684E+00   -0.18306E+00 13440   0.228E+00    0.101E+01
RMM:   3    -0.709626807053E+03    0.28646E+00   -0.33077E-01 13566   0.102E+00    0.751E+00
RMM:   4    -0.709350139331E+03    0.27667E+00   -0.11248E-01 13656   0.569E-01    0.317E+00
RMM:   5    -0.709310695347E+03    0.39444E-01   -0.44140E-02 13725   0.350E-01    0.157E+00
RMM:   6    -0.709316131078E+03   -0.54357E-02   -0.15658E-02 13509   0.218E-01    0.170E+00
RMM:   7    -0.709305814590E+03    0.10316E-01   -0.10193E-02 13632   0.169E-01    0.112E+00
RMM:   8    -0.709303007340E+03    0.28073E-02   -0.13729E-02 14241   0.163E-01    0.521E-01
RMM:   9    -0.709302377653E+03    0.62969E-03   -0.23132E-03 13075   0.877E-02    0.317E-01
RMM:  10    -0.709302609540E+03   -0.23189E-03   -0.78574E-04 12342   0.456E-02    0.296E-01
RMM:  11    -0.709302601924E+03    0.76158E-05   -0.24628E-04  9221   0.256E-02
   3 F= -.70930260E+03 E0= -.70868318E+03  d E =-.121085E+00  mag=     7.3988
 curvature:  -0.24 expect dE=-0.204E+00 dE for cont linesearch -0.417E-03
 trial: gam= 1.11060 g(F)=  0.865E+00 g(S)=  0.000E+00 ort = 0.363E-01 (trialstep = 0.350E+00)
 search vector abs. value=  0.187E+01
 bond charge predicted
       N       E                     dE             d eps       ncg     rms          rms(c)
DAV:   1    -0.709138658462E+03    0.16395E+00   -0.52262E+01 13792   0.106E+01    0.199E+00
RMM:   2    -0.709242434139E+03   -0.10378E+00   -0.99277E-01 13440   0.168E+00    0.234E+00
RMM:   3    -0.709314361312E+03   -0.71927E-01   -0.16032E-01 13891   0.688E-01    0.374E+00
RMM:   4    -0.709263474828E+03    0.50886E-01   -0.34826E-02 13854   0.342E-01    0.201E+00
RMM:   5    -0.709260008629E+03    0.34662E-02   -0.21101E-02 13584   0.240E-01    0.226E+00
RMM:   6    -0.709240401386E+03    0.19607E-01   -0.95071E-03 13480   0.172E-01    0.941E-01
RMM:   7    -0.709239443059E+03    0.95833E-03   -0.62849E-03 13680   0.129E-01    0.706E-01
RMM:   8    -0.709237671116E+03    0.17719E-02   -0.26738E-03 13094   0.931E-02    0.406E-01
RMM:   9    -0.709236665935E+03    0.10052E-02   -0.91761E-04 12514   0.537E-02    0.172E-01
RMM:  10    -0.709236841041E+03   -0.17511E-03   -0.33576E-04  9687   0.262E-02    0.121E-01
RMM:  11    -0.709237082347E+03   -0.24131E-03   -0.92270E-05  8028   0.181E-02    0.126E-01
RMM:  12    -0.709237448766E+03   -0.36642E-03   -0.96365E-05  8004   0.151E-02    0.813E-02
RMM:  13    -0.709237862789E+03   -0.41402E-03   -0.87484E-05  8004   0.145E-02    0.395E-02
RMM:  14    -0.709238019440E+03   -0.15665E-03   -0.23177E-05  7391   0.993E-03    0.274E-02
RMM:  15    -0.709238147763E+03   -0.12832E-03   -0.82043E-06  6463   0.506E-03    0.232E-02
RMM:  16    -0.709238272359E+03   -0.12460E-03   -0.36020E-06  5134   0.387E-03    0.210E-02
RMM:  17    -0.709238420831E+03   -0.14847E-03   -0.31298E-06  4578   0.347E-03    0.209E-02
RMM:  18    -0.709238494633E+03   -0.73802E-04   -0.17004E-06  3824   0.319E-03
   4 F= -.70923849E+03 E0= -.70861761E+03  d E =0.641073E-01  mag=     7.3703
 trial-energy change:    0.064107  1 .order   -0.014790   -0.317028    0.287448
 step:   0.1215(harm=  0.1836)  dis= 0.01337  next Energy=  -709.354311 (dE=-0.517E-01)
 bond charge predicted
       N       E                     dE             d eps       ncg     rms          rms(c)
DAV:   1    -0.709325077651E+03   -0.86657E-01   -0.22273E+01 13776   0.693E+00    0.134E+00
RMM:   2    -0.709374342247E+03   -0.49265E-01   -0.43717E-01 13440   0.112E+00    0.215E+00
RMM:   3    -0.709376703994E+03   -0.23617E-02   -0.60458E-02 13487   0.471E-01    0.135E+00
RMM:   4    -0.709395288166E+03   -0.18584E-01   -0.20753E-02 14575   0.236E-01    0.210E+00
RMM:   5    -0.709379091344E+03    0.16197E-01   -0.75268E-03 13448   0.149E-01    0.155E+00
RMM:   6    -0.709372657586E+03    0.64338E-02   -0.43543E-03 13298   0.113E-01    0.763E-01
RMM:   7    -0.709372372518E+03    0.28507E-03   -0.29299E-03 13291   0.874E-02    0.454E-01
RMM:   8    -0.709371949524E+03    0.42299E-03   -0.13540E-03 12767   0.649E-02    0.304E-01
RMM:   9    -0.709371699408E+03    0.25012E-03   -0.39091E-04 10467   0.355E-02    0.191E-01
RMM:  10    -0.709371758882E+03   -0.59474E-04   -0.12568E-04  8212   0.193E-02
   5 F= -.70937176E+03 E0= -.70875212E+03  d E =-.691570E-01  mag=     7.3686
 curvature:  -0.16 expect dE=-0.287E+00 dE for cont linesearch -0.907E-03
 trial: gam= 2.05240 g(F)=  0.176E+01 g(S)=  0.000E+00 ort =-0.102E+00 (trialstep = 0.617E-01)
 search vector abs. value=  0.921E+01
 bond charge predicted
       N       E                     dE             d eps       ncg     rms          rms(c)
DAV:   1    -0.709397340219E+03   -0.25641E-01   -0.74906E+00 13808   0.400E+00    0.748E-01
RMM:   2    -0.709410607151E+03   -0.13267E-01   -0.13391E-01 13440   0.592E-01    0.871E-01
RMM:   3    -0.709413901980E+03   -0.32948E-02   -0.16746E-02 13467   0.242E-01    0.744E-01
RMM:   4    -0.709425617542E+03   -0.11716E-01   -0.56214E-03 13842   0.127E-01    0.159E+00
RMM:   5    -0.709412767376E+03    0.12850E-01   -0.21914E-03 12903   0.856E-02    0.649E-01
RMM:   6    -0.709412143873E+03    0.62350E-03   -0.13383E-03 12731   0.580E-02    0.300E-01
RMM:   7    -0.709411653528E+03    0.49034E-03   -0.67959E-04 12146   0.442E-02    0.185E-01
RMM:   8    -0.709411606235E+03    0.47293E-04   -0.27365E-04  9457   0.305E-02
   6 F= -.70941161E+03 E0= -.70879098E+03  d E =-.398474E-01  mag=     7.3661
 trial-energy change:   -0.039847  1 .order   -0.043059   -0.095953    0.009836
 step:   0.0548(harm=  0.0560)  dis= 0.01427  next Energy=  -709.412156 (dE=-0.404E-01)
 bond charge predicted
       N       E                     dE             d eps       ncg     rms          rms(c)
DAV:   1    -0.709411787509E+03   -0.13398E-03   -0.93126E-02 13936   0.450E-01    0.116E-01
RMM:   2    -0.709413100666E+03   -0.13132E-02   -0.19005E-03 13113   0.719E-02    0.452E-01
RMM:   3    -0.709412247997E+03    0.85267E-03   -0.34815E-04  9670   0.371E-02    0.254E-01
RMM:   4    -0.709411938660E+03    0.30934E-03   -0.11827E-04  7587   0.207E-02    0.833E-02
RMM:   5    -0.709411928745E+03    0.99146E-05   -0.35189E-05  7225   0.130E-02    0.459E-02
RMM:   6    -0.709411928665E+03    0.80145E-07   -0.22288E-05  6757   0.829E-03    0.500E-02
RMM:   7    -0.709411938761E+03   -0.10095E-04   -0.19487E-05  6746   0.793E-03    0.447E-02
RMM:   8    -0.709411934514E+03    0.42470E-05   -0.69648E-06  6108   0.524E-03
   7 F= -.70941193E+03 E0= -.70879139E+03  d E =-.401756E-01  mag=     7.3625
 curvature:  -0.16 expect dE=-0.177E+00 dE for cont linesearch -0.164E-04
 trial: gam= 0.39533 g(F)=  0.111E+01 g(S)=  0.000E+00 ort = 0.307E-01 (trialstep = 0.603E-01)
 search vector abs. value=  0.257E+01
 bond charge predicted
       N       E                     dE             d eps       ncg     rms          rms(c)
DAV:   1    -0.709450074969E+03   -0.38136E-01   -0.19278E+00 13856   0.213E+00    0.388E-01
RMM:   2    -0.709456649532E+03   -0.65746E-02   -0.37005E-02 13440   0.328E-01    0.806E-01
RMM:   3    -0.709455754260E+03    0.89527E-03   -0.49982E-03 13410   0.134E-01    0.664E-01
RMM:   4    -0.709454749151E+03    0.10051E-02   -0.15237E-03 13186   0.709E-02    0.452E-01
RMM:   5    -0.709453914624E+03    0.83453E-03   -0.56058E-04 11650   0.450E-02    0.282E-01
RMM:   6    -0.709453623437E+03    0.29119E-03   -0.36964E-04 10248   0.338E-02    0.224E-01
RMM:   7    -0.709453102706E+03    0.52073E-03   -0.26179E-04  9388   0.298E-02    0.145E-01
RMM:   8    -0.709452856519E+03    0.24619E-03   -0.10719E-04  8028   0.206E-02    0.738E-02
RMM:   9    -0.709452764605E+03    0.91914E-04   -0.33060E-05  7442   0.117E-02
   8 F= -.70945276E+03 E0= -.70883200E+03  d E =-.408301E-01  mag=     7.3492
 trial-energy change:   -0.040830  1 .order   -0.042702   -0.067609   -0.017796
 step:   0.0934(harm=  0.0819)  dis= 0.01286  next Energy=  -709.457340 (dE=-0.454E-01)
 bond charge predicted
       N       E                     dE             d eps       ncg     rms          rms(c)
DAV:   1    -0.709456040433E+03   -0.31839E-02   -0.58099E-01 13888   0.117E+00    0.212E-01
RMM:   2    -0.709457655740E+03   -0.16153E-02   -0.11132E-02 13436   0.180E-01    0.392E-01
RMM:   3    -0.709457600607E+03    0.55133E-04   -0.15045E-03 13010   0.736E-02    0.350E-01
RMM:   4    -0.709457370917E+03    0.22969E-03   -0.47181E-04 11012   0.389E-02    0.275E-01
RMM:   5    -0.709456911674E+03    0.45924E-03   -0.18922E-04  8393   0.268E-02    0.164E-01
RMM:   6    -0.709456668401E+03    0.24327E-03   -0.11330E-04  7981   0.205E-02    0.124E-01
RMM:   7    -0.709456373409E+03    0.29499E-03   -0.74954E-05  7791   0.165E-02    0.786E-02
RMM:   8    -0.709456248182E+03    0.12523E-03   -0.33586E-05  7390   0.118E-02    0.456E-02
RMM:   9    -0.709456195985E+03    0.52197E-04   -0.11078E-05  6551   0.666E-03
   9 F= -.70945620E+03 E0= -.70883530E+03  d E =-.442615E-01  mag=     7.3303
 curvature:  -0.07 expect dE=-0.330E-01 dE for cont linesearch -0.412E-05
 trial: gam= 0.43833 g(F)=  0.494E+00 g(S)=  0.000E+00 ort =-0.126E-01 (trialstep = 0.669E-01)
 search vector abs. value=  0.977E+00
 bond charge predicted
       N       E                     dE             d eps       ncg     rms          rms(c)
DAV:   1    -0.709476027223E+03   -0.19779E-01   -0.93263E-01 13856   0.148E+00    0.256E-01
RMM:   2    -0.709478813364E+03   -0.27861E-02   -0.18767E-02 13440   0.242E-01    0.498E-01
RMM:   3    -0.709478863272E+03   -0.49908E-04   -0.27632E-03 13321   0.986E-02    0.475E-01
RMM:   4    -0.709478186537E+03    0.67673E-03   -0.82693E-04 12768   0.507E-02    0.295E-01
RMM:   5    -0.709477721196E+03    0.46534E-03   -0.22606E-04  8689   0.282E-02    0.142E-01
RMM:   6    -0.709477513792E+03    0.20740E-03   -0.21456E-04  8669   0.261E-02    0.172E-01
RMM:   7    -0.709477233244E+03    0.28055E-03   -0.12491E-04  7954   0.223E-02    0.107E-01
RMM:   8    -0.709477058940E+03    0.17430E-03   -0.63157E-05  7714   0.154E-02    0.534E-02
RMM:   9    -0.709477025661E+03    0.33279E-04   -0.18832E-05  7057   0.916E-03
  10 F= -.70947703E+03 E0= -.70885596E+03  d E =-.208297E-01  mag=     7.3071
 trial-energy change:   -0.020830  1 .order   -0.022659   -0.032706   -0.012613
 step:   0.1090(harm=  0.1090)  dis= 0.00890  next Energy=  -709.482814 (dE=-0.266E-01)
 bond charge predicted
       N       E                     dE             d eps       ncg     rms          rms(c)
DAV:   1    -0.709480979248E+03   -0.39203E-02   -0.36717E-01 13888   0.930E-01    0.168E-01
RMM:   2    -0.709481974619E+03   -0.99537E-03   -0.74419E-03 13418   0.152E-01    0.296E-01
RMM:   3    -0.709481994053E+03   -0.19434E-04   -0.11028E-03 12749   0.623E-02    0.280E-01
RMM:   4    -0.709481848472E+03    0.14558E-03   -0.33338E-04  9455   0.318E-02    0.217E-01
RMM:   5    -0.709481567911E+03    0.28056E-03   -0.95828E-05  7887   0.209E-02    0.898E-02
RMM:   6    -0.709481469974E+03    0.97937E-04   -0.87357E-05  7799   0.161E-02    0.122E-01
RMM:   7    -0.709481339778E+03    0.13020E-03   -0.56028E-05  7584   0.155E-02    0.659E-02
RMM:   8    -0.709481291895E+03    0.47883E-04   -0.27407E-05  7172   0.985E-03
  11 F= -.70948129E+03 E0= -.70886014E+03  d E =-.250959E-01  mag=     7.2837
 curvature:  -0.11 expect dE=-0.110E+00 dE for cont linesearch -0.155E-03
 trial: gam= 2.10061 g(F)=  0.101E+01 g(S)=  0.000E+00 ort = 0.373E-01 (trialstep = 0.134E-01)
 search vector abs. value=  0.548E+01
 bond charge predicted
       N       E                     dE             d eps       ncg     rms          rms(c)
DAV:   1    -0.709494402766E+03   -0.13063E-01   -0.20280E-01 13856   0.667E-01    0.126E-01
RMM:   2    -0.709494928421E+03   -0.52566E-03   -0.40157E-03 13248   0.106E-01    0.187E-01
RMM:   3    -0.709495003067E+03   -0.74646E-04   -0.60781E-04 11397   0.444E-02    0.226E-01
RMM:   4    -0.709494896136E+03    0.10693E-03   -0.17749E-04  8289   0.237E-02    0.173E-01
RMM:   5    -0.709494728686E+03    0.16745E-03   -0.48811E-05  7485   0.154E-02    0.623E-02
RMM:   6    -0.709494676496E+03    0.52189E-04   -0.44856E-05  7192   0.104E-02    0.781E-02
RMM:   7    -0.709494643200E+03    0.33296E-04   -0.28923E-05  7122   0.107E-02    0.562E-02
RMM:   8    -0.709494645404E+03   -0.22037E-05   -0.17101E-05  6655   0.785E-03
  12 F= -.70949465E+03 E0= -.70887346E+03  d E =-.133535E-01  mag=     7.2596
 ZBRENT: can't locate minimum, use default step
 trial-energy change:   -0.013354  1 .order   -0.013250   -0.014659   -0.011841
 step:   0.0537(harm=  0.0699)  dis= 0.01095  next Energy=  -709.519420 (dE=-0.381E-01)
 bond charge predicted
       N       E                     dE             d eps       ncg     rms          rms(c)
DAV:   1    -0.709505485456E+03   -0.10842E-01   -0.18264E+00 13696   0.200E+00    0.371E-01
RMM:   2    -0.709511517305E+03   -0.60318E-02   -0.36150E-02 13440   0.318E-01    0.708E-01
RMM:   3    -0.709513137618E+03   -0.16203E-02   -0.54143E-03 13295   0.134E-01    0.900E-01
RMM:   4    -0.709509812998E+03    0.33246E-02   -0.17414E-03 13311   0.720E-02    0.417E-01
RMM:   5    -0.709508921569E+03    0.89143E-03   -0.40327E-04 10720   0.375E-02    0.171E-01
RMM:   6    -0.709508618522E+03    0.30305E-03   -0.40834E-04 10510   0.313E-02    0.222E-01
RMM:   7    -0.709508161742E+03    0.45678E-03   -0.22435E-04  9035   0.285E-02    0.148E-01
RMM:   8    -0.709507863725E+03    0.29802E-03   -0.11559E-04  8025   0.204E-02    0.623E-02
RMM:   9    -0.709507884498E+03   -0.20773E-04   -0.35402E-05  7499   0.123E-02
  13 F= -.70950788E+03 E0= -.70888648E+03  d E =-.265926E-01  mag=     7.2271
 curvature:  -0.16 expect dE=-0.185E+00 dE for cont linesearch -0.143E-03
 trial: gam= 0.52399 g(F)=  0.115E+01 g(S)=  0.000E+00 ort = 0.697E-01 (trialstep = 0.215E-01)
 search vector abs. value=  0.272E+01
 bond charge predicted
       N       E                     dE             d eps       ncg     rms          rms(c)
DAV:   1    -0.709529536830E+03   -0.21673E-01   -0.29950E-01 13888   0.838E-01    0.150E-01
RMM:   2    -0.709530462954E+03   -0.92612E-03   -0.58235E-03 13401   0.136E-01    0.262E-01
RMM:   3    -0.709530515488E+03   -0.52534E-04   -0.83747E-04 12382   0.550E-02    0.154E-01
RMM:   4    -0.709531056791E+03   -0.54130E-03   -0.29858E-04  9253   0.287E-02    0.354E-01
RMM:   5    -0.709530575671E+03    0.48112E-03   -0.74507E-05  7762   0.190E-02    0.149E-01
RMM:   6    -0.709530653479E+03   -0.77808E-04   -0.62390E-05  7657   0.127E-02    0.128E-01
RMM:   7    -0.709530747036E+03   -0.93558E-04   -0.39677E-05  7370   0.130E-02    0.552E-02
RMM:   8    -0.709530885180E+03   -0.13814E-03   -0.20102E-05  6780   0.785E-03    0.393E-02
RMM:   9    -0.709531024942E+03   -0.13976E-03   -0.62080E-06  6126   0.538E-03    0.346E-02
RMM:  10    -0.709531142292E+03   -0.11735E-03   -0.19858E-06  3473   0.314E-03    0.285E-02
RMM:  11    -0.709531451986E+03   -0.30969E-03   -0.38646E-06  4347   0.353E-03    0.229E-02
RMM:  12    -0.709531982231E+03   -0.53025E-03   -0.10095E-05  6208   0.450E-03    0.182E-02
RMM:  13    -0.709532477799E+03   -0.49557E-03   -0.87207E-06  5622   0.428E-03    0.192E-02
RMM:  14    -0.709532870444E+03   -0.39265E-03   -0.65955E-06  5142   0.406E-03    0.172E-02
RMM:  15    -0.709533342370E+03   -0.47193E-03   -0.91131E-06  5405   0.421E-03    0.197E-02
RMM:  16    -0.709534137088E+03   -0.79472E-03   -0.22344E-05  6576   0.556E-03    0.158E-02
RMM:  17    -0.709534661210E+03   -0.52412E-03   -0.16478E-05  6150   0.495E-03    0.156E-02
RMM:  18    -0.709534947495E+03   -0.28629E-03   -0.88917E-06  5366   0.451E-03    0.102E-02
RMM:  19    -0.709535190483E+03   -0.24299E-03   -0.71345E-06  4818   0.403E-03    0.833E-03
RMM:  20    -0.709535389795E+03   -0.19931E-03   -0.49175E-06  4383   0.377E-03    0.747E-03
RMM:  21    -0.709535575539E+03   -0.18574E-03   -0.39625E-06  4178   0.352E-03    0.613E-03
RMM:  22    -0.709535789695E+03   -0.21416E-03   -0.39992E-06  4418   0.349E-03    0.532E-03
RMM:  23    -0.709535860350E+03   -0.70655E-04   -0.15711E-06  3333   0.311E-03
  14 F= -.70953586E+03 E0= -.70891446E+03  d E =-.279759E-01  mag=     7.0984
 trial-energy change:   -0.027976  1 .order   -0.021868   -0.025421   -0.018315
 step:   0.0769(harm=  0.0769)  dis= 0.00819  next Energy=  -709.553352 (dE=-0.455E-01)
 bond charge predicted
       N       E                     dE             d eps       ncg     rms          rms(c)
DAV:   1    -0.709545979806E+03   -0.10190E-01   -0.19902E+00 13856   0.216E+00    0.363E-01
RMM:   2    -0.709550424324E+03   -0.44445E-02   -0.38282E-02 13440   0.348E-01    0.563E-01
RMM:   3    -0.709550460921E+03   -0.36598E-04   -0.53740E-03 13409   0.138E-01    0.291E-01
RMM:   4    -0.709551692653E+03   -0.12317E-02   -0.16045E-03 13923   0.671E-02    0.463E-01
RMM:   5    -0.709552558313E+03   -0.86566E-03   -0.64347E-04 12271   0.413E-02    0.678E-01
RMM:   6    -0.709550680068E+03    0.18782E-02   -0.35557E-04 10451   0.343E-02    0.284E-01
RMM:   7    -0.709550417202E+03    0.26287E-03   -0.23785E-04  8996   0.277E-02    0.147E-01
RMM:   8    -0.709550270032E+03    0.14717E-03   -0.13724E-04  8180   0.213E-02    0.810E-02
RMM:   9    -0.709550226102E+03    0.43929E-04   -0.32931E-05  7686   0.126E-02
  15 F= -.70955023E+03 E0= -.70892866E+03  d E =-.423416E-01  mag=     7.0898
 curvature:  -0.09 expect dE=-0.159E+00 dE for cont linesearch -0.391E-02
 ZBRENT: interpolating
 opt :   0.0609  next Energy=  -709.553007 (dE=-0.451E-01)
 bond charge predicted
       N       E                     dE             d eps       ncg     rms          rms(c)
DAV:   1    -0.709552582973E+03   -0.23129E-02   -0.16699E-01 13760   0.625E-01    0.111E-01
RMM:   2    -0.709553067923E+03   -0.48495E-03   -0.31818E-03 13262   0.100E-01    0.228E-01
RMM:   3    -0.709553164270E+03   -0.96347E-04   -0.47447E-04 10828   0.414E-02    0.241E-01
RMM:   4    -0.709552927277E+03    0.23699E-03   -0.12629E-04  7720   0.214E-02    0.757E-02
RMM:   5    -0.709552961916E+03   -0.34639E-04   -0.36365E-05  7100   0.126E-02    0.980E-02
RMM:   6    -0.709552995873E+03   -0.33956E-04   -0.31717E-05  6929   0.927E-03    0.872E-02
RMM:   7    -0.709553027829E+03   -0.31956E-04   -0.26918E-05  6957   0.982E-03    0.418E-02
RMM:   8    -0.709553054066E+03   -0.26238E-04   -0.11842E-05  6363   0.642E-03
  16 F= -.70955305E+03 E0= -.70893150E+03  d E =-.451696E-01  mag=     7.0837
 curvature:  -0.06 expect dE=-0.781E-01 dE for cont linesearch -0.156E-05
 trial: gam= 1.19758 g(F)=  0.124E+01 g(S)=  0.000E+00 ort = 0.822E-02 (trialstep = 0.155E-01)
 search vector abs. value=  0.517E+01
 bond charge predicted
       N       E                     dE             d eps       ncg     rms          rms(c)
DAV:   1    -0.709568266048E+03   -0.15238E-01   -0.29997E-01 13824   0.817E-01    0.127E-01
RMM:   2    -0.709569066745E+03   -0.80070E-03   -0.53489E-03 13379   0.124E-01    0.272E-01
RMM:   3    -0.709569079210E+03   -0.12465E-04   -0.72043E-04 11972   0.496E-02    0.165E-01
RMM:   4    -0.709569263621E+03   -0.18441E-03   -0.22753E-04  8614   0.263E-02    0.261E-01
RMM:   5    -0.709569053288E+03    0.21033E-03   -0.65955E-05  7486   0.176E-02    0.155E-01
RMM:   6    -0.709568948328E+03    0.10496E-03   -0.41391E-05  7308   0.106E-02    0.847E-02
RMM:   7    -0.709568915162E+03    0.33166E-04   -0.29079E-05  7007   0.102E-02    0.421E-02
RMM:   8    -0.709568897051E+03    0.18111E-04   -0.14056E-05  6589   0.724E-03
  17 F= -.70956890E+03 E0= -.70894730E+03  d E =-.158430E-01  mag=     7.0770
 trial-energy change:   -0.015843  1 .order   -0.015368   -0.019369   -0.011367
 step:   0.0287(harm=  0.0375)  dis= 0.00285  next Energy=  -709.574056 (dE=-0.210E-01)
 bond charge predicted
       N       E                     dE             d eps       ncg     rms          rms(c)
DAV:   1    -0.709574728464E+03   -0.58133E-02   -0.21926E-01 13888   0.699E-01    0.121E-01
RMM:   2    -0.709575233996E+03   -0.50553E-03   -0.39964E-03 13308   0.107E-01    0.155E-01
RMM:   3    -0.709575789520E+03   -0.55552E-03   -0.59859E-04 11535   0.447E-02    0.357E-01
RMM:   4    -0.709575267485E+03    0.52204E-03   -0.15312E-04  8158   0.231E-02    0.152E-01
RMM:   5    -0.709575268152E+03   -0.66624E-06   -0.41358E-05  7321   0.137E-02    0.152E-01
RMM:   6    -0.709575138611E+03    0.12954E-03   -0.43669E-05  7355   0.108E-02    0.921E-02
RMM:   7    -0.709575080732E+03    0.57880E-04   -0.26052E-05  6957   0.102E-02    0.520E-02
RMM:   8    -0.709575050894E+03    0.29837E-04   -0.12913E-05  6522   0.680E-03
  18 F= -.70957505E+03 E0= -.70895337E+03  d E =-.219968E-01  mag=     7.0690
 curvature:  -0.07 expect dE=-0.495E-01 dE for cont linesearch -0.831E-03
 ZBRENT: increasing intervall
 opt :   0.0552  next Energy=  -709.569206 (dE=-0.162E-01)
 bond charge predicted
       N       E                     dE             d eps       ncg     rms          rms(c)
DAV:   1    -0.709576446169E+03   -0.13654E-02   -0.87627E-01 13664   0.140E+00    0.235E-01
RMM:   2    -0.709578379908E+03   -0.19337E-02   -0.15807E-02 13440   0.213E-01    0.304E-01
RMM:   3    -0.709579404936E+03   -0.10250E-02   -0.22305E-03 13075   0.877E-02    0.514E-01
RMM:   4    -0.709578381000E+03    0.10239E-02   -0.63308E-04 11429   0.421E-02    0.224E-01
RMM:   5    -0.709578709953E+03   -0.32895E-03   -0.15859E-04  8264   0.234E-02    0.327E-01
RMM:   6    -0.709578210059E+03    0.49989E-03   -0.17046E-04  8379   0.221E-02    0.193E-01
RMM:   7    -0.709577963649E+03    0.24641E-03   -0.11475E-04  7925   0.202E-02    0.970E-02
RMM:   8    -0.709577864804E+03    0.98845E-04   -0.61290E-05  7620   0.147E-02
  19 F= -.70957786E+03 E0= -.70895612E+03  d E =-.248107E-01  mag=     7.0576
 curvature:   0.46 expect dE= 0.370E+00 dE for cont linesearch  0.708E-04
 trial: gam= 0.27936 g(F)=  0.808E+00 g(S)=  0.000E+00 ort = 0.283E-01 (trialstep = 0.234E-01)
 search vector abs. value=  0.123E+01
 bond charge predicted
       N       E                     dE             d eps       ncg     rms          rms(c)
DAV:   1    -0.709594387774E+03   -0.16424E-01   -0.16488E-01 13888   0.636E-01    0.102E-01
RMM:   2    -0.709594665823E+03   -0.27805E-03   -0.30685E-03 13365   0.975E-02    0.180E-01
RMM:   3    -0.709594606487E+03    0.59335E-04   -0.39833E-04  9989   0.393E-02    0.702E-02
RMM:   4    -0.709594570643E+03    0.35845E-04   -0.10137E-04  7762   0.202E-02    0.100E-01
RMM:   5    -0.709594604379E+03   -0.33736E-04   -0.37813E-05  7337   0.116E-02    0.145E-01
RMM:   6    -0.709594442662E+03    0.16172E-03   -0.26999E-05  7065   0.938E-03    0.727E-02
RMM:   7    -0.709594359069E+03    0.83592E-04   -0.16866E-05  6682   0.815E-03    0.332E-02
RMM:   8    -0.709594330519E+03    0.28550E-04   -0.10841E-05  6486   0.580E-03
  20 F= -.70959433E+03 E0= -.70897259E+03  d E =-.164657E-01  mag=     7.0438
 ZBRENT: can't locate minimum, use default step
 trial-energy change:   -0.016466  1 .order   -0.016792   -0.019119   -0.014465
 step:   0.0937(harm=  0.0962)  dis= 0.00882  next Energy=  -709.617137 (dE=-0.393E-01)
 bond charge predicted
       N       E                     dE             d eps       ncg     rms          rms(c)
DAV:   1    -0.709608068490E+03   -0.13709E-01   -0.14835E+00 13776   0.191E+00    0.270E-01
RMM:   2    -0.709610821224E+03   -0.27527E-02   -0.26842E-02 13440   0.289E-01    0.431E-01
RMM:   3    -0.709611032053E+03   -0.21083E-03   -0.33857E-03 13515   0.114E-01    0.250E-01
RMM:   4    -0.709612906134E+03   -0.18741E-02   -0.10741E-03 13376   0.552E-02    0.629E-01
RMM:   5    -0.709610807392E+03    0.20987E-02   -0.34790E-04 10414   0.349E-02    0.266E-01
RMM:   6    -0.709610444058E+03    0.36333E-03   -0.22811E-04  8878   0.259E-02    0.164E-01
RMM:   7    -0.709610177250E+03    0.26681E-03   -0.13322E-04  8137   0.208E-02    0.907E-02
RMM:   8    -0.709610060438E+03    0.11681E-03   -0.59042E-05  7762   0.156E-02    0.719E-02
RMM:   9    -0.709610034067E+03    0.26371E-04   -0.16726E-05  7137   0.867E-03
  21 F= -.70961003E+03 E0= -.70898845E+03  d E =-.321693E-01  mag=     7.0242
 curvature:  -0.07 expect dE=-0.491E-01 dE for cont linesearch -0.138E-03
 trial: gam= 1.10091 g(F)=  0.679E+00 g(S)=  0.000E+00 ort =-0.484E-01 (trialstep = 0.223E-01)
 search vector abs. value=  0.206E+01
 bond charge predicted
       N       E                     dE             d eps       ncg     rms          rms(c)
DAV:   1    -0.709622690327E+03   -0.12630E-01   -0.24104E-01 13856   0.748E-01    0.118E-01
RMM:   2    -0.709623079319E+03   -0.38899E-03   -0.42232E-03 13391   0.109E-01    0.155E-01
RMM:   3    -0.709623091986E+03   -0.12667E-04   -0.51461E-04 10696   0.429E-02    0.861E-02
RMM:   4    -0.709623447975E+03   -0.35599E-03   -0.16658E-04  8259   0.236E-02    0.289E-01
RMM:   5    -0.709623007395E+03    0.44058E-03   -0.59859E-05  7583   0.160E-02    0.110E-01
RMM:   6    -0.709622903152E+03    0.10424E-03   -0.33120E-05  7299   0.102E-02    0.700E-02
RMM:   7    -0.709622834540E+03    0.68612E-04   -0.22017E-05  6804   0.902E-03    0.413E-02
RMM:   8    -0.709622816790E+03    0.17750E-04   -0.12152E-05  6485   0.649E-03
  22 F= -.70962282E+03 E0= -.70900134E+03  d E =-.127827E-01  mag=     7.0036
 ZBRENT: can't locate minimum, use default step
 trial-energy change:   -0.012783  1 .order   -0.012939   -0.013977   -0.011902
 step:   0.0893(harm=  0.1504)  dis= 0.00447  next Energy=  -709.657107 (dE=-0.471E-01)
 bond charge predicted
       N       E                     dE             d eps       ncg     rms          rms(c)
DAV:   1    -0.709637220873E+03   -0.14386E-01   -0.21680E+00 13600   0.224E+00    0.327E-01
RMM:   2    -0.709641392476E+03   -0.41716E-02   -0.37608E-02 13440   0.325E-01    0.514E-01
RMM:   3    -0.709641900545E+03   -0.50807E-03   -0.44517E-03 13451   0.128E-01    0.419E-01
RMM:   4    -0.709642606274E+03   -0.70573E-03   -0.13847E-03 13667   0.624E-02    0.523E-01
RMM:   5    -0.709641179196E+03    0.14271E-02   -0.46298E-04 11274   0.394E-02    0.337E-01
RMM:   6    -0.709640506232E+03    0.67296E-03   -0.28119E-04  9521   0.301E-02    0.191E-01
RMM:   7    -0.709640116398E+03    0.38983E-03   -0.20679E-04  8708   0.248E-02    0.143E-01
RMM:   8    -0.709639799430E+03    0.31697E-03   -0.10176E-04  7950   0.199E-02    0.728E-02
RMM:   9    -0.709639755448E+03    0.43981E-04   -0.26621E-05  7439   0.111E-02
  23 F= -.70963976E+03 E0= -.70901865E+03  d E =-.297214E-01  mag=     6.9756
 curvature:  -0.19 expect dE=-0.243E+00 dE for cont linesearch -0.210E-03
 trial: gam= 1.41250 g(F)=  0.127E+01 g(S)=  0.000E+00 ort =-0.476E-01 (trialstep = 0.140E-01)
 search vector abs. value=  0.525E+01
 bond charge predicted
       N       E                     dE             d eps       ncg     rms          rms(c)
DAV:   1    -0.709653220639E+03   -0.13421E-01   -0.24719E-01 13872   0.763E-01    0.124E-01
RMM:   2    -0.709653719744E+03   -0.49910E-03   -0.44231E-03 13394   0.113E-01    0.203E-01
RMM:   3    -0.709653737804E+03   -0.18060E-04   -0.55686E-04 11179   0.446E-02    0.108E-01
RMM:   4    -0.709654275178E+03   -0.53737E-03   -0.19483E-04  8446   0.241E-02    0.345E-01
RMM:   5    -0.709653712910E+03    0.56227E-03   -0.71291E-05  7597   0.180E-02    0.118E-01
RMM:   6    -0.709653704751E+03    0.81584E-05   -0.43471E-05  7297   0.108E-02    0.980E-02
RMM:   7    -0.709653718974E+03   -0.14223E-04   -0.25221E-05  6906   0.100E-02    0.342E-02
RMM:   8    -0.709653801000E+03   -0.82026E-04   -0.12484E-05  6541   0.644E-03
  24 F= -.70965380E+03 E0= -.70903286E+03  d E =-.140456E-01  mag=     6.9482
 trial-energy change:   -0.014046  1 .order   -0.014052   -0.016904   -0.011199
 step:   0.0415(harm=  0.0415)  dis= 0.00319  next Energy=  -709.664800 (dE=-0.250E-01)
 bond charge predicted
       N       E                     dE             d eps       ncg     rms          rms(c)
DAV:   1    -0.709665280087E+03   -0.11561E-01   -0.94997E-01 13664   0.149E+00    0.225E-01
RMM:   2    -0.709667264774E+03   -0.19847E-02   -0.16677E-02 13440   0.220E-01    0.369E-01
RMM:   3    -0.709667246990E+03    0.17784E-04   -0.20150E-03 13248   0.859E-02    0.197E-01
RMM:   4    -0.709668676014E+03   -0.14290E-02   -0.66633E-04 12075   0.426E-02    0.494E-01
RMM:   5    -0.709667471713E+03    0.12043E-02   -0.26900E-04  9441   0.299E-02    0.305E-01
RMM:   6    -0.709667200586E+03    0.27113E-03   -0.14131E-04  8176   0.233E-02    0.171E-01
RMM:   7    -0.709667141908E+03    0.58678E-04   -0.88496E-05  7792   0.173E-02    0.100E-01
RMM:   8    -0.709667120483E+03    0.21425E-04   -0.47152E-05  7429   0.134E-02
  25 F= -.70966712E+03 E0= -.70904644E+03  d E =-.273650E-01  mag=     6.9214
 curvature:  -0.09 expect dE=-0.451E-01 dE for cont linesearch -0.364E-03
 ZBRENT: extrapolating
 opt :   0.0477  next Energy=  -709.667565 (dE=-0.278E-01)
 bond charge predicted
       N       E                     dE             d eps       ncg     rms          rms(c)
DAV:   1    -0.709667495613E+03   -0.35370E-03   -0.46840E-02 13888   0.332E-01    0.701E-02
RMM:   2    -0.709667693889E+03   -0.19828E-03   -0.85950E-04 11505   0.501E-02    0.111E-01
RMM:   3    -0.709667743271E+03   -0.49382E-04   -0.12425E-04  7676   0.214E-02    0.103E-01
RMM:   4    -0.709667808921E+03   -0.65650E-04   -0.42751E-05  7322   0.132E-02    0.125E-01
RMM:   5    -0.709667821816E+03   -0.12895E-04   -0.13699E-05  6726   0.786E-03    0.666E-02
RMM:   6    -0.709667964901E+03   -0.14309E-03   -0.14120E-05  6345   0.575E-03    0.393E-02
RMM:   7    -0.709668071515E+03   -0.10661E-03   -0.75904E-06  6084   0.572E-03    0.307E-02
RMM:   8    -0.709668207730E+03   -0.13621E-03   -0.33869E-06  4714   0.379E-03    0.240E-02
RMM:   9    -0.709668351177E+03   -0.14345E-03   -0.15820E-06  3419   0.319E-03    0.249E-02
RMM:  10    -0.709668553620E+03   -0.20244E-03   -0.22700E-06  3647   0.323E-03    0.209E-02
RMM:  11    -0.709669002672E+03   -0.44905E-03   -0.81900E-06  5900   0.421E-03    0.183E-02
RMM:  12    -0.709669560352E+03   -0.55768E-03   -0.10242E-05  5526   0.428E-03    0.185E-02
RMM:  13    -0.709670069532E+03   -0.50918E-03   -0.11592E-05  5845   0.446E-03    0.134E-02
RMM:  14    -0.709670468579E+03   -0.39905E-03   -0.77117E-06  4716   0.394E-03    0.125E-02
RMM:  15    -0.709670818744E+03   -0.35017E-03   -0.68716E-06  4659   0.387E-03    0.122E-02
RMM:  16    -0.709671213093E+03   -0.39435E-03   -0.75296E-06  4674   0.382E-03    0.933E-03
RMM:  17    -0.709671508061E+03   -0.29497E-03   -0.61542E-06  4496   0.371E-03    0.716E-03
RMM:  18    -0.709671745364E+03   -0.23730E-03   -0.50172E-06  4146   0.352E-03    0.675E-03
RMM:  19    -0.709671886313E+03   -0.14095E-03   -0.27114E-06  3509   0.326E-03    0.637E-03
RMM:  20    -0.709672019290E+03   -0.13298E-03   -0.20638E-06  3174   0.307E-03    0.389E-03
RMM:  21    -0.709672140654E+03   -0.12136E-03   -0.14629E-06  3017   0.302E-03    0.346E-03
RMM:  22    -0.709672253504E+03   -0.11285E-03   -0.10834E-06  2771   0.294E-03    0.330E-03
RMM:  23    -0.709672323807E+03   -0.70304E-04   -0.50067E-07  2474   0.287E-03
  26 F= -.70967232E+03 E0= -.70905176E+03  d E =-.325684E-01  mag=     6.8146
 curvature:  -0.11 expect dE=-0.537E-01 dE for cont linesearch -0.116E-06
 trial: gam= 0.10315 g(F)=  0.486E+00 g(S)=  0.000E+00 ort = 0.235E-02 (trialstep = 0.208E-01)
 search vector abs. value=  0.542E+00
 bond charge predicted
       N       E                     dE             d eps       ncg     rms          rms(c)
DAV:   1    -0.709681117264E+03   -0.88638E-02   -0.57656E-02 13952   0.394E-01    0.605E-02
RMM:   2    -0.709681286032E+03   -0.16877E-03   -0.12247E-03 13063   0.686E-02    0.151E-01
RMM:   3    -0.709681289160E+03   -0.31281E-05   -0.19563E-04  7901   0.265E-02    0.891E-02
RMM:   4    -0.709681479790E+03   -0.19063E-03   -0.56223E-05  7386   0.157E-02    0.197E-01
RMM:   5    -0.709681301170E+03    0.17862E-03   -0.19198E-05  7151   0.939E-03    0.597E-02
RMM:   6    -0.709681315288E+03   -0.14118E-04   -0.67100E-06  6037   0.492E-03    0.666E-02
RMM:   7    -0.709681344543E+03   -0.29255E-04   -0.49141E-06  5696   0.420E-03    0.833E-02
RMM:   8    -0.709681359500E+03   -0.14958E-04   -0.65808E-06  6511   0.474E-03
  27 F= -.70968136E+03 E0= -.70906088E+03  d E =-.903569E-02  mag=     6.8126
 trial-energy change:   -0.009036  1 .order   -0.008783   -0.010086   -0.007480
 step:   0.0803(harm=  0.0803)  dis= 0.00271  next Energy=  -709.691844 (dE=-0.195E-01)
 bond charge predicted
       N       E                     dE             d eps       ncg     rms          rms(c)
DAV:   1    -0.709689789232E+03   -0.84447E-02   -0.47467E-01 13680   0.113E+00    0.192E-01
RMM:   2    -0.709690901138E+03   -0.11119E-02   -0.10165E-02 13440   0.197E-01    0.437E-01
RMM:   3    -0.709691035313E+03   -0.13417E-03   -0.16261E-03 13628   0.760E-02    0.355E-01
RMM:   4    -0.709691063431E+03   -0.28119E-04   -0.41824E-04 10882   0.397E-02    0.298E-01
RMM:   5    -0.709690890176E+03    0.17326E-03   -0.12477E-04  7947   0.216E-02    0.241E-01
RMM:   6    -0.709690867999E+03    0.22177E-04   -0.56125E-05  7737   0.142E-02    0.251E-01
RMM:   7    -0.709690878826E+03   -0.10827E-04   -0.64053E-05  7606   0.136E-02    0.266E-01
RMM:   8    -0.709690801901E+03    0.76925E-04   -0.67472E-05  7579   0.155E-02
  28 F= -.70969080E+03 E0= -.70907045E+03  d E =-.184781E-01  mag=     6.8090
 curvature:  -0.04 expect dE=-0.172E-01 dE for cont linesearch -0.189E-03
 trial: gam= 0.85255 g(F)=  0.384E+00 g(S)=  0.000E+00 ort =-0.478E-01 (trialstep = 0.254E-01)
 search vector abs. value=  0.697E+00
 bond charge predicted
       N       E                     dE             d eps       ncg     rms          rms(c)
DAV:   1    -0.709697481196E+03   -0.66024E-02   -0.10626E-01 13984   0.527E-01    0.226E-01
RMM:   2    -0.709697740710E+03   -0.25951E-03   -0.25973E-03 13390   0.960E-02    0.290E-01
RMM:   3    -0.709697663761E+03    0.76949E-04   -0.39681E-04 10329   0.379E-02    0.204E-01
RMM:   4    -0.709699555358E+03   -0.18916E-02   -0.28229E-04  9843   0.287E-02    0.589E-01
RMM:   5    -0.709697702115E+03    0.18532E-02   -0.21073E-04  8419   0.288E-02    0.218E-01
RMM:   6    -0.709697515512E+03    0.18660E-03   -0.89876E-05  7538   0.196E-02    0.121E-01
RMM:   7    -0.709697449901E+03    0.65610E-04   -0.34372E-05  7277   0.116E-02    0.506E-02
RMM:   8    -0.709697428890E+03    0.21011E-04   -0.13510E-05  6548   0.734E-03
  29 F= -.70969743E+03 E0= -.70907702E+03  d E =-.662699E-02  mag=     6.8027
 trial-energy change:   -0.006627  1 .order   -0.006911   -0.008729   -0.005093
 step:   0.0610(harm=  0.0610)  dis= 0.00379  next Energy=  -709.701279 (dE=-0.105E-01)
 bond charge predicted
       N       E                     dE             d eps       ncg     rms          rms(c)
DAV:   1    -0.709698939119E+03   -0.14892E-02   -0.20935E-01 13888   0.739E-01    0.135E-01
RMM:   2    -0.709699789510E+03   -0.85039E-03   -0.46757E-03 13435   0.131E-01    0.441E-01
RMM:   3    -0.709699513780E+03    0.27573E-03   -0.73270E-04 12534   0.503E-02    0.276E-01
RMM:   4    -0.709700184887E+03   -0.67111E-03   -0.20566E-04  8330   0.272E-02    0.426E-01
RMM:   5    -0.709699317836E+03    0.86705E-03   -0.11346E-04  7722   0.222E-02    0.178E-01
RMM:   6    -0.709699277008E+03    0.40828E-04   -0.40723E-05  7404   0.116E-02    0.150E-01
RMM:   7    -0.709699265731E+03    0.11276E-04   -0.19634E-05  6968   0.841E-03    0.164E-01
RMM:   8    -0.709699214857E+03    0.50875E-04   -0.21953E-05  7052   0.858E-03
  30 F= -.70969921E+03 E0= -.70907909E+03  d E =-.841296E-02  mag=     6.7952
 curvature:  -0.06 expect dE=-0.254E-01 dE for cont linesearch -0.934E-03
 ZBRENT: interpolating
 opt :   0.0490  next Energy=  -709.699833 (dE=-0.903E-02)
 bond charge predicted
       N       E                     dE             d eps       ncg     rms          rms(c)
DAV:   1    -0.709699651497E+03   -0.38577E-03   -0.24151E-02 13984   0.252E-01    0.619E-02
RMM:   2    -0.709699836004E+03   -0.18451E-03   -0.55754E-04 10723   0.453E-02    0.173E-01
RMM:   3    -0.709699849669E+03   -0.13665E-04   -0.97026E-05  7284   0.206E-02    0.141E-01
RMM:   4    -0.709699764531E+03    0.85138E-04   -0.24296E-05  7092   0.110E-02    0.364E-02
RMM:   5    -0.709699788908E+03   -0.24377E-04   -0.83696E-06  6524   0.574E-03    0.310E-02
RMM:   6    -0.709699818342E+03   -0.29434E-04   -0.38099E-06  5153   0.410E-03    0.243E-02
RMM:   7    -0.709699884933E+03   -0.66592E-04   -0.63263E-06  6225   0.444E-03    0.208E-02
RMM:   8    -0.709699922682E+03   -0.37749E-04   -0.19375E-06  4090   0.344E-03
  31 F= -.70969992E+03 E0= -.70907965E+03  d E =-.912078E-02  mag=     6.7893
 curvature:  -0.04 expect dE=-0.117E-01 dE for cont linesearch -0.703E-05
 trial: gam= 0.46242 g(F)=  0.285E+00 g(S)=  0.000E+00 ort = 0.109E-01 (trialstep = 0.301E-01)
 search vector abs. value=  0.444E+00
 bond charge predicted
       N       E                     dE             d eps       ncg     rms          rms(c)
DAV:   1    -0.709706707951E+03   -0.68230E-02   -0.96871E-02 13872   0.503E-01    0.732E-02
RMM:   2    -0.709706929090E+03   -0.22114E-03   -0.19166E-03 13343   0.833E-02    0.141E-01
RMM:   3    -0.709706934254E+03   -0.51644E-05   -0.28580E-04  8811   0.326E-02    0.790E-02
RMM:   4    -0.709707095269E+03   -0.16102E-03   -0.71395E-05  7518   0.184E-02    0.182E-01
RMM:   5    -0.709706942149E+03    0.15312E-03   -0.26543E-05  7203   0.107E-02    0.782E-02
RMM:   6    -0.709706949051E+03   -0.69012E-05   -0.16776E-05  6808   0.709E-03    0.621E-02
RMM:   7    -0.709706965417E+03   -0.16366E-04   -0.97106E-06  6511   0.605E-03    0.550E-02
RMM:   8    -0.709706981269E+03   -0.15852E-04   -0.67089E-06  6329   0.504E-03
  32 F= -.70970698E+03 E0= -.70908686E+03  d E =-.705859E-02  mag=     6.7837
 trial-energy change:   -0.007059  1 .order   -0.006892   -0.008736   -0.005047
 step:   0.0713(harm=  0.0713)  dis= 0.00318  next Energy=  -709.710268 (dE=-0.103E-01)
 bond charge predicted
       N       E                     dE             d eps       ncg     rms          rms(c)
DAV:   1    -0.709709559817E+03   -0.25944E-02   -0.18119E-01 13760   0.688E-01    0.111E-01
RMM:   2    -0.709709909113E+03   -0.34930E-03   -0.36423E-03 13416   0.114E-01    0.194E-01
RMM:   3    -0.709709943926E+03   -0.34812E-04   -0.54994E-04 11814   0.446E-02    0.118E-01
RMM:   4    -0.709710645154E+03   -0.70123E-03   -0.17086E-04  8068   0.239E-02    0.381E-01
RMM:   5    -0.709709936284E+03    0.70887E-03   -0.82294E-05  7614   0.195E-02    0.118E-01
RMM:   6    -0.709709916158E+03    0.20126E-04   -0.34596E-05  7310   0.105E-02    0.919E-02
RMM:   7    -0.709709907036E+03    0.91224E-05   -0.16557E-05  7045   0.777E-03    0.890E-02
RMM:   8    -0.709709913377E+03   -0.63416E-05   -0.11874E-05  6622   0.659E-03
  33 F= -.70970991E+03 E0= -.70909005E+03  d E =-.999070E-02  mag=     6.7780
 curvature:  -0.05 expect dE=-0.915E-02 dE for cont linesearch -0.577E-04
 trial: gam= 0.49250 g(F)=  0.168E+00 g(S)=  0.000E+00 ort =-0.217E-01 (trialstep = 0.384E-01)
 search vector abs. value=  0.254E+00
 bond charge predicted
       N       E                     dE             d eps       ncg     rms          rms(c)
DAV:   1    -0.709714122984E+03   -0.42159E-02   -0.87745E-02 13824   0.473E-01    0.104E-01
RMM:   2    -0.709714389094E+03   -0.26611E-03   -0.19348E-03 13300   0.824E-02    0.218E-01
RMM:   3    -0.709714364002E+03    0.25093E-04   -0.29896E-04  8898   0.318E-02    0.120E-01
RMM:   4    -0.709714921981E+03   -0.55798E-03   -0.10960E-04  7720   0.202E-02    0.340E-01
RMM:   5    -0.709714398424E+03    0.52356E-03   -0.63479E-05  7421   0.164E-02    0.937E-02
RMM:   6    -0.709714420815E+03   -0.22391E-04   -0.28160E-05  7104   0.101E-02    0.100E-01
RMM:   7    -0.709714441322E+03   -0.20507E-04   -0.97404E-06  6418   0.651E-03    0.750E-02
RMM:   8    -0.709714468747E+03   -0.27425E-04   -0.72249E-06  6150   0.481E-03
  34 F= -.70971447E+03 E0= -.70909461E+03  d E =-.455537E-02  mag=     6.7729
 trial-energy change:   -0.004555  1 .order   -0.004412   -0.006018   -0.002806
 step:   0.0719(harm=  0.0719)  dis= 0.00208  next Energy=  -709.715552 (dE=-0.564E-02)
 bond charge predicted
       N       E                     dE             d eps       ncg     rms          rms(c)
DAV:   1    -0.709715618158E+03   -0.11768E-02   -0.67096E-02 13888   0.414E-01    0.912E-02
RMM:   2    -0.709715828758E+03   -0.21060E-03   -0.14780E-03 13136   0.721E-02    0.185E-01
RMM:   3    -0.709715867029E+03   -0.38271E-04   -0.24726E-04  8379   0.280E-02    0.167E-01
RMM:   4    -0.709715985193E+03   -0.11816E-03   -0.72937E-05  7480   0.176E-02    0.210E-01
RMM:   5    -0.709715852402E+03    0.13279E-03   -0.43971E-05  7323   0.121E-02    0.142E-01
RMM:   6    -0.709715847191E+03    0.52102E-05   -0.20916E-05  6882   0.920E-03    0.139E-01
RMM:   7    -0.709715867130E+03   -0.19938E-04   -0.13230E-05  6703   0.641E-03    0.139E-01
RMM:   8    -0.709715922882E+03   -0.55752E-04   -0.18542E-05  7001   0.756E-03
  35 F= -.70971592E+03 E0= -.70909615E+03  d E =-.600950E-02  mag=     6.7699
 curvature:  -0.06 expect dE=-0.205E-01 dE for cont linesearch -0.440E-06
 trial: gam= 1.93871 g(F)=  0.352E+00 g(S)=  0.000E+00 ort = 0.139E-02 (trialstep = 0.873E-02)
 search vector abs. value=  0.131E+01
 bond charge predicted
       N       E                     dE             d eps       ncg     rms          rms(c)
DAV:   1    -0.709718964664E+03   -0.30975E-02   -0.22792E-02 13872   0.226E-01    0.177E-01
RMM:   2    -0.709719072331E+03   -0.10767E-03   -0.57645E-04  9745   0.391E-02    0.194E-01
RMM:   3    -0.709719086304E+03   -0.13973E-04   -0.85448E-05  7368   0.184E-02    0.147E-01
RMM:   4    -0.709720270567E+03   -0.11843E-02   -0.17644E-04  8085   0.198E-02    0.469E-01
RMM:   5    -0.709719155357E+03    0.11152E-02   -0.16007E-04  7659   0.249E-02    0.155E-01
RMM:   6    -0.709719107203E+03    0.48154E-04   -0.46909E-05  7098   0.130E-02    0.563E-02
RMM:   7    -0.709719107486E+03   -0.28223E-06   -0.11970E-05  6409   0.732E-03    0.189E-02
RMM:   8    -0.709719113745E+03   -0.62593E-05   -0.28150E-06  4719   0.373E-03
  36 F= -.70971911E+03 E0= -.70909936E+03  d E =-.319086E-02  mag=     6.7671
 ZBRENT: can't locate minimum, use default step
 trial-energy change:   -0.003191  1 .order   -0.003052   -0.003092   -0.003012
 step:   0.0349(harm=  0.3374)  dis= 0.00230  next Energy=  -709.775692 (dE=-0.598E-01)
 bond charge predicted
       N       E                     dE             d eps       ncg     rms          rms(c)
DAV:   1    -0.709726836507E+03   -0.77290E-02   -0.20728E-01 13888   0.683E-01    0.129E-01
RMM:   2    -0.709727462067E+03   -0.62556E-03   -0.43193E-03 13371   0.111E-01    0.343E-01
RMM:   3    -0.709727312348E+03    0.14972E-03   -0.60256E-04 11057   0.433E-02    0.194E-01
RMM:   4    -0.709728093153E+03   -0.78081E-03   -0.19114E-04  8203   0.244E-02    0.410E-01
RMM:   5    -0.709727310925E+03    0.78223E-03   -0.10114E-04  7629   0.202E-02    0.142E-01
RMM:   6    -0.709727347586E+03   -0.36661E-04   -0.61847E-05  7365   0.129E-02    0.127E-01
RMM:   7    -0.709727357785E+03   -0.10199E-04   -0.23443E-05  6901   0.102E-02    0.102E-01
RMM:   8    -0.709727368490E+03   -0.10705E-04   -0.14482E-05  6766   0.670E-03
  37 F= -.70972737E+03 E0= -.70910766E+03  d E =-.114456E-01  mag=     6.7658
 curvature:  -0.10 expect dE=-0.488E-01 dE for cont linesearch -0.472E-02
 ZBRENT: increasing intervall
 opt :   0.0873  next Energy=  -709.735941 (dE=-0.200E-01)
 bond charge predicted
       N       E                     dE             d eps       ncg     rms          rms(c)
DAV:   1    -0.709728773420E+03   -0.14156E-02   -0.82835E-01 13856   0.137E+00    0.274E-01
RMM:   2    -0.709730613021E+03   -0.18396E-02   -0.17405E-02 13440   0.223E-01    0.588E-01
RMM:   3    -0.709730540083E+03    0.72938E-04   -0.24822E-03 13632   0.868E-02    0.396E-01
RMM:   4    -0.709734474716E+03   -0.39346E-02   -0.86203E-04 12625   0.485E-02    0.917E-01
RMM:   5    -0.709730330379E+03    0.41443E-02   -0.30609E-04  9811   0.343E-02    0.272E-01
RMM:   6    -0.709730342357E+03   -0.11978E-04   -0.23828E-04  8975   0.246E-02    0.282E-01
RMM:   7    -0.709730291030E+03    0.51327E-04   -0.91616E-05  7780   0.193E-02    0.241E-01
RMM:   8    -0.709730224053E+03    0.66978E-04   -0.65989E-05  7545   0.138E-02
  38 F= -.70973022E+03 E0= -.70911067E+03  d E =-.143012E-01  mag=     6.7671
 curvature:  -0.17 expect dE=-0.106E+00 dE for cont linesearch -0.385E-02
 ZBRENT: bracketing found
 ZBRENT: interpolating
 opt :   0.0663  next Energy=  -709.732016 (dE=-0.161E-01)
 bond charge predicted
       N       E                     dE             d eps       ncg     rms          rms(c)
DAV:   1    -0.709731471183E+03   -0.11802E-02   -0.13382E-01 13824   0.551E-01    0.144E-01
RMM:   2    -0.709732337236E+03   -0.86605E-03   -0.27992E-03 13302   0.900E-02    0.423E-01
RMM:   3    -0.709732192715E+03    0.14452E-03   -0.43846E-04 10370   0.399E-02    0.288E-01
RMM:   4    -0.709731847461E+03    0.34525E-03   -0.15173E-04  7711   0.240E-02    0.166E-01
RMM:   5    -0.709731782465E+03    0.64997E-04   -0.50902E-05  7218   0.154E-02    0.915E-02
RMM:   6    -0.709731790556E+03   -0.80908E-05   -0.34207E-05  6872   0.950E-03    0.654E-02
RMM:   7    -0.709731818251E+03   -0.27695E-04   -0.23806E-05  6867   0.962E-03    0.450E-02
RMM:   8    -0.709731825396E+03   -0.71447E-05   -0.85879E-06  6303   0.622E-03
  39 F= -.70973183E+03 E0= -.70911226E+03  d E =-.159025E-01  mag=     6.7689
 curvature:  -0.08 expect dE=-0.455E-01 dE for cont linesearch -0.364E-04
 trial: gam= 0.70821 g(F)=  0.563E+00 g(S)=  0.000E+00 ort = 0.243E-01 (trialstep = 0.202E-01)
 search vector abs. value=  0.125E+01
 bond charge predicted
       N       E                     dE             d eps       ncg     rms          rms(c)
DAV:   1    -0.709740476816E+03   -0.86586E-02   -0.12354E-01 13808   0.524E-01    0.958E-02
RMM:   2    -0.709740695513E+03   -0.21870E-03   -0.24340E-03 13097   0.804E-02    0.129E-01
RMM:   3    -0.709740704320E+03   -0.88072E-05   -0.30892E-04  8575   0.317E-02    0.547E-02
RMM:   4    -0.709740887258E+03   -0.18294E-03   -0.91120E-05  7539   0.185E-02    0.187E-01
RMM:   5    -0.709740749977E+03    0.13728E-03   -0.32725E-05  7227   0.114E-02    0.114E-01
RMM:   6    -0.709740727564E+03    0.22413E-04   -0.24663E-05  6641   0.807E-03    0.477E-02
RMM:   7    -0.709740727636E+03   -0.71850E-07   -0.10154E-05  6285   0.642E-03    0.291E-02
RMM:   8    -0.709740730621E+03   -0.29850E-05   -0.38666E-06  5397   0.429E-03
  40 F= -.70974073E+03 E0= -.70912117E+03  d E =-.890522E-02  mag=     6.7702
 trial-energy change:   -0.008905  1 .order   -0.008878   -0.011733   -0.006024
 step:   0.0416(harm=  0.0416)  dis= 0.00491  next Energy=  -709.743881 (dE=-0.121E-01)
 bond charge predicted
       N       E                     dE             d eps       ncg     rms          rms(c)
DAV:   1    -0.709744290868E+03   -0.35632E-02   -0.13730E-01 13888   0.552E-01    0.102E-01
RMM:   2    -0.709744570881E+03   -0.28001E-03   -0.27206E-03 13200   0.850E-02    0.169E-01
RMM:   3    -0.709744579248E+03   -0.83672E-05   -0.36572E-04  9088   0.343E-02    0.114E-01
RMM:   4    -0.709744732094E+03   -0.15285E-03   -0.10602E-04  7640   0.201E-02    0.204E-01
RMM:   5    -0.709744562154E+03    0.16994E-03   -0.50298E-05  7325   0.138E-02    0.117E-01
RMM:   6    -0.709744535563E+03    0.26591E-04   -0.30805E-05  6902   0.987E-03    0.431E-02
RMM:   7    -0.709744528469E+03    0.70941E-05   -0.12240E-05  6447   0.711E-03    0.240E-02
RMM:   8    -0.709744528538E+03   -0.69325E-07   -0.39005E-06  5434   0.419E-03
  41 F= -.70974453E+03 E0= -.70912500E+03  d E =-.127031E-01  mag=     6.7717
 curvature:  -0.04 expect dE=-0.104E-01 dE for cont linesearch -0.179E-03
 ZBRENT: extrapolating
 opt :   0.0482  next Energy=  -709.744763 (dE=-0.129E-01)
 bond charge predicted
       N       E                     dE             d eps       ncg     rms          rms(c)
DAV:   1    -0.709744784739E+03   -0.25627E-03   -0.13252E-02 13456   0.172E-01    0.379E-02
RMM:   2    -0.709744814492E+03   -0.29753E-04   -0.27421E-04  7815   0.268E-02    0.447E-02
RMM:   3    -0.709744856646E+03   -0.42154E-04   -0.37755E-05  7220   0.127E-02    0.948E-02
RMM:   4    -0.709744811558E+03    0.45088E-04   -0.10220E-05  6726   0.650E-03    0.353E-02
RMM:   5    -0.709744811426E+03    0.13156E-06   -0.38312E-06  5427   0.416E-03    0.192E-02
RMM:   6    -0.709744815269E+03   -0.38424E-05   -0.25991E-06  4373   0.359E-03    0.204E-02
RMM:   7    -0.709744815356E+03   -0.87450E-07   -0.77327E-07  3157   0.306E-03    0.124E-02
RMM:   8    -0.709744817119E+03   -0.17627E-05   -0.80832E-08  1683   0.263E-03
  42 F= -.70974482E+03 E0= -.70912528E+03  d E =-.129917E-01  mag=     6.7735
 curvature:  -0.06 expect dE=-0.161E-01 dE for cont linesearch -0.137E-04
 trial: gam= 0.27408 g(F)=  0.273E+00 g(S)=  0.000E+00 ort = 0.171E-01 (trialstep = 0.258E-01)
 search vector abs. value=  0.376E+00
 bond charge predicted
       N       E                     dE             d eps       ncg     rms          rms(c)
DAV:   1    -0.709750571038E+03   -0.57557E-02   -0.65090E-02 13872   0.398E-01    0.657E-02
RMM:   2    -0.709750718026E+03   -0.14699E-03   -0.12400E-03 12711   0.617E-02    0.130E-01
RMM:   3    -0.709750711822E+03    0.62040E-05   -0.17104E-04  7747   0.248E-02    0.579E-02
RMM:   4    -0.709750870555E+03   -0.15873E-03   -0.50652E-05  7360   0.145E-02    0.182E-01
RMM:   5    -0.709750725063E+03    0.14549E-03   -0.19451E-05  6995   0.925E-03    0.586E-02
RMM:   6    -0.709750738974E+03   -0.13911E-04   -0.12445E-05  6318   0.617E-03    0.502E-02
RMM:   7    -0.709750748991E+03   -0.10017E-04   -0.59158E-06  5902   0.515E-03    0.313E-02
RMM:   8    -0.709750756951E+03   -0.79601E-05   -0.19888E-06  3964   0.344E-03
  43 F= -.70975076E+03 E0= -.70913123E+03  d E =-.593983E-02  mag=     6.7748
 trial-energy change:   -0.005940  1 .order   -0.005869   -0.007167   -0.004570
 step:   0.0713(harm=  0.0713)  dis= 0.00411  next Energy=  -709.754708 (dE=-0.989E-02)
 bond charge predicted
       N       E                     dE             d eps       ncg     rms          rms(c)
DAV:   1    -0.709753834813E+03   -0.30858E-02   -0.20170E-01 13888   0.700E-01    0.120E-01
RMM:   2    -0.709754203655E+03   -0.36884E-03   -0.38425E-03 13411   0.109E-01    0.182E-01
RMM:   3    -0.709754229211E+03   -0.25556E-04   -0.52514E-04 11009   0.429E-02    0.884E-02
RMM:   4    -0.709754971598E+03   -0.74239E-03   -0.18233E-04  8225   0.234E-02    0.384E-01
RMM:   5    -0.709754272974E+03    0.69862E-03   -0.79152E-05  7562   0.188E-02    0.133E-01
RMM:   6    -0.709754266461E+03    0.65130E-05   -0.40086E-05  7202   0.110E-02    0.765E-02
RMM:   7    -0.709754275628E+03   -0.91672E-05   -0.20247E-05  6885   0.873E-03    0.394E-02
RMM:   8    -0.709754280312E+03   -0.46833E-05   -0.75970E-06  6337   0.581E-03
  44 F= -.70975428E+03 E0= -.70913475E+03  d E =-.946319E-02  mag=     6.7752
 curvature:  -0.05 expect dE=-0.821E-02 dE for cont linesearch -0.882E-04
 trial: gam= 0.72513 g(F)=  0.170E+00 g(S)=  0.000E+00 ort =-0.262E-01 (trialstep = 0.349E-01)
 search vector abs. value=  0.330E+00
 bond charge predicted
       N       E                     dE             d eps       ncg     rms          rms(c)
DAV:   1    -0.709758615384E+03   -0.43398E-02   -0.10425E-01 13856   0.481E-01    0.997E-02
RMM:   2    -0.709758803664E+03   -0.18828E-03   -0.20215E-03 13014   0.751E-02    0.150E-01
RMM:   3    -0.709758809138E+03   -0.54734E-05   -0.30249E-04  8642   0.298E-02    0.881E-02
RMM:   4    -0.709759137262E+03   -0.32812E-03   -0.10076E-04  7722   0.185E-02    0.258E-01
RMM:   5    -0.709758813186E+03    0.32408E-03   -0.45277E-05  7412   0.136E-02    0.105E-01
RMM:   6    -0.709758789357E+03    0.23829E-04   -0.21799E-05  6744   0.864E-03    0.619E-02
RMM:   7    -0.709758774305E+03    0.15053E-04   -0.10842E-05  6397   0.640E-03    0.319E-02
RMM:   8    -0.709758762064E+03    0.12241E-04   -0.39489E-06  5500   0.432E-03
  45 F= -.70975876E+03 E0= -.70913917E+03  d E =-.448175E-02  mag=     6.7742
 trial-energy change:   -0.004482  1 .order   -0.004405   -0.005266   -0.003544
 step:   0.1068(harm=  0.1068)  dis= 0.00786  next Energy=  -709.762334 (dE=-0.805E-02)
 bond charge predicted
       N       E                     dE             d eps       ncg     rms          rms(c)
DAV:   1    -0.709757624192E+03    0.11501E-02   -0.44141E-01 13872   0.990E-01    0.193E-01
RMM:   2    -0.709758434677E+03   -0.81048E-03   -0.86153E-03 13435   0.154E-01    0.333E-01
RMM:   3    -0.709758391375E+03    0.43301E-04   -0.12761E-03 12831   0.616E-02    0.168E-01
RMM:   4    -0.709759788457E+03   -0.13971E-02   -0.42581E-04 10425   0.329E-02    0.528E-01
RMM:   5    -0.709758474618E+03    0.13138E-02   -0.19302E-04  8304   0.264E-02    0.234E-01
RMM:   6    -0.709758322218E+03    0.15240E-03   -0.11036E-04  7853   0.196E-02    0.139E-01
RMM:   7    -0.709758245028E+03    0.77191E-04   -0.53701E-05  7481   0.140E-02    0.632E-02
RMM:   8    -0.709758200534E+03    0.44493E-04   -0.22264E-05  6830   0.931E-03
  46 F= -.70975820E+03 E0= -.70913864E+03  d E =-.392022E-02  mag=     6.7708
 curvature:  -0.12 expect dE=-0.384E-01 dE for cont linesearch -0.689E-02
 ZBRENT: interpolating
 opt :   0.0652  next Energy=  -709.760299 (dE=-0.602E-02)
 bond charge predicted
       N       E                     dE             d eps       ncg     rms          rms(c)
DAV:   1    -0.709760200065E+03   -0.19550E-02   -0.14825E-01 13872   0.574E-01    0.111E-01
RMM:   2    -0.709760734096E+03   -0.53403E-03   -0.29021E-03 13255   0.900E-02    0.310E-01
RMM:   3    -0.709760584674E+03    0.14942E-03   -0.42781E-04  9682   0.379E-02    0.170E-01
RMM:   4    -0.709760520871E+03    0.63803E-04   -0.11881E-04  7697   0.203E-02    0.124E-01
RMM:   5    -0.709760534449E+03   -0.13578E-04   -0.39855E-05  7175   0.124E-02    0.113E-01
RMM:   6    -0.709760556619E+03   -0.22170E-04   -0.31454E-05  6972   0.101E-02    0.962E-02
RMM:   7    -0.709760573176E+03   -0.16556E-04   -0.25942E-05  6795   0.973E-03    0.447E-02
RMM:   8    -0.709760585314E+03   -0.12139E-04   -0.95817E-06  6408   0.596E-03
  47 F= -.70976059E+03 E0= -.70914103E+03  d E =-.630500E-02  mag=     6.7682
 curvature:  -0.03 expect dE=-0.434E-02 dE for cont linesearch -0.571E-04
 trial: gam= 0.56205 g(F)=  0.167E+00 g(S)=  0.000E+00 ort = 0.269E-01 (trialstep = 0.410E-01)
 search vector abs. value=  0.301E+00
 bond charge predicted
       N       E                     dE             d eps       ncg     rms          rms(c)
DAV:   1    -0.709764114351E+03   -0.35412E-02   -0.13047E-01 13840   0.542E-01    0.934E-02
RMM:   2    -0.709764415929E+03   -0.30158E-03   -0.25082E-03 13190   0.851E-02    0.183E-01
RMM:   3    -0.709764388288E+03    0.27641E-04   -0.37333E-04  9163   0.338E-02    0.908E-02
RMM:   4    -0.709764691059E+03   -0.30277E-03   -0.11275E-04  7720   0.197E-02    0.262E-01
RMM:   5    -0.709764411354E+03    0.27970E-03   -0.39413E-05  7234   0.133E-02    0.112E-01
RMM:   6    -0.709764369710E+03    0.41645E-04   -0.23191E-05  6702   0.783E-03    0.696E-02
RMM:   7    -0.709764357380E+03    0.12330E-04   -0.14674E-05  6634   0.743E-03    0.340E-02
RMM:   8    -0.709764352297E+03    0.50824E-05   -0.50406E-06  5827   0.461E-03
  48 F= -.70976435E+03 E0= -.70914479E+03  d E =-.376698E-02  mag=     6.7653
 trial-energy change:   -0.003767  1 .order   -0.003712   -0.007458    0.000034
 step:   0.0408(harm=  0.0408)  dis= 0.00276  next Energy=  -709.764297 (dE=-0.371E-02)
 bond charge predicted
       N       E                     dE             d eps       ncg     rms          rms(c)
DAV:   1    -0.709764348141E+03    0.92393E-05   -0.78032E-06  8384   0.673E-03    0.271E-02
RMM:   2    -0.709764396126E+03   -0.47985E-04   -0.15600E-05  6247   0.650E-03    0.940E-02
RMM:   3    -0.709764374031E+03    0.22095E-04   -0.11273E-05  6231   0.712E-03    0.778E-02
RMM:   4    -0.709764345970E+03    0.28061E-04   -0.28078E-06  4966   0.344E-03    0.236E-02
RMM:   5    -0.709764346429E+03   -0.45957E-06   -0.24026E-07  2037   0.252E-03    0.184E-02
RMM:   6    -0.709764347606E+03   -0.11770E-05   -0.96404E-08  1666   0.244E-03    0.166E-02
RMM:   7    -0.709764349793E+03   -0.21863E-05   -0.79123E-08  1440   0.246E-03    0.682E-03
RMM:   8    -0.709764353709E+03   -0.39162E-05   -0.28028E-08  1252   0.242E-03
  49 F= -.70976435E+03 E0= -.70914479E+03  d E =-.376839E-02  mag=     6.7625
 curvature:  -0.03 expect dE=-0.140E-02 dE for cont linesearch -0.444E-07
 trial: gam= 0.06338 g(F)=  0.416E-01 g(S)=  0.000E+00 ort =-0.630E-03 (trialstep = 0.409E-01)
 search vector abs. value=  0.427E-01
 bond charge predicted
       N       E                     dE             d eps       ncg     rms          rms(c)
DAV:   1    -0.709765606725E+03   -0.12569E-02   -0.17821E-02 13888   0.213E-01    0.362E-02
RMM:   2    -0.709765661444E+03   -0.54719E-04   -0.37973E-04  8736   0.371E-02    0.728E-02
RMM:   3    -0.709765661545E+03   -0.10055E-06   -0.53594E-05  7177   0.160E-02    0.374E-02
RMM:   4    -0.709765735384E+03   -0.73839E-04   -0.17756E-05  7006   0.806E-03    0.113E-01
RMM:   5    -0.709765675111E+03    0.60273E-04   -0.89290E-06  6468   0.633E-03    0.345E-02
RMM:   6    -0.709765684864E+03   -0.97531E-05   -0.25686E-06  4358   0.350E-03    0.340E-02
RMM:   7    -0.709765694815E+03   -0.99511E-05   -0.88508E-07  3119   0.303E-03    0.315E-02
RMM:   8    -0.709765704484E+03   -0.96685E-05   -0.58389E-07  2558   0.296E-03
  50 F= -.70976570E+03 E0= -.70914619E+03  d E =-.135077E-02  mag=     6.7601
 trial-energy change:   -0.001351  1 .order   -0.001287   -0.001701   -0.000872
 step:   0.0840(harm=  0.0840)  dis= 0.00169  next Energy=  -709.766099 (dE=-0.174E-02)
 bond charge predicted
       N       E                     dE             d eps       ncg     rms          rms(c)
DAV:   1    -0.709766109770E+03   -0.41496E-03   -0.19536E-02 13888   0.223E-01    0.467E-02
RMM:   2    -0.709766166756E+03   -0.56986E-04   -0.42398E-04  9157   0.389E-02    0.855E-02
RMM:   3    -0.709766169886E+03   -0.31301E-05   -0.62073E-05  7203   0.167E-02    0.588E-02
RMM:   4    -0.709766175611E+03   -0.57250E-05   -0.21602E-05  7052   0.917E-03    0.460E-02
RMM:   5    -0.709766183080E+03   -0.74692E-05   -0.61474E-06  6286   0.555E-03    0.497E-02
RMM:   6    -0.709766180648E+03    0.24325E-05   -0.85961E-07  2932   0.295E-03    0.461E-02
RMM:   7    -0.709766190474E+03   -0.98256E-05   -0.21506E-06  4145   0.336E-03    0.387E-02
RMM:   8    -0.709766197142E+03   -0.66684E-05   -0.11903E-06  3683   0.326E-03
  51 F= -.70976620E+03 E0= -.70914667E+03  d E =-.184343E-02  mag=     6.7582
 curvature:  -0.04 expect dE=-0.621E-03 dE for cont linesearch -0.143E-06
 trial: gam= 0.35806 g(F)=  0.144E-01 g(S)=  0.000E+00 ort =-0.376E-03 (trialstep = 0.495E-01)
 search vector abs. value=  0.196E-01
 bond charge predicted
       N       E                     dE             d eps       ncg     rms          rms(c)
DAV:   1    -0.709766667907E+03   -0.47743E-03   -0.10941E-02 13776   0.159E-01    0.437E-02
RMM:   2    -0.709766733909E+03   -0.66002E-04   -0.23842E-04  7769   0.278E-02    0.121E-01
RMM:   3    -0.709766700289E+03    0.33620E-04   -0.37137E-05  7180   0.135E-02    0.493E-02
RMM:   4    -0.709766711324E+03   -0.11035E-04   -0.12382E-05  6742   0.678E-03    0.690E-02
RMM:   5    -0.709766693756E+03    0.17568E-04   -0.75813E-06  6204   0.576E-03    0.418E-02
RMM:   6    -0.709766685662E+03    0.80945E-05   -0.44541E-06  5362   0.410E-03    0.239E-02
RMM:   7    -0.709766681772E+03    0.38895E-05   -0.15673E-06  4046   0.350E-03    0.119E-02
RMM:   8    -0.709766680799E+03    0.97322E-06   -0.95556E-08  1681   0.269E-03
  52 F= -.70976668E+03 E0= -.70914717E+03  d E =-.483657E-03  mag=     6.7560
 trial-energy change:   -0.000484  1 .order   -0.000486   -0.000706   -0.000265
 step:   0.0793(harm=  0.0793)  dis= 0.00068  next Energy=  -709.766762 (dE=-0.565E-03)
 bond charge predicted
       N       E                     dE             d eps       ncg     rms          rms(c)
DAV:   1    -0.709766747531E+03   -0.65759E-04   -0.39423E-03 13520   0.958E-02    0.189E-02
RMM:   2    -0.709766764852E+03   -0.17321E-04   -0.85672E-05  7266   0.169E-02    0.584E-02
RMM:   3    -0.709766756541E+03    0.83105E-05   -0.12089E-05  6937   0.798E-03    0.233E-02
RMM:   4    -0.709766768295E+03   -0.11754E-04   -0.37160E-06  5203   0.384E-03    0.573E-02
RMM:   5    -0.709766755546E+03    0.12750E-04   -0.11919E-06  3702   0.334E-03    0.202E-02
RMM:   6    -0.709766752793E+03    0.27522E-05   -0.51811E-07  2357   0.282E-03    0.127E-02
RMM:   7    -0.709766753073E+03   -0.28012E-06   -0.20570E-07  1811   0.265E-03    0.114E-02
RMM:   8    -0.709766754146E+03   -0.10729E-05   -0.24027E-07  1589   0.262E-03
  53 F= -.70976675E+03 E0= -.70914724E+03  d E =-.557004E-03  mag=     6.7537
 curvature:  -0.05 expect dE=-0.119E-02 dE for cont linesearch -0.763E-06
 trial: gam= 1.54604 g(F)=  0.218E-01 g(S)=  0.000E+00 ort =-0.524E-03 (trialstep = 0.162E-01)
 search vector abs. value=  0.670E-01
 bond charge predicted
       N       E                     dE             d eps       ncg     rms          rms(c)
DAV:   1    -0.709767055382E+03   -0.30231E-03   -0.39801E-03 13600   0.934E-02    0.191E-02
RMM:   2    -0.709767067726E+03   -0.12344E-04   -0.81712E-05  7234   0.160E-02    0.484E-02
RMM:   3    -0.709767064913E+03    0.28124E-05   -0.11276E-05  6886   0.772E-03    0.161E-02
RMM:   4    -0.709767072866E+03   -0.79529E-05   -0.25861E-06  4220   0.351E-03    0.427E-02
RMM:   5    -0.709767066136E+03    0.67302E-05   -0.39222E-07  2516   0.297E-03    0.135E-02
RMM:   6    -0.709767068204E+03   -0.20676E-05   -0.35082E-07  2010   0.291E-03    0.172E-02
RMM:   7    -0.709767068457E+03   -0.25339E-06   -0.11594E-07  1603   0.281E-03    0.924E-03
RMM:   8    -0.709767070726E+03   -0.22692E-05   -0.26953E-07  1475   0.285E-03
  54 F= -.70976707E+03 E0= -.70914756E+03  d E =-.316580E-03  mag=     6.7516
 ZBRENT: can't locate minimum, use default step
 trial-energy change:   -0.000317  1 .order   -0.000303   -0.000341   -0.000265
 step:   0.0649(harm=  0.0729)  dis= 0.00122  next Energy=  -709.767520 (dE=-0.766E-03)
 bond charge predicted
       N       E                     dE             d eps       ncg     rms          rms(c)
DAV:   1    -0.709767481852E+03   -0.41339E-03   -0.35763E-02 13776   0.280E-01    0.531E-02
RMM:   2    -0.709767634642E+03   -0.15279E-03   -0.70193E-04 11898   0.471E-02    0.179E-01
RMM:   3    -0.709767547789E+03    0.86853E-04   -0.11196E-04  7467   0.200E-02    0.576E-02
RMM:   4    -0.709767606401E+03   -0.58612E-04   -0.33238E-05  7133   0.123E-02    0.124E-01
RMM:   5    -0.709767542410E+03    0.63991E-04   -0.14266E-05  6789   0.752E-03    0.552E-02
RMM:   6    -0.709767532451E+03    0.99591E-05   -0.92912E-06  6185   0.542E-03    0.436E-02
RMM:   7    -0.709767526077E+03    0.63743E-05   -0.47703E-06  5834   0.470E-03    0.402E-02
RMM:   8    -0.709767522729E+03    0.33473E-05   -0.20180E-06  3963   0.342E-03
  55 F= -.70976752E+03 E0= -.70914806E+03  d E =-.768583E-03  mag=     6.7491
 curvature:  -0.11 expect dE=-0.160E-02 dE for cont linesearch -0.601E-05
 trial: gam= 0.43217 g(F)=  0.141E-01 g(S)=  0.000E+00 ort = 0.188E-02 (trialstep = 0.260E-01)
 search vector abs. value=  0.282E-01
 bond charge predicted
       N       E                     dE             d eps       ncg     rms          rms(c)
DAV:   1    -0.709767873652E+03   -0.34758E-03   -0.45487E-03 13728   0.989E-02    0.266E-02
RMM:   2    -0.709767967667E+03   -0.94015E-04   -0.97324E-05  7276   0.171E-02    0.131E-01
RMM:   3    -0.709767889752E+03    0.77915E-04   -0.21865E-05  7032   0.103E-02    0.513E-02
RMM:   4    -0.709767879584E+03    0.10168E-04   -0.47561E-06  5951   0.476E-03    0.194E-02
RMM:   5    -0.709767876279E+03    0.33047E-05   -0.66270E-07  2839   0.297E-03    0.125E-02
RMM:   6    -0.709767874676E+03    0.16032E-05   -0.99077E-08  1656   0.270E-03    0.115E-02
RMM:   7    -0.709767873650E+03    0.10258E-05   -0.23493E-07  1897   0.279E-03    0.905E-03
RMM:   8    -0.709767874055E+03   -0.40436E-06   -0.10082E-07  1230   0.274E-03
  56 F= -.70976787E+03 E0= -.70914837E+03  d E =-.351325E-03  mag=     6.7465
 ZBRENT: can't locate minimum, use default step
 trial-energy change:   -0.000351  1 .order   -0.000365   -0.000386   -0.000344
 step:   0.1038(harm=  0.2369)  dis= 0.00123  next Energy=  -709.769286 (dE=-0.176E-02)
 bond charge predicted
       N       E                     dE             d eps       ncg     rms          rms(c)
DAV:   1    -0.709768673635E+03   -0.79998E-03   -0.40871E-02 13888   0.296E-01    0.492E-02
RMM:   2    -0.709768744354E+03   -0.70719E-04   -0.72630E-04 11540   0.476E-02    0.682E-02
RMM:   3    -0.709768766648E+03   -0.22294E-04   -0.11032E-04  7428   0.201E-02    0.720E-02
RMM:   4    -0.709768774641E+03   -0.79933E-05   -0.29288E-05  7080   0.117E-02    0.784E-02
RMM:   5    -0.709768742409E+03    0.32232E-04   -0.10508E-05  6507   0.632E-03    0.357E-02
RMM:   6    -0.709768734436E+03    0.79737E-05   -0.58834E-06  5784   0.479E-03    0.338E-02
RMM:   7    -0.709768724432E+03    0.10004E-04   -0.33802E-06  5227   0.401E-03    0.125E-02
RMM:   8    -0.709768719776E+03    0.46555E-05   -0.18393E-06  3808   0.324E-03
  57 F= -.70976872E+03 E0= -.70914923E+03  d E =-.119705E-02  mag=     6.7436
 curvature:  -0.14 expect dE=-0.231E-02 dE for cont linesearch -0.492E-03
 ZBRENT: increasing intervall
 opt :   0.2596  next Energy=  -709.769814 (dE=-0.229E-02)
 bond charge predicted
       N       E                     dE             d eps       ncg     rms          rms(c)
DAV:   1    -0.709769014279E+03   -0.28985E-03   -0.16345E-01 13776   0.592E-01    0.991E-02
RMM:   2    -0.709769330828E+03   -0.31655E-03   -0.29001E-03 13343   0.952E-02    0.154E-01
RMM:   3    -0.709769486646E+03   -0.15582E-03   -0.45770E-04 10984   0.389E-02    0.194E-01
RMM:   4    -0.709769341660E+03    0.14499E-03   -0.12054E-04  7821   0.209E-02    0.111E-01
RMM:   5    -0.709769284130E+03    0.57530E-04   -0.43916E-05  7326   0.139E-02    0.680E-02
RMM:   6    -0.709769254348E+03    0.29782E-04   -0.24300E-05  6903   0.861E-03    0.628E-02
RMM:   7    -0.709769221254E+03    0.33095E-04   -0.16172E-05  6675   0.780E-03    0.278E-02
RMM:   8    -0.709769205026E+03    0.16227E-04   -0.96189E-06  6299   0.527E-03
  58 F= -.70976921E+03 E0= -.70914971E+03  d E =-.168230E-02  mag=     6.7395
 curvature:  -0.30 expect dE=-0.209E-01 dE for cont linesearch -0.709E-04
 ZBRENT: bracketing found
 ZBRENT: interpolating
 opt :   0.2280  next Energy=  -709.769246 (dE=-0.172E-02)
 bond charge predicted
       N       E                     dE             d eps       ncg     rms          rms(c)
DAV:   1    -0.709769224194E+03   -0.29399E-05   -0.67623E-03 13872   0.121E-01    0.224E-02
RMM:   2    -0.709769285198E+03   -0.61004E-04   -0.12629E-04  7325   0.200E-02    0.103E-01
RMM:   3    -0.709769235713E+03    0.49485E-04   -0.20158E-05  7016   0.101E-02    0.315E-02
RMM:   4    -0.709769234921E+03    0.79272E-06   -0.45027E-06  5965   0.444E-03    0.161E-02
RMM:   5    -0.709769238173E+03   -0.32524E-05   -0.78772E-07  3086   0.310E-03    0.146E-02
RMM:   6    -0.709769243994E+03   -0.58206E-05   -0.85610E-07  2828   0.311E-03    0.149E-02
RMM:   7    -0.709769255016E+03   -0.11022E-04   -0.16233E-06  3312   0.315E-03    0.888E-03
RMM:   8    -0.709769262395E+03   -0.73791E-05   -0.50888E-07  1903   0.282E-03
  59 F= -.70976926E+03 E0= -.70914977E+03  d E =-.173967E-02  mag=     6.7359
 curvature:  -0.17 expect dE=-0.928E-02 dE for cont linesearch -0.122E-07
 trial: gam= 4.12302 g(F)=  0.537E-01 g(S)=  0.000E+00 ort = 0.446E-04 (trialstep = 0.351E-02)
 search vector abs. value=  0.534E+00
 bond charge predicted
       N       E                     dE             d eps       ncg     rms          rms(c)
DAV:   1    -0.709769453816E+03   -0.19880E-03   -0.15853E-03 13120   0.573E-02    0.951E-03
RMM:   2    -0.709769466581E+03   -0.12764E-04   -0.26907E-05  6956   0.893E-03    0.224E-02
RMM:   3    -0.709769468169E+03   -0.15887E-05   -0.31832E-06  5423   0.426E-03    0.137E-02
RMM:   4    -0.709769471845E+03   -0.36761E-05   -0.11615E-07  1436   0.240E-03    0.156E-02
RMM:   5    -0.709769475584E+03   -0.37383E-05   -0.15057E-08  1107   0.227E-03    0.448E-03
RMM:   6    -0.709769484499E+03   -0.89152E-05   -0.63819E-08  1150   0.240E-03    0.536E-03
[...]
RMM:  12    -0.709957739217E+03    0.38899E-03   -0.33455E-04  8721   0.244E-02    0.981E-02
RMM:  13    -0.709957247875E+03    0.49134E-03   -0.35863E-04  9182   0.244E-02    0.846E-02
RMM:  14    -0.709956546328E+03    0.70155E-03   -0.52629E-04 10065   0.288E-02    0.943E-02
RMM:  15    -0.709956261700E+03    0.28463E-03   -0.14140E-04  7944   0.182E-02    0.106E-01
RMM:  16    -0.709956727781E+03   -0.46608E-03   -0.11315E-04  7324   0.175E-02    0.105E-01
RMM:  17    -0.709956886606E+03   -0.15883E-03   -0.32266E-05  6678   0.920E-03    0.991E-02
RMM:  18    -0.709957588422E+03   -0.70182E-03   -0.79585E-04 10669   0.351E-02    0.922E-02
RMM:  19    -0.709958236648E+03   -0.64823E-03   -0.15407E-03 12827   0.480E-02    0.101E-01
RMM:  20    -0.709958590221E+03   -0.35357E-03   -0.41627E-04  9757   0.278E-02    0.107E-01
RMM:  21    -0.709958707179E+03   -0.11696E-03   -0.79822E-05  7505   0.149E-02    0.102E-01
RMM:  22    -0.709958734666E+03   -0.27487E-04   -0.25540E-05  6949   0.982E-03
 213 F= -.70995873E+03 E0= -.70934309E+03  d E =-.212924E-02  mag=     6.4635
 curvature:  -0.09 expect dE=-0.258E-03 dE for cont linesearch -0.198E-05
 trial: gam= 1.75636 g(F)=  0.295E-02 g(S)=  0.000E+00 ort =-0.266E-03 (trialstep = 0.153E-01)
 search vector abs. value=  0.117E-01
 bond charge predicted
       N       E                     dE             d eps       ncg     rms          rms(c)
DAV:   1    -0.709958797852E+03   -0.90673E-04   -0.58239E-04 13488   0.332E-02    0.100E-01
RMM:   2    -0.709959018939E+03   -0.22109E-03   -0.14161E-04  7730   0.171E-02    0.160E-01
RMM:   3    -0.709959044492E+03   -0.25553E-04   -0.58370E-05  7351   0.141E-02    0.172E-01
RMM:   4    -0.709958938927E+03    0.10557E-03   -0.10312E-04  7584   0.143E-02    0.123E-01
RMM:   5    -0.709958816981E+03    0.12195E-03   -0.71897E-05  7403   0.130E-02    0.791E-02
RMM:   6    -0.709958649115E+03    0.16787E-03   -0.77447E-05  7483   0.130E-02    0.855E-02
RMM:   7    -0.709958658119E+03   -0.90034E-05   -0.14259E-05  6409   0.802E-03    0.840E-02
RMM:   8    -0.709958703048E+03   -0.44930E-04   -0.11036E-05  5991   0.509E-03
 214 F= -.70995870E+03 E0= -.70934286E+03  d E =0.316177E-04  mag=     6.4598
 trial-energy change:    0.000032  1 .order   -0.000030   -0.000038   -0.000022
 step:   0.0352(harm=  0.0352)  dis= 0.00045  next Energy=  -709.958778 (dE=-0.438E-04)
 bond charge predicted
       N       E                     dE             d eps       ncg     rms          rms(c)
DAV:   1    -0.709958773474E+03   -0.11536E-03   -0.98591E-04 13312   0.432E-02    0.138E-01
RMM:   2    -0.709961638268E+03   -0.28648E-02   -0.53948E-04 11411   0.343E-02    0.805E-01
RMM:   3    -0.709958738370E+03    0.28999E-02   -0.24543E-04  8815   0.329E-02    0.206E-01
RMM:   4    -0.709958515769E+03    0.22260E-03   -0.67497E-05  7326   0.160E-02    0.106E-01
RMM:   5    -0.709958334180E+03    0.18159E-03   -0.58741E-05  7111   0.118E-02    0.955E-02
RMM:   6    -0.709957825986E+03    0.50819E-03   -0.15742E-04  7939   0.162E-02    0.100E-01
RMM:   7    -0.709957439121E+03    0.38686E-03   -0.10021E-04  7566   0.147E-02    0.110E-01
RMM:   8    -0.709957176051E+03    0.26307E-03   -0.60807E-05  7233   0.122E-02    0.114E-01
RMM:   9    -0.709957135379E+03    0.40672E-04   -0.18103E-05  6516   0.832E-03
 215 F= -.70995714E+03 E0= -.70934119E+03  d E =0.159929E-02  mag=     6.4504
 curvature:  -0.08 expect dE=-0.116E-03 dE for cont linesearch -0.474E-06
 trial: gam= 0.07371 g(F)=  0.141E-02 g(S)=  0.000E+00 ort = 0.259E-03 (trialstep = 0.193E-01)
 search vector abs. value=  0.151E-02
 bond charge predicted
       N       E                     dE             d eps       ncg     rms          rms(c)
DAV:   1    -0.709957661395E+03   -0.48534E-03   -0.53773E-04 11680   0.386E-02    0.103E-01
RMM:   2    -0.709958098024E+03   -0.43663E-03   -0.24215E-04  8710   0.255E-02    0.356E-01
RMM:   3    -0.709957676051E+03    0.42197E-03   -0.11373E-04  7376   0.223E-02    0.185E-01
RMM:   4    -0.709957484577E+03    0.19147E-03   -0.27730E-05  6955   0.948E-03    0.849E-02
RMM:   5    -0.709957319519E+03    0.16506E-03   -0.24317E-05  6888   0.786E-03    0.828E-02
RMM:   6    -0.709957124540E+03    0.19498E-03   -0.28450E-05  6751   0.786E-03    0.947E-02
RMM:   7    -0.709957195726E+03   -0.71186E-04   -0.47250E-06  5130   0.491E-03    0.986E-02
RMM:   8    -0.709956643496E+03    0.55223E-03   -0.12439E-04  7602   0.141E-02    0.122E-01
RMM:   9    -0.709956295273E+03    0.34822E-03   -0.68212E-05  7291   0.109E-02    0.118E-01
RMM:  10    -0.709955843779E+03    0.45149E-03   -0.91094E-05  7521   0.124E-02    0.119E-01
RMM:  11    -0.709957421179E+03   -0.15774E-02   -0.23517E-03 13250   0.614E-02    0.123E-01
RMM:  12    -0.709957926362E+03   -0.50518E-03   -0.12951E-04  7754   0.218E-02    0.115E-01
RMM:  13    -0.709957798531E+03    0.12783E-03   -0.12195E-03 12033   0.410E-02    0.145E-01
RMM:  14    -0.709957920458E+03   -0.12193E-03   -0.11450E-03 11437   0.444E-02    0.986E-02
RMM:  15    -0.709957890396E+03    0.30062E-04   -0.20104E-04  8011   0.209E-02
 216 F= -.70995789E+03 E0= -.70934198E+03  d E =-.755017E-03  mag=     6.4101
 trial-energy change:   -0.000755  1 .order   -0.000023   -0.000028   -0.000019
 step:   0.0623(harm=  0.0623)  dis= 0.00019  next Energy=  -709.957180 (dE=-0.445E-04)
 bond charge predicted
       N       E                     dE             d eps       ncg     rms          rms(c)
DAV:   1    -0.709956828977E+03    0.10915E-02   -0.35590E-03 17488   0.896E-02    0.887E-02
RMM:   2    -0.709957475066E+03   -0.64609E-03   -0.39037E-04  9250   0.296E-02    0.301E-01
RMM:   3    -0.709957138203E+03    0.33686E-03   -0.11011E-04  7391   0.206E-02    0.172E-01
RMM:   4    -0.709957033178E+03    0.10502E-03   -0.30474E-05  6916   0.108E-02    0.105E-01
RMM:   5    -0.709957042543E+03   -0.93646E-05   -0.65899E-06  5676   0.530E-03    0.117E-01
RMM:   6    -0.709957018313E+03    0.24229E-04   -0.11285E-05  6230   0.521E-03    0.119E-01
RMM:   7    -0.709957020289E+03   -0.19760E-05   -0.30510E-06  5232   0.416E-03    0.116E-01
RMM:   8    -0.709957027531E+03   -0.72420E-05   -0.18112E-07  1896   0.243E-03
 217 F= -.70995703E+03 E0= -.70934121E+03  d E =0.107848E-03  mag=     6.4072
 curvature:  -0.03 expect dE=-0.415E-04 dE for cont linesearch -0.644E-07
 trial: gam= 0.95047 g(F)=  0.126E-02 g(S)=  0.000E+00 ort =-0.543E-04 (trialstep = 0.167E-01)
 search vector abs. value=  0.252E-02
 bond charge predicted
       N       E                     dE             d eps       ncg     rms          rms(c)
DAV:   1    -0.709957141309E+03   -0.12102E-03   -0.19517E-04 10016   0.229E-02    0.116E-01
RMM:   2    -0.709960027074E+03   -0.28858E-02   -0.45158E-04 11078   0.297E-02    0.728E-01
RMM:   3    -0.709957017676E+03    0.30094E-02   -0.14944E-04  7501   0.268E-02    0.131E-01
RMM:   4    -0.709956941127E+03    0.76549E-04   -0.66305E-05  7295   0.136E-02    0.155E-01
RMM:   5    -0.709956819746E+03    0.12138E-03   -0.36418E-05  6879   0.100E-02    0.123E-01
RMM:   6    -0.709956847754E+03   -0.28008E-04   -0.75034E-06  5964   0.604E-03    0.136E-01
RMM:   7    -0.709956830610E+03    0.17144E-04   -0.59044E-06  4971   0.409E-03    0.104E-01
RMM:   8    -0.709956935624E+03   -0.10501E-03   -0.29146E-05  6833   0.782E-03    0.115E-01
RMM:   9    -0.709957014467E+03   -0.78842E-04   -0.41832E-05  7005   0.104E-02
 218 F= -.70995701E+03 E0= -.70934092E+03  d E =0.130647E-04  mag=     6.3997
 trial-energy change:    0.000013  1 .order   -0.000016   -0.000020   -0.000012
 step:   0.0406(harm=  0.0406)  dis= 0.00020  next Energy=  -709.957052 (dE=-0.245E-04)
 bond charge predicted
       N       E                     dE             d eps       ncg     rms          rms(c)
DAV:   1    -0.709956954678E+03   -0.19054E-04   -0.42467E-04 12944   0.362E-02    0.244E-01
RMM:   2    -0.709957553826E+03   -0.59915E-03   -0.33588E-04  9365   0.268E-02    0.366E-01
RMM:   3    -0.709958372036E+03   -0.81821E-03   -0.36745E-04 10683   0.350E-02    0.580E-01
RMM:   4    -0.709957506618E+03    0.86542E-03   -0.88621E-05  7501   0.171E-02    0.392E-01
RMM:   5    -0.709956749910E+03    0.75671E-03   -0.36808E-04  9150   0.237E-02    0.295E-01
RMM:   6    -0.709956578866E+03    0.17104E-03   -0.46566E-05  7270   0.138E-02    0.223E-01
RMM:   7    -0.709956637493E+03   -0.58627E-04   -0.11264E-05  6428   0.679E-03    0.222E-01
RMM:   8    -0.709956754599E+03   -0.11711E-03   -0.17093E-05  6766   0.675E-03    0.226E-01
RMM:   9    -0.709956745370E+03    0.92293E-05   -0.24827E-06  4923   0.378E-03
 219 F= -.70995675E+03 E0= -.70934091E+03  d E =0.282162E-03  mag=     6.3867
 curvature:  -0.04 expect dE=-0.333E-04 dE for cont linesearch -0.875E-06
 ZBRENT: extrapolating
 opt :   0.0519  next Energy=  -709.956747 (dE= 0.281E-03)
 bond charge predicted
       N       E                     dE             d eps       ncg     rms          rms(c)
DAV:   1    -0.709956659373E+03    0.95226E-04   -0.13406E-04  8096   0.236E-02    0.225E-01
RMM:   2    -0.709957931361E+03   -0.12720E-02   -0.73439E-04 11542   0.388E-02    0.709E-01
RMM:   3    -0.709957031670E+03    0.89969E-03   -0.47503E-04 11100   0.412E-02    0.457E-01
RMM:   4    -0.709956033431E+03    0.99824E-03   -0.13628E-04  7795   0.204E-02    0.231E-01
RMM:   5    -0.709955516608E+03    0.51682E-03   -0.22030E-04  8185   0.214E-02    0.193E-01
RMM:   6    -0.709955797659E+03   -0.28105E-03   -0.43060E-05  6931   0.128E-02    0.201E-01
RMM:   7    -0.709957268446E+03   -0.14708E-02   -0.25628E-03 13428   0.624E-02    0.174E-01
RMM:   8    -0.709958255882E+03   -0.98744E-03   -0.14766E-03 12746   0.486E-02    0.173E-01
RMM:   9    -0.709958457088E+03   -0.20121E-03   -0.15235E-03 12955   0.485E-02    0.186E-01
RMM:  10    -0.709958739950E+03   -0.28286E-03   -0.72438E-05  8036   0.197E-02    0.182E-01
RMM:  11    -0.709958815810E+03   -0.75860E-04   -0.18979E-05  7682   0.892E-03
 220 F= -.70995882E+03 E0= -.70934303E+03  d E =-.178828E-02  mag=     6.4319
 curvature:  -0.06 expect dE=-0.721E-04 dE for cont linesearch -0.728E-06
 trial: gam= 1.04099 g(F)=  0.115E-02 g(S)=  0.000E+00 ort =-0.171E-03 (trialstep = 0.170E-01)
 search vector abs. value=  0.353E-02
 bond charge predicted
       N       E                     dE             d eps       ncg     rms          rms(c)
DAV:   1    -0.709958922649E+03   -0.18270E-03   -0.66367E-04 13072   0.394E-02    0.150E-01
RMM:   2    -0.709962308733E+03   -0.33861E-02   -0.64395E-04 12047   0.381E-02    0.806E-01
RMM:   3    -0.709959500679E+03    0.28081E-02   -0.34380E-04 10349   0.379E-02    0.320E-01
RMM:   4    -0.709959039053E+03    0.46163E-03   -0.76312E-05  7359   0.171E-02    0.154E-01
RMM:   5    -0.709958913158E+03    0.12590E-03   -0.56067E-05  7290   0.119E-02    0.943E-02
RMM:   6    -0.709958831833E+03    0.81325E-04   -0.44837E-05  7141   0.106E-02    0.735E-02
RMM:   7    -0.709958848086E+03   -0.16253E-04   -0.78418E-06  5976   0.626E-03    0.804E-02
RMM:   8    -0.709958815963E+03    0.32123E-04   -0.87031E-06  5415   0.424E-03
 221 F= -.70995882E+03 E0= -.70934302E+03  d E =-.153319E-06  mag=     6.4268
 trial-energy change:   -0.000000  1 .order   -0.000012   -0.000017   -0.000008
 step:   0.0326(harm=  0.0326)  dis= 0.00023  next Energy=  -709.958832 (dE=-0.159E-04)
 bond charge predicted
       N       E                     dE             d eps       ncg     rms          rms(c)
DAV:   1    -0.709958815941E+03    0.32145E-04   -0.21916E-04 10240   0.237E-02    0.804E-02
RMM:   2    -0.709960766805E+03   -0.19509E-02   -0.30145E-04  9693   0.275E-02    0.591E-01
RMM:   3    -0.709958807442E+03    0.19594E-02   -0.93910E-05  7296   0.230E-02    0.150E-01
RMM:   4    -0.709958732923E+03    0.74519E-04   -0.27216E-05  7178   0.896E-03    0.154E-01
RMM:   5    -0.709958573071E+03    0.15985E-03   -0.34086E-05  6910   0.880E-03    0.112E-01
RMM:   6    -0.709958365934E+03    0.20714E-03   -0.48011E-05  7248   0.983E-03    0.843E-02
RMM:   7    -0.709958540739E+03   -0.17480E-03   -0.21503E-05  6530   0.839E-03    0.108E-01
RMM:   8    -0.709958189081E+03    0.35166E-03   -0.82015E-05  7181   0.116E-02    0.115E-01
RMM:   9    -0.709957297319E+03    0.89176E-03   -0.39421E-04  9293   0.237E-02    0.109E-01
RMM:  10    -0.709957706214E+03   -0.40889E-03   -0.54676E-05  7181   0.132E-02    0.115E-01
RMM:  11    -0.709957626754E+03    0.79460E-04   -0.49315E-06  5520   0.485E-03
 222 F= -.70995763E+03 E0= -.70934171E+03  d E =0.118906E-02  mag=     6.4083
 curvature:  -0.06 expect dE=-0.572E-04 dE for cont linesearch -0.237E-08
 trial: gam= 0.34981 g(F)=  0.969E-03 g(S)=  0.000E+00 ort = 0.119E-04 (trialstep = 0.201E-01)
 search vector abs. value=  0.141E-02
 bond charge predicted
       N       E                     dE             d eps       ncg     rms          rms(c)
DAV:   1    -0.709957736267E+03   -0.30053E-04   -0.17052E-04  9520   0.228E-02    0.112E-01
RMM:   2    -0.709958203407E+03   -0.46714E-03   -0.23215E-04  8687   0.253E-02    0.376E-01
RMM:   3    -0.709957808979E+03    0.39443E-03   -0.13767E-04  7458   0.241E-02    0.228E-01
RMM:   4    -0.709957522865E+03    0.28611E-03   -0.39911E-05  7136   0.121E-02    0.106E-01
RMM:   5    -0.709957433066E+03    0.89798E-04   -0.23165E-05  6602   0.810E-03    0.967E-02
RMM:   6    -0.709957420029E+03    0.13037E-04   -0.56481E-06  5503   0.493E-03    0.961E-02
RMM:   7    -0.709957541254E+03   -0.12123E-03   -0.83570E-06  5919   0.479E-03    0.135E-01
RMM:   8    -0.709958017676E+03   -0.47642E-03   -0.31961E-04  8578   0.223E-02    0.976E-02
RMM:   9    -0.709958552386E+03   -0.53471E-03   -0.71940E-04 10765   0.329E-02    0.106E-01
RMM:  10    -0.709958399102E+03    0.15328E-03   -0.23412E-03 13861   0.579E-02    0.142E-01
RMM:  11    -0.709959101655E+03   -0.70255E-03   -0.25078E-04  8511   0.278E-02    0.115E-01
RMM:  12    -0.709958545906E+03    0.55575E-03   -0.82520E-04 10975   0.374E-02    0.823E-02
RMM:  13    -0.709958213699E+03    0.33221E-03   -0.25563E-04  8403   0.235E-02    0.886E-02
RMM:  14    -0.709957909571E+03    0.30413E-03   -0.19895E-04  8035   0.196E-02    0.810E-02
RMM:  15    -0.709957412456E+03    0.49712E-03   -0.30534E-04  8764   0.233E-02    0.858E-02
RMM:  16    -0.709957673582E+03   -0.26113E-03   -0.48477E-05  7050   0.146E-02    0.881E-02
RMM:  17    -0.709957704836E+03   -0.31254E-04   -0.76405E-06  5867   0.533E-03
 223 F= -.70995770E+03 E0= -.70934174E+03  d E =-.780821E-04  mag=     6.4002
 trial-energy change:   -0.000078  1 .order   -0.000016   -0.000020   -0.000012
 step:   0.0537(harm=  0.0537)  dis= 0.00022  next Energy=  -709.957653 (dE=-0.261E-04)
 bond charge predicted
       N       E                     dE             d eps       ncg     rms          rms(c)
DAV:   1    -0.709957736253E+03   -0.62670E-04   -0.36562E-04 12656   0.281E-02    0.856E-02
RMM:   2    -0.709958066872E+03   -0.33062E-03   -0.11377E-04  7533   0.152E-02    0.195E-01
RMM:   3    -0.709957915578E+03    0.15129E-03   -0.43781E-05  7160   0.132E-02    0.119E-01
RMM:   4    -0.709957854828E+03    0.60750E-04   -0.38222E-05  6957   0.945E-03    0.953E-02
RMM:   5    -0.709957757193E+03    0.97636E-04   -0.59990E-05  7237   0.111E-02    0.847E-02
RMM:   6    -0.709957752670E+03    0.45229E-05   -0.10014E-05  6021   0.666E-03    0.870E-02
RMM:   7    -0.709957908056E+03   -0.15539E-03   -0.29055E-05  6622   0.764E-03    0.147E-01
RMM:   8    -0.709958089971E+03   -0.18191E-03   -0.23950E-04  8203   0.196E-02    0.103E-01
RMM:   9    -0.709958380292E+03   -0.29032E-03   -0.23683E-04  8436   0.196E-02    0.111E-01
RMM:  10    -0.709958579341E+03   -0.19905E-03   -0.53496E-04 10171   0.283E-02    0.128E-01
RMM:  11    -0.709958540969E+03    0.38372E-04   -0.34703E-04  9263   0.251E-02
 224 F= -.70995854E+03 E0= -.70934276E+03  d E =-.914215E-03  mag=     6.4428
 curvature:  -0.04 expect dE=-0.284E-04 dE for cont linesearch -0.219E-09
 trial: gam= 0.93658 g(F)=  0.730E-03 g(S)=  0.000E+00 ort = 0.282E-05 (trialstep = 0.192E-01)
 search vector abs. value=  0.197E-02
 bond charge predicted
       N       E                     dE             d eps       ncg     rms          rms(c)
DAV:   1    -0.709957824142E+03    0.75520E-03   -0.17692E-03 16464   0.635E-02    0.203E-01
RMM:   2    -0.709959280364E+03   -0.14562E-02   -0.26903E-04  9028   0.260E-02    0.467E-01
RMM:   3    -0.709959322134E+03   -0.41770E-04   -0.48413E-05  7451   0.139E-02    0.470E-01
RMM:   4    -0.709960557931E+03   -0.12358E-02   -0.73442E-05  7532   0.111E-02    0.684E-01
RMM:   5    -0.709959511167E+03    0.10468E-02   -0.30861E-04  9863   0.246E-02    0.480E-01
RMM:   6    -0.709959031502E+03    0.47967E-03   -0.16658E-04  7970   0.243E-02    0.318E-01
RMM:   7    -0.709958846170E+03    0.18533E-03   -0.23984E-04  8836   0.224E-02    0.188E-01
RMM:   8    -0.709958798615E+03    0.47555E-04   -0.13624E-04  8174   0.195E-02
 225 F= -.70995880E+03 E0= -.70934297E+03  d E =-.257646E-03  mag=     6.4411
 trial-energy change:   -0.000258  1 .order   -0.000011   -0.000014   -0.000008
 step:   0.0467(harm=  0.0467)  dis= 0.00025  next Energy=  -709.958558 (dE=-0.171E-04)
 bond charge predicted
       N       E                     dE             d eps       ncg     rms          rms(c)
DAV:   1    -0.709958810970E+03    0.35200E-04   -0.36306E-04 12784   0.273E-02    0.198E-01
RMM:   2    -0.709959128542E+03   -0.31757E-03   -0.20317E-04  8416   0.222E-02    0.204E-01
RMM:   3    -0.709960568896E+03   -0.14404E-02   -0.38845E-04 10599   0.342E-02    0.578E-01
RMM:   4    -0.709959302333E+03    0.12666E-02   -0.12857E-04  7905   0.198E-02    0.332E-01
RMM:   5    -0.709958787693E+03    0.51464E-03   -0.87360E-05  7616   0.153E-02    0.196E-01
RMM:   6    -0.709958505798E+03    0.28189E-03   -0.12347E-04  7778   0.174E-02    0.144E-01
RMM:   7    -0.709958247970E+03    0.25783E-03   -0.67540E-05  7368   0.144E-02    0.806E-02
RMM:   8    -0.709958062584E+03    0.18539E-03   -0.55919E-05  7250   0.109E-02    0.851E-02
RMM:   9    -0.709958060336E+03    0.22479E-05   -0.10930E-05  6240   0.695E-03
 226 F= -.70995806E+03 E0= -.70934213E+03  d E =0.480633E-03  mag=     6.4295
 curvature:  -0.06 expect dE=-0.317E-04 dE for cont linesearch -0.805E-07
 trial: gam= 0.32122 g(F)=  0.505E-03 g(S)=  0.000E+00 ort = 0.503E-04 (trialstep = 0.247E-01)
 search vector abs. value=  0.740E-03
 bond charge predicted
       N       E                     dE             d eps       ncg     rms          rms(c)
DAV:   1    -0.709958130590E+03   -0.68007E-04   -0.12115E-04  8528   0.211E-02    0.108E-01
RMM:   2    -0.709958346112E+03   -0.21552E-03   -0.21648E-04  8580   0.251E-02    0.326E-01
RMM:   3    -0.709958002744E+03    0.34337E-03   -0.12445E-04  7437   0.236E-02    0.163E-01
RMM:   4    -0.709957872836E+03    0.12991E-03   -0.25582E-05  6766   0.927E-03    0.804E-02
RMM:   5    -0.709957790176E+03    0.82660E-04   -0.14574E-05  6271   0.652E-03    0.772E-02
RMM:   6    -0.709957548626E+03    0.24155E-03   -0.48041E-05  7018   0.924E-03    0.860E-02
RMM:   7    -0.709958285456E+03   -0.73683E-03   -0.55508E-04  9729   0.303E-02    0.109E-01
RMM:   8    -0.709958563332E+03   -0.27788E-03   -0.62000E-04 10505   0.311E-02    0.101E-01
RMM:   9    -0.709958708355E+03   -0.14502E-03   -0.37767E-05  7194   0.127E-02    0.100E-01
RMM:  10    -0.709958558240E+03    0.15011E-03   -0.30081E-04  8924   0.206E-02    0.142E-01
RMM:  11    -0.709958741776E+03   -0.18354E-03   -0.25114E-04  8152   0.222E-02    0.122E-01
RMM:  12    -0.709958688637E+03    0.53139E-04   -0.20105E-04  7880   0.188E-02
 227 F= -.70995869E+03 E0= -.70934279E+03  d E =-.628301E-03  mag=     6.4143
 trial-energy change:   -0.000628  1 .order   -0.000010   -0.000013   -0.000006
 step:   0.0247(harm=  0.0476)  dis= 0.00008  next Energy=  -709.958689 (dE=-0.628E-03)
 reached required accuracy - stopping structural energy minimisation
 writing wavefunctions
