       N       E                     dE             d eps       ncg     rms          rms(c)
DAV:   1     0.783199205741E+04    0.78320E+04   -0.31217E+05 13664   0.127E+03
DAV:   2     0.606564695597E+03   -0.72254E+04   -0.65373E+04 14528   0.373E+02
DAV:   3    -0.789871429443E+03   -0.13964E+04   -0.13379E+04 16976   0.165E+02
DAV:   4    -0.866871790730E+03   -0.77000E+02   -0.75032E+02 18640   0.431E+01
DAV:   5    -0.868454385358E+03   -0.15826E+01   -0.15576E+01 17296   0.575E+00    0.197E+02
RMM:   6    -0.766172218504E+03    0.10228E+03   -0.70872E+02 13482   0.426E+01    0.206E+02
RMM:   7    -0.105952370446E+04   -0.29335E+03   -0.26025E+02 14127   0.261E+01    0.360E+02
RMM:   8    -0.933510530706E+03    0.12601E+03   -0.75606E+01 16130   0.977E+00    0.326E+02
RMM:   9    -0.122828289286E+04   -0.29477E+03   -0.34215E+02 18683   0.244E+01    0.357E+02
RMM:  10    -0.836172500429E+03    0.39211E+03   -0.11554E+02 15684   0.153E+01    0.151E+02
RMM:  11    -0.696726392594E+03    0.13945E+03   -0.65408E+01 14006   0.137E+01    0.873E+01
RMM:  12    -0.728375769239E+03   -0.31649E+02   -0.64000E+01 14844   0.120E+01    0.119E+02
RMM:  13    -0.704907632930E+03    0.23468E+02   -0.13607E+01 14460   0.602E+00    0.108E+02
RMM:  14    -0.648259408379E+03    0.56648E+02   -0.10671E+01 13450   0.469E+00    0.706E+01
RMM:  15    -0.641047511286E+03    0.72119E+01   -0.42712E+00 14145   0.295E+00    0.569E+01
RMM:  16    -0.646116043895E+03   -0.50685E+01   -0.35842E+00 13788   0.273E+00    0.529E+01
RMM:  17    -0.651717376337E+03   -0.56013E+01   -0.63975E+00 15562   0.347E+00    0.396E+01
RMM:  18    -0.659087674725E+03   -0.73703E+01   -0.63423E+00 16069   0.357E+00    0.307E+01
RMM:  19    -0.665026339990E+03   -0.59387E+01   -0.33328E+00 14250   0.270E+00    0.265E+01
RMM:  20    -0.675744568216E+03   -0.10718E+02   -0.75006E+00 16683   0.369E+00    0.187E+01
RMM:  21    -0.681078254738E+03   -0.53337E+01   -0.39367E+00 14856   0.278E+00    0.164E+01
RMM:  22    -0.685270086853E+03   -0.41918E+01   -0.27156E+00 14382   0.232E+00    0.182E+01
RMM:  23    -0.687781754408E+03   -0.25117E+01   -0.10452E+00 13604   0.162E+00    0.194E+01
RMM:  24    -0.688446056927E+03   -0.66430E+00   -0.42814E-01 13815   0.916E-01    0.193E+01
RMM:  25    -0.688460077418E+03   -0.14020E-01   -0.19982E-01 13494   0.651E-01    0.179E+01
RMM:  26    -0.690320051867E+03   -0.18600E+01   -0.40417E-01 15209   0.906E-01    0.172E+01
RMM:  27    -0.692989221197E+03   -0.26692E+01   -0.71089E-01 16619   0.111E+00    0.152E+01
RMM:  28    -0.695138035824E+03   -0.21488E+01   -0.62935E-01 16400   0.105E+00    0.104E+01
RMM:  29    -0.696145067637E+03   -0.10070E+01   -0.93955E-02 13713   0.461E-01    0.990E+00
RMM:  30    -0.696893409139E+03   -0.74834E+00   -0.12278E-01 14414   0.457E-01    0.963E+00
RMM:  31    -0.699124922261E+03   -0.22315E+01   -0.45315E-01 17820   0.835E-01    0.797E+00
RMM:  32    -0.701467234968E+03   -0.23423E+01   -0.48909E-01 18324   0.857E-01    0.754E+00
RMM:  33    -0.702869819225E+03   -0.14026E+01   -0.53043E-01 18599   0.879E-01    0.572E+00
RMM:  34    -0.704047417459E+03   -0.11776E+01   -0.19883E-01 16289   0.560E-01    0.431E+00
RMM:  35    -0.705182413309E+03   -0.11350E+01   -0.64486E-02 14146   0.342E-01    0.422E+00
RMM:  36    -0.705833581527E+03   -0.65117E+00   -0.60261E-02 14637   0.303E-01    0.386E+00
RMM:  37    -0.706567174413E+03   -0.73359E+00   -0.55028E-02 15083   0.290E-01    0.334E+00
RMM:  38    -0.707165240331E+03   -0.59807E+00   -0.46710E-02 15133   0.270E-01    0.279E+00
RMM:  39    -0.707849343838E+03   -0.68410E+00   -0.69188E-02 16366   0.315E-01    0.233E+00
RMM:  40    -0.708122751388E+03   -0.27341E+00   -0.30116E-02 14642   0.224E-01    0.217E+00
RMM:  41    -0.708272438454E+03   -0.14969E+00   -0.50867E-02 16089   0.275E-01    0.251E+00
RMM:  42    -0.708322461386E+03   -0.50023E-01   -0.14913E-02 14281   0.160E-01    0.201E+00
RMM:  43    -0.708368775841E+03   -0.46314E-01   -0.71121E-03 13823   0.111E-01    0.191E+00
RMM:  44    -0.708504639366E+03   -0.13586E+00   -0.22503E-02 16157   0.165E-01    0.202E+00
RMM:  45    -0.708685407981E+03   -0.18077E+00   -0.19774E-02 16703   0.160E-01    0.215E+00
RMM:  46    -0.708744807679E+03   -0.59400E-01   -0.53633E-03 14431   0.951E-02    0.205E+00
RMM:  47    -0.708819695797E+03   -0.74888E-01   -0.59891E-03 15346   0.986E-02    0.189E+00
RMM:  48    -0.708900341499E+03   -0.80646E-01   -0.31162E-03 14004   0.804E-02    0.159E+00
RMM:  49    -0.708984402945E+03   -0.84061E-01   -0.29600E-03 14196   0.753E-02    0.131E+00
RMM:  50    -0.709053012105E+03   -0.68609E-01   -0.19512E-03 13715   0.605E-02    0.109E+00
RMM:  51    -0.709093871015E+03   -0.40859E-01   -0.11414E-02 18501   0.124E-01    0.884E-01
RMM:  52    -0.709136243267E+03   -0.42372E-01   -0.88850E-04 13082   0.466E-02    0.608E-01
RMM:  53    -0.709204068999E+03   -0.67826E-01   -0.13628E-03 13326   0.478E-02    0.392E-01
RMM:  54    -0.709253806318E+03   -0.49737E-01   -0.75393E-04 11923   0.359E-02    0.209E-01
RMM:  55    -0.709282363686E+03   -0.28557E-01   -0.37469E-04 10415   0.265E-02    0.151E-01
RMM:  56    -0.709300634053E+03   -0.18270E-01   -0.24624E-04  9398   0.221E-02    0.102E-01
RMM:  57    -0.709327292976E+03   -0.26659E-01   -0.16359E-04  8649   0.187E-02    0.789E-02
RMM:  58    -0.709354142054E+03   -0.26849E-01   -0.15674E-04  8679   0.168E-02    0.575E-02
RMM:  59    -0.709377443874E+03   -0.23302E-01   -0.12967E-04  8458   0.143E-02    0.585E-02
RMM:  60    -0.709393896958E+03   -0.16453E-01   -0.77866E-05  7573   0.121E-02    0.401E-02
RMM:  61    -0.709404564796E+03   -0.10668E-01   -0.74705E-05  8151   0.103E-02    0.292E-02
RMM:  62    -0.709410247437E+03   -0.56826E-02   -0.50012E-05  6962   0.851E-03    0.291E-02
RMM:  63    -0.709412170854E+03   -0.19234E-02   -0.35964E-05  6627   0.754E-03    0.228E-02
RMM:  64    -0.709412715709E+03   -0.54486E-03   -0.16926E-05  5807   0.597E-03    0.157E-02
RMM:  65    -0.709412947529E+03   -0.23182E-03   -0.11778E-05  5476   0.467E-03    0.124E-02
RMM:  66    -0.709412954564E+03   -0.70351E-05   -0.11351E-05  5794   0.464E-03
   1 F= -.70941295E+03 E0= -.70879415E+03  d E =-.709413E+03  mag=     6.8647
       N       E                     dE             d eps       ncg     rms          rms(c)
DAV:   1    -0.708226835287E+03    0.11861E+01   -0.31553E+02 13888   0.218E+01    0.629E+00
RMM:   2    -0.709880740630E+03   -0.16539E+01   -0.87511E+00 13440   0.481E+00    0.142E+01
RMM:   3    -0.710107968192E+03   -0.22723E+00   -0.26665E+00 14879   0.223E+00    0.144E+01
RMM:   4    -0.709184073792E+03    0.92389E+00   -0.44067E-01 13622   0.106E+00    0.732E+00
RMM:   5    -0.708908499314E+03    0.27557E+00   -0.14601E-01 13500   0.663E-01    0.391E+00
RMM:   6    -0.708881595305E+03    0.26904E-01   -0.85362E-02 13522   0.486E-01    0.309E+00
RMM:   7    -0.708887470475E+03   -0.58752E-02   -0.71037E-02 13817   0.405E-01    0.235E+00
RMM:   8    -0.708924265244E+03   -0.36795E-01   -0.53205E-02 14188   0.327E-01    0.248E+00
RMM:   9    -0.708913253203E+03    0.11012E-01   -0.28334E-02 13892   0.233E-01    0.166E+00
RMM:  10    -0.708916558371E+03   -0.33052E-02   -0.21408E-02 13904   0.188E-01    0.129E+00
RMM:  11    -0.708908081503E+03    0.84769E-02   -0.14334E-02 14289   0.162E-01    0.787E-01
RMM:  12    -0.708919661155E+03   -0.11580E-01   -0.38415E-03 13064   0.102E-01    0.530E-01
RMM:  13    -0.708935033533E+03   -0.15372E-01   -0.38087E-03 13055   0.798E-02    0.350E-01
RMM:  14    -0.708943163839E+03   -0.81303E-02   -0.43634E-03 13638   0.758E-02    0.293E-01
RMM:  15    -0.708942409139E+03    0.75470E-03   -0.18884E-03 12925   0.528E-02    0.220E-01
RMM:  16    -0.708942816890E+03   -0.40775E-03   -0.42692E-04 10947   0.335E-02    0.166E-01
RMM:  17    -0.708944096005E+03   -0.12791E-02   -0.36066E-04  9811   0.276E-02    0.886E-02
RMM:  18    -0.708944773604E+03   -0.67760E-03   -0.15215E-04  8422   0.198E-02    0.559E-02
RMM:  19    -0.708944897264E+03   -0.12366E-03   -0.41251E-05  7575   0.127E-02    0.398E-02
RMM:  20    -0.708944987009E+03   -0.89745E-04   -0.15129E-05  7084   0.686E-03
   2 F= -.70894499E+03 E0= -.70832428E+03  d E =0.467968E+00  mag=     7.0145
       N       E                     dE             d eps       ncg     rms          rms(c)
DAV:   1    -0.709381048345E+03   -0.43615E+00   -0.12606E+02 13776   0.139E+01    0.470E+00
RMM:   2    -0.710230892871E+03   -0.84984E+00   -0.37445E+00 13440   0.319E+00    0.106E+01
RMM:   3    -0.710424461266E+03   -0.19357E+00   -0.78674E-01 13933   0.139E+00    0.119E+01
RMM:   4    -0.709698868987E+03    0.72559E+00   -0.20225E-01 13804   0.745E-01    0.371E+00
RMM:   5    -0.709643929222E+03    0.54940E-01   -0.78649E-02 13673   0.454E-01    0.217E+00
RMM:   6    -0.709641923065E+03    0.20062E-02   -0.36839E-02 13535   0.321E-01    0.190E+00
RMM:   7    -0.709629680998E+03    0.12242E-01   -0.25901E-02 13739   0.259E-01    0.145E+00
RMM:   8    -0.709622574849E+03    0.71061E-02   -0.26821E-02 14305   0.235E-01    0.769E-01
RMM:   9    -0.709621321314E+03    0.12535E-02   -0.52200E-03 13404   0.125E-01    0.396E-01
RMM:  10    -0.709621456590E+03   -0.13528E-03   -0.17854E-03 13829   0.658E-02    0.264E-01
RMM:  11    -0.709621567849E+03   -0.11126E-03   -0.45736E-04 11041   0.335E-02    0.188E-01
RMM:  12    -0.709621981856E+03   -0.41401E-03   -0.47637E-04 10823   0.310E-02    0.124E-01
RMM:  13    -0.709622295955E+03   -0.31410E-03   -0.32925E-04  9876   0.258E-02    0.749E-02
RMM:  14    -0.709622472924E+03   -0.17697E-03   -0.73775E-05  8030   0.166E-02    0.476E-02
RMM:  15    -0.709622602201E+03   -0.12928E-03   -0.22305E-05  7314   0.944E-03    0.233E-02
RMM:  16    -0.709622743506E+03   -0.14131E-03   -0.91921E-06  6596   0.492E-03    0.156E-02
RMM:  17    -0.709622904859E+03   -0.16135E-03   -0.60613E-06  6050   0.425E-03    0.126E-02
RMM:  18    -0.709623089715E+03   -0.18486E-03   -0.54663E-06  5463   0.377E-03    0.896E-03
RMM:  19    -0.709623236888E+03   -0.14717E-03   -0.34631E-06  4692   0.345E-03    0.757E-03
RMM:  20    -0.709623344201E+03   -0.10731E-03   -0.15120E-06  3519   0.308E-03    0.566E-03
RMM:  21    -0.709623474428E+03   -0.13023E-03   -0.16824E-06  3492   0.303E-03    0.582E-03
RMM:  22    -0.709623644300E+03   -0.16987E-03   -0.34001E-06  4185   0.321E-03    0.540E-03
RMM:  23    -0.709623810611E+03   -0.16631E-03   -0.38185E-06  4376   0.328E-03    0.574E-03
RMM:  24    -0.709623959276E+03   -0.14867E-03   -0.37371E-06  4310   0.327E-03    0.518E-03
RMM:  25    -0.709624078085E+03   -0.11881E-03   -0.33956E-06  4195   0.325E-03    0.423E-03
RMM:  26    -0.709624173246E+03   -0.95161E-04   -0.29490E-06  4028   0.323E-03
   3 F= -.70962417E+03 E0= -.70900533E+03  d E =-.211219E+00  mag=     6.9883
       N       E                     dE             d eps       ncg     rms          rms(c)
DAV:   1    -0.709156896791E+03    0.46718E+00   -0.14296E+02 13872   0.160E+01    0.342E+00
RMM:   2    -0.709446049041E+03   -0.28915E+00   -0.29389E+00 13440   0.291E+00    0.506E+00
RMM:   3    -0.709578912625E+03   -0.13286E+00   -0.66752E-01 14631   0.125E+00    0.488E+00
RMM:   4    -0.709631947669E+03   -0.53035E-01   -0.13236E-01 14054   0.567E-01    0.641E+00
RMM:   5    -0.709482534190E+03    0.14941E+00   -0.42632E-02 13491   0.360E-01    0.354E+00
RMM:   6    -0.709438681453E+03    0.43853E-01   -0.35244E-02 13690   0.278E-01    0.181E+00
RMM:   7    -0.709423704767E+03    0.14977E-01   -0.29467E-02 14079   0.248E-01    0.862E-01
RMM:   8    -0.709422587916E+03    0.11169E-02   -0.76710E-03 13520   0.151E-01    0.684E-01
RMM:   9    -0.709421723021E+03    0.86490E-03   -0.28412E-03 13505   0.880E-02    0.390E-01
RMM:  10    -0.709422304732E+03   -0.58171E-03   -0.81043E-04 12431   0.425E-02    0.328E-01
RMM:  11    -0.709423377089E+03   -0.10724E-02   -0.44105E-04 10964   0.327E-02    0.273E-01
RMM:  12    -0.709425139668E+03   -0.17626E-02   -0.91954E-04 12304   0.385E-02    0.134E-01
RMM:  13    -0.709426468548E+03   -0.13289E-02   -0.38505E-04 10898   0.286E-02    0.832E-02
RMM:  14    -0.709426955591E+03   -0.48704E-03   -0.97711E-05  8059   0.180E-02    0.551E-02
RMM:  15    -0.709427492861E+03   -0.53727E-03   -0.30379E-05  7418   0.109E-02    0.297E-02
RMM:  16    -0.709428090617E+03   -0.59776E-03   -0.16065E-05  7222   0.623E-03    0.212E-02
RMM:  17    -0.709429151844E+03   -0.10612E-02   -0.18398E-05  7347   0.594E-03    0.204E-02
RMM:  18    -0.709429888553E+03   -0.73671E-03   -0.11152E-05  6066   0.477E-03    0.154E-02
RMM:  19    -0.709430263368E+03   -0.37482E-03   -0.50705E-06  4755   0.386E-03    0.109E-02
RMM:  20    -0.709430588569E+03   -0.32520E-03   -0.30473E-06  3955   0.327E-03    0.981E-03
RMM:  21    -0.709431039524E+03   -0.45095E-03   -0.39475E-06  4302   0.337E-03    0.917E-03
RMM:  22    -0.709431668703E+03   -0.62918E-03   -0.68120E-06  4866   0.362E-03    0.106E-02
RMM:  23    -0.709432484059E+03   -0.81536E-03   -0.12943E-05  5394   0.411E-03    0.911E-03
RMM:  24    -0.709433038577E+03   -0.55452E-03   -0.11448E-05  5165   0.401E-03    0.734E-03
RMM:  25    -0.709433290258E+03   -0.25168E-03   -0.63498E-06  4618   0.385E-03    0.546E-03
RMM:  26    -0.709433437367E+03   -0.14711E-03   -0.37454E-06  3885   0.335E-03    0.420E-03
RMM:  27    -0.709433551439E+03   -0.11407E-03   -0.23193E-06  3436   0.315E-03    0.365E-03
RMM:  28    -0.709433677404E+03   -0.12597E-03   -0.20730E-06  3336   0.307E-03    0.344E-03
RMM:  29    -0.709433741844E+03   -0.64440E-04   -0.11325E-06  3002   0.300E-03
   4 F= -.70943374E+03 E0= -.70881387E+03  d E =0.190431E+00  mag=     6.9060
       N       E                     dE             d eps       ncg     rms          rms(c)
DAV:   1    -0.709548476755E+03   -0.11480E+00   -0.74489E+01 13648   0.115E+01    0.333E+00
RMM:   2    -0.709701288215E+03   -0.15281E+00   -0.15426E+00 13440   0.212E+00    0.343E+00
RMM:   3    -0.709711193443E+03   -0.99052E-02   -0.29659E-01 13707   0.927E-01    0.284E+00
RMM:   4    -0.709834896038E+03   -0.12370E+00   -0.89364E-02 13904   0.496E-01    0.549E+00
RMM:   5    -0.709686884961E+03    0.14801E+00   -0.28561E-02 13948   0.272E-01    0.139E+00
RMM:   6    -0.709684503046E+03    0.23819E-02   -0.15939E-02 13688   0.189E-01    0.128E+00
RMM:   7    -0.709679302441E+03    0.52006E-02   -0.92992E-03 13656   0.152E-01    0.787E-01
RMM:   8    -0.709678212421E+03    0.10900E-02   -0.52819E-03 13530   0.114E-01    0.444E-01
RMM:   9    -0.709678272947E+03   -0.60526E-04   -0.15530E-03 12870   0.681E-02    0.301E-01
RMM:  10    -0.709678379133E+03   -0.10619E-03   -0.58698E-04 11427   0.364E-02    0.179E-01
RMM:  11    -0.709678713420E+03   -0.33429E-03   -0.15356E-04  8438   0.201E-02    0.147E-01
RMM:  12    -0.709679004736E+03   -0.29132E-03   -0.10154E-04  8031   0.170E-02    0.915E-02
RMM:  13    -0.709679514966E+03   -0.51023E-03   -0.12792E-04  8217   0.151E-02    0.526E-02
RMM:  14    -0.709679711843E+03   -0.19688E-03   -0.30384E-05  7482   0.111E-02    0.383E-02
RMM:  15    -0.709679878382E+03   -0.16654E-03   -0.11507E-05  6758   0.593E-03    0.290E-02
RMM:  16    -0.709680063899E+03   -0.18552E-03   -0.52238E-06  5467   0.427E-03    0.188E-02
RMM:  17    -0.709680287147E+03   -0.22325E-03   -0.38439E-06  4533   0.344E-03    0.134E-02
RMM:  18    -0.709680674225E+03   -0.38708E-03   -0.85363E-06  5714   0.400E-03    0.109E-02
RMM:  19    -0.709680960401E+03   -0.28618E-03   -0.45639E-06  4353   0.348E-03    0.119E-02
RMM:  20    -0.709681225381E+03   -0.26498E-03   -0.42737E-06  3997   0.336E-03    0.995E-03
RMM:  21    -0.709681505219E+03   -0.27984E-03   -0.45829E-06  4007   0.338E-03    0.853E-03
RMM:  22    -0.709681773119E+03   -0.26790E-03   -0.50498E-06  4294   0.347E-03    0.793E-03
RMM:  23    -0.709682205417E+03   -0.43230E-03   -0.10199E-05  5177   0.388E-03    0.838E-03
RMM:  24    -0.709682449915E+03   -0.24450E-03   -0.67604E-06  4705   0.370E-03    0.581E-03
RMM:  25    -0.709682596912E+03   -0.14700E-03   -0.42380E-06  4058   0.350E-03    0.615E-03
RMM:  26    -0.709682709279E+03   -0.11237E-03   -0.28310E-06  3534   0.324E-03    0.505E-03
RMM:  27    -0.709682800428E+03   -0.91149E-04   -0.19206E-06  3250   0.315E-03
   5 F= -.70968280E+03 E0= -.70906380E+03  d E =-.586272E-01  mag=     6.9579
       N       E                     dE             d eps       ncg     rms          rms(c)
DAV:   1    -0.709592082816E+03    0.90626E-01   -0.35650E+01 13808   0.832E+00    0.169E+00
RMM:   2    -0.709653130468E+03   -0.61048E-01   -0.71106E-01 13440   0.137E+00    0.258E+00
RMM:   3    -0.709667095913E+03   -0.13965E-01   -0.11801E-01 14391   0.567E-01    0.186E+00
RMM:   4    -0.709729421100E+03   -0.62325E-01   -0.29428E-02 13896   0.277E-01    0.391E+00
RMM:   5    -0.709663895876E+03    0.65525E-01   -0.13719E-02 13496   0.206E-01    0.202E+00
RMM:   6    -0.709653384754E+03    0.10511E-01   -0.91263E-03 13512   0.149E-01    0.885E-01
RMM:   7    -0.709652318193E+03    0.10666E-02   -0.53504E-03 13331   0.109E-01    0.521E-01
RMM:   8    -0.709652560867E+03   -0.24267E-03   -0.18498E-03 12766   0.762E-02    0.472E-01
RMM:   9    -0.709652217443E+03    0.34342E-03   -0.69928E-04 11864   0.397E-02    0.317E-01
RMM:  10    -0.709652036060E+03    0.18138E-03   -0.18866E-04  8715   0.230E-02    0.246E-01
RMM:  11    -0.709651872447E+03    0.16361E-03   -0.14785E-04  8339   0.199E-02    0.186E-01
RMM:  12    -0.709651774331E+03    0.98117E-04   -0.19786E-04  8529   0.208E-02
   6 F= -.70965177E+03 E0= -.70903277E+03  d E =0.310261E-01  mag=     6.9693
       N       E                     dE             d eps       ncg     rms          rms(c)
DAV:   1    -0.709674318420E+03   -0.22446E-01   -0.17462E+00 13840   0.184E+00    0.384E-01
RMM:   2    -0.709677069913E+03   -0.27515E-02   -0.32496E-02 13440   0.293E-01    0.495E-01
RMM:   3    -0.709677172472E+03   -0.10256E-03   -0.47458E-03 13719   0.119E-01    0.245E-01
RMM:   4    -0.709680666707E+03   -0.34942E-02   -0.14243E-03 13086   0.619E-02    0.807E-01
RMM:   5    -0.709677885801E+03    0.27809E-02   -0.58706E-04 12187   0.440E-02    0.470E-01
RMM:   6    -0.709677202389E+03    0.68341E-03   -0.38396E-04 10369   0.305E-02    0.192E-01
RMM:   7    -0.709677155492E+03    0.46897E-04   -0.21012E-04  8639   0.251E-02    0.128E-01
RMM:   8    -0.709677103572E+03    0.51920E-04   -0.10556E-04  7671   0.191E-02
   7 F= -.70967710E+03 E0= -.70905805E+03  d E =0.569686E-02  mag=     6.9742
       N       E                     dE             d eps       ncg     rms          rms(c)
DAV:   1    -0.709708817973E+03   -0.31662E-01   -0.21720E+00 13856   0.206E+00    0.509E-01
RMM:   2    -0.709712213693E+03   -0.33957E-02   -0.41629E-02 13440   0.334E-01    0.459E-01
RMM:   3    -0.709718589719E+03   -0.63760E-02   -0.67549E-03 13851   0.139E-01    0.106E+00
RMM:   4    -0.709714394781E+03    0.41949E-02   -0.19470E-03 12968   0.778E-02    0.646E-01
RMM:   5    -0.709712908277E+03    0.14865E-02   -0.87994E-04 12413   0.520E-02    0.385E-01
RMM:   6    -0.709712567765E+03    0.34051E-03   -0.46889E-04 11195   0.366E-02    0.162E-01
RMM:   7    -0.709712514382E+03    0.53382E-04   -0.23037E-04  8770   0.242E-02    0.730E-02
RMM:   8    -0.709712555074E+03   -0.40692E-04   -0.75143E-05  7880   0.169E-02
   8 F= -.70971256E+03 E0= -.70909366E+03  d E =-.297546E-01  mag=     6.9765
       N       E                     dE             d eps       ncg     rms          rms(c)
DAV:   1    -0.709726202820E+03   -0.13688E-01   -0.25121E+00 13808   0.222E+00    0.516E-01
RMM:   2    -0.709730248664E+03   -0.40458E-02   -0.48304E-02 13440   0.357E-01    0.538E-01
RMM:   3    -0.709734725609E+03   -0.44769E-02   -0.76426E-03 14001   0.148E-01    0.905E-01
RMM:   4    -0.709733922385E+03    0.80322E-03   -0.21696E-03 13049   0.798E-02    0.834E-01
RMM:   5    -0.709730988759E+03    0.29336E-02   -0.99295E-04 12537   0.587E-02    0.433E-01
RMM:   6    -0.709730587617E+03    0.40114E-03   -0.56376E-04 11733   0.395E-02    0.211E-01
RMM:   7    -0.709730488239E+03    0.99378E-04   -0.28819E-04  9461   0.291E-02    0.138E-01
RMM:   8    -0.709730448007E+03    0.40231E-04   -0.14722E-04  8262   0.224E-02
   9 F= -.70973045E+03 E0= -.70911141E+03  d E =-.476476E-01  mag=     6.9761
       N       E                     dE             d eps       ncg     rms          rms(c)
DAV:   1    -0.709731949043E+03   -0.14608E-02   -0.23186E-01 13904   0.673E-01    0.149E-01
RMM:   2    -0.709732305224E+03   -0.35618E-03   -0.43701E-03 13189   0.107E-01    0.196E-01
RMM:   3    -0.709732302157E+03    0.30668E-05   -0.61545E-04 10972   0.449E-02    0.832E-02
RMM:   4    -0.709732605915E+03   -0.30376E-03   -0.19512E-04  8201   0.249E-02    0.259E-01
RMM:   5    -0.709732368898E+03    0.23702E-03   -0.69335E-05  7450   0.166E-02    0.133E-01
RMM:   6    -0.709732346177E+03    0.22721E-04   -0.56107E-05  7225   0.121E-02    0.823E-02
RMM:   7    -0.709732331651E+03    0.14526E-04   -0.29188E-05  6826   0.109E-02    0.372E-02
RMM:   8    -0.709732336733E+03   -0.50819E-05   -0.13930E-05  6389   0.670E-03
  10 F= -.70973234E+03 E0= -.70911337E+03  d E =-.495363E-01  mag=     6.9765
       N       E                     dE             d eps       ncg     rms          rms(c)
DAV:   1    -0.709663655206E+03    0.68676E-01   -0.18422E+01 13536   0.606E+00    0.127E+00
RMM:   2    -0.709699393361E+03   -0.35738E-01   -0.38943E-01 13440   0.971E-01    0.217E+00
RMM:   3    -0.709700559222E+03   -0.11659E-02   -0.57505E-02 14277   0.397E-01    0.131E+00
RMM:   4    -0.709753765596E+03   -0.53206E-01   -0.15419E-02 13743   0.204E-01    0.336E+00
RMM:   5    -0.709700169382E+03    0.53596E-01   -0.80065E-03 13512   0.159E-01    0.136E+00
RMM:   6    -0.709696329716E+03    0.38397E-02   -0.41842E-03 13164   0.103E-01    0.700E-01
RMM:   7    -0.709696063409E+03    0.26631E-03   -0.21932E-03 12888   0.766E-02    0.445E-01
RMM:   8    -0.709696395851E+03   -0.33244E-03   -0.89743E-04 12367   0.525E-02    0.480E-01
RMM:   9    -0.709696278949E+03    0.11690E-03   -0.31938E-04  9967   0.310E-02    0.379E-01
RMM:  10    -0.709696069131E+03    0.20982E-03   -0.14334E-04  8283   0.226E-02    0.265E-01
RMM:  11    -0.709696041678E+03    0.27453E-04   -0.11123E-04  8086   0.161E-02
  11 F= -.70969604E+03 E0= -.70907709E+03  d E =0.362951E-01  mag=     6.9794
       N       E                     dE             d eps       ncg     rms          rms(c)
DAV:   1    -0.709722575306E+03   -0.26506E-01   -0.19205E+00 13872   0.196E+00    0.379E-01
RMM:   2    -0.709726286566E+03   -0.37113E-02   -0.37770E-02 13440   0.309E-01    0.618E-01
RMM:   3    -0.709726731687E+03   -0.44512E-03   -0.54500E-03 13743   0.126E-01    0.447E-01
RMM:   4    -0.709729362649E+03   -0.26310E-02   -0.15415E-03 13155   0.646E-02    0.817E-01
RMM:   5    -0.709726282326E+03    0.30803E-02   -0.64698E-04 12008   0.461E-02    0.351E-01
RMM:   6    -0.709726019957E+03    0.26237E-03   -0.38811E-04 10240   0.307E-02    0.195E-01
RMM:   7    -0.709725999125E+03    0.20832E-04   -0.24534E-04  8990   0.265E-02    0.121E-01
RMM:   8    -0.709725999061E+03    0.63956E-07   -0.94852E-05  7698   0.190E-02
  12 F= -.70972600E+03 E0= -.70910701E+03  d E =0.633767E-02  mag=     6.9796
       N       E                     dE             d eps       ncg     rms          rms(c)
DAV:   1    -0.709742851546E+03   -0.16852E-01   -0.15871E+00 13872   0.179E+00    0.440E-01
RMM:   2    -0.709745484278E+03   -0.26327E-02   -0.32607E-02 13440   0.286E-01    0.455E-01
RMM:   3    -0.709746984363E+03   -0.15001E-02   -0.47824E-03 13923   0.116E-01    0.495E-01
RMM:   4    -0.709751107564E+03   -0.41232E-02   -0.16180E-03 12871   0.664E-02    0.101E+00
RMM:   5    -0.709746451385E+03    0.46562E-02   -0.75715E-04 12326   0.503E-02    0.434E-01
RMM:   6    -0.709745794713E+03    0.65667E-03   -0.35019E-04 10339   0.348E-02    0.182E-01
RMM:   7    -0.709745771487E+03    0.23226E-04   -0.16478E-04  8347   0.232E-02    0.115E-01
RMM:   8    -0.709745739196E+03    0.32290E-04   -0.83035E-05  7805   0.175E-02
  13 F= -.70974574E+03 E0= -.70912682E+03  d E =-.134025E-01  mag=     6.9793
       N       E                     dE             d eps       ncg     rms          rms(c)
DAV:   1    -0.709747161606E+03   -0.13901E-02   -0.31368E-01 13872   0.793E-01    0.185E-01
RMM:   2    -0.709747730148E+03   -0.56854E-03   -0.64925E-03 13362   0.128E-01    0.219E-01
RMM:   3    -0.709748006852E+03   -0.27670E-03   -0.98647E-04 12292   0.526E-02    0.229E-01
RMM:   4    -0.709748490266E+03   -0.48341E-03   -0.28961E-04  9157   0.288E-02    0.378E-01
RMM:   5    -0.709747887519E+03    0.60275E-03   -0.15207E-04  7958   0.245E-02    0.186E-01
RMM:   6    -0.709747782137E+03    0.10538E-03   -0.67113E-05  7511   0.161E-02    0.779E-02
RMM:   7    -0.709747784608E+03   -0.24704E-05   -0.36924E-05  7167   0.107E-02    0.417E-02
RMM:   8    -0.709747789834E+03   -0.52261E-05   -0.15391E-05  6601   0.808E-03
  14 F= -.70974779E+03 E0= -.70912887E+03  d E =-.154531E-01  mag=     6.9792
       N       E                     dE             d eps       ncg     rms          rms(c)
DAV:   1    -0.709708310983E+03    0.39474E-01   -0.21261E+00 13856   0.228E+00    0.391E-01
RMM:   2    -0.709714078106E+03   -0.57671E-02   -0.45995E-02 13440   0.405E-01    0.967E-01
RMM:   3    -0.709713272460E+03    0.80565E-03   -0.72065E-03 14052   0.154E-01    0.535E-01
RMM:   4    -0.709717639812E+03   -0.43674E-02   -0.19319E-03 13918   0.755E-02    0.102E+00
RMM:   5    -0.709712897697E+03    0.47421E-02   -0.85604E-04 12604   0.515E-02    0.448E-01
RMM:   6    -0.709712657272E+03    0.24043E-03   -0.43473E-04 11367   0.337E-02    0.331E-01
RMM:   7    -0.709712527066E+03    0.13021E-03   -0.30578E-04  9661   0.296E-02    0.288E-01
RMM:   8    -0.709712401103E+03    0.12596E-03   -0.15857E-04  8308   0.232E-02    0.221E-01
RMM:   9    -0.709712319995E+03    0.81108E-04   -0.47201E-05  7714   0.140E-02
  15 F= -.70971232E+03 E0= -.70909334E+03  d E =0.354698E-01  mag=     6.9715
       N       E                     dE             d eps       ncg     rms          rms(c)
DAV:   1    -0.709758221795E+03   -0.45821E-01   -0.10624E+00 13856   0.161E+00    0.287E-01
RMM:   2    -0.709763608769E+03   -0.53870E-02   -0.22852E-02 13440   0.284E-01    0.973E-01
RMM:   3    -0.709761372981E+03    0.22358E-02   -0.35414E-03 13366   0.113E-01    0.507E-01
RMM:   4    -0.709760649605E+03    0.72338E-03   -0.98409E-04 13182   0.556E-02    0.297E-01
RMM:   5    -0.709760789290E+03   -0.13968E-03   -0.32104E-04  9986   0.303E-02    0.351E-01
RMM:   6    -0.709760745084E+03    0.44206E-04   -0.25375E-04  9085   0.269E-02    0.226E-01
RMM:   7    -0.709760706501E+03    0.38584E-04   -0.24131E-04  8954   0.266E-02    0.874E-02
RMM:   8    -0.709760723252E+03   -0.16751E-04   -0.74941E-05  7800   0.169E-02
  16 F= -.70976072E+03 E0= -.70914174E+03  d E =-.129334E-01  mag=     6.9708
       N       E                     dE             d eps       ncg     rms          rms(c)
DAV:   1    -0.709760880856E+03   -0.17435E-03   -0.69221E-03 13776   0.131E-01    0.363E-02
RMM:   2    -0.709761033581E+03   -0.15273E-03   -0.17412E-04  7649   0.248E-02    0.143E-01
RMM:   3    -0.709760978665E+03    0.54916E-04   -0.33605E-05  7172   0.133E-02    0.788E-02
RMM:   4    -0.709760957270E+03    0.21394E-04   -0.70793E-06  6638   0.565E-03    0.226E-02
RMM:   5    -0.709760986598E+03   -0.29327E-04   -0.32734E-06  5165   0.382E-03    0.264E-02
RMM:   6    -0.709761008689E+03   -0.22091E-04   -0.37353E-06  5330   0.375E-03    0.192E-02
RMM:   7    -0.709761024327E+03   -0.15638E-04   -0.24553E-06  4578   0.349E-03    0.185E-02
RMM:   8    -0.709761027822E+03   -0.34956E-05   -0.19864E-07  2191   0.275E-03
  17 F= -.70976103E+03 E0= -.70914205E+03  d E =-.132380E-01  mag=     6.9704
       N       E                     dE             d eps       ncg     rms          rms(c)
DAV:   1    -0.709773951996E+03   -0.12928E-01   -0.96753E-01 13808   0.143E+00    0.260E-01
RMM:   2    -0.709776213464E+03   -0.22615E-02   -0.19085E-02 13440   0.251E-01    0.519E-01
RMM:   3    -0.709776153881E+03    0.59584E-04   -0.31458E-03 13736   0.103E-01    0.361E-01
RMM:   4    -0.709776211343E+03   -0.57462E-04   -0.94547E-04 12780   0.494E-02    0.327E-01
RMM:   5    -0.709775870940E+03    0.34040E-03   -0.35200E-04 10163   0.321E-02    0.280E-01
RMM:   6    -0.709775786050E+03    0.84890E-04   -0.22718E-04  8782   0.258E-02    0.173E-01
RMM:   7    -0.709775716804E+03    0.69245E-04   -0.16544E-04  8274   0.230E-02    0.100E-01
RMM:   8    -0.709775715658E+03    0.11460E-05   -0.57866E-05  7729   0.151E-02
  18 F= -.70977572E+03 E0= -.70915673E+03  d E =-.146878E-01  mag=     6.9688
       N       E                     dE             d eps       ncg     rms          rms(c)
DAV:   1    -0.709775860961E+03   -0.14416E-03   -0.18018E-02 14128   0.197E-01    0.642E-02
RMM:   2    -0.709776160241E+03   -0.29928E-03   -0.44488E-04  9817   0.374E-02    0.210E-01
RMM:   3    -0.709775927566E+03    0.23268E-03   -0.93315E-05  7571   0.198E-02    0.935E-02
RMM:   4    -0.709775932214E+03   -0.46482E-05   -0.40944E-05  7379   0.119E-02    0.887E-02
RMM:   5    -0.709775907639E+03    0.24574E-04   -0.11721E-05  6632   0.774E-03    0.414E-02
RMM:   6    -0.709775914509E+03   -0.68697E-05   -0.71558E-06  6106   0.485E-03    0.382E-02
RMM:   7    -0.709775908008E+03    0.65010E-05   -0.56484E-06  5896   0.518E-03    0.191E-02
RMM:   8    -0.709775908032E+03   -0.23807E-07   -0.74150E-07  2923   0.300E-03
  19 F= -.70977591E+03 E0= -.70915701E+03  d E =-.148802E-01  mag=     6.9674
       N       E                     dE             d eps       ncg     rms          rms(c)
DAV:   1    -0.709782037627E+03   -0.61296E-02   -0.94837E-01 13792   0.142E+00    0.271E-01
RMM:   2    -0.709784272967E+03   -0.22353E-02   -0.19380E-02 13440   0.265E-01    0.557E-01
RMM:   3    -0.709783971156E+03    0.30181E-03   -0.35874E-03 14369   0.104E-01    0.323E-01
RMM:   4    -0.709786232341E+03   -0.22612E-02   -0.89089E-04 13007   0.495E-02    0.686E-01
RMM:   5    -0.709783875496E+03    0.23568E-02   -0.45058E-04 11556   0.381E-02    0.290E-01
RMM:   6    -0.709783789094E+03    0.86402E-04   -0.33203E-04  9947   0.292E-02    0.189E-01
RMM:   7    -0.709783757084E+03    0.32010E-04   -0.18301E-04  8475   0.239E-02    0.128E-01
RMM:   8    -0.709783753785E+03    0.32995E-05   -0.66337E-05  7746   0.162E-02
  20 F= -.70978375E+03 E0= -.70916526E+03  d E =-.784575E-02  mag=     6.9666
       N       E                     dE             d eps       ncg     rms          rms(c)
DAV:   1    -0.709784422367E+03   -0.66528E-03   -0.54038E-02 14000   0.339E-01    0.893E-02
RMM:   2    -0.709784737614E+03   -0.31525E-03   -0.11856E-03 12977   0.650E-02    0.235E-01
RMM:   3    -0.709784534805E+03    0.20281E-03   -0.20645E-04  8237   0.290E-02    0.108E-01
RMM:   4    -0.709784554756E+03   -0.19951E-04   -0.59715E-05  7373   0.159E-02    0.115E-01
RMM:   5    -0.709784513564E+03    0.41192E-04   -0.26032E-05  7164   0.101E-02    0.585E-02
RMM:   6    -0.709784506754E+03    0.68106E-05   -0.23496E-05  6952   0.867E-03    0.473E-02
RMM:   7    -0.709784505953E+03    0.80067E-06   -0.15059E-05  6706   0.720E-03    0.294E-02
RMM:   8    -0.709784504304E+03    0.16486E-05   -0.62150E-06  6095   0.506E-03
  21 F= -.70978450E+03 E0= -.70916591E+03  d E =-.859627E-02  mag=     6.9657
       N       E                     dE             d eps       ncg     rms          rms(c)
DAV:   1    -0.709793012589E+03   -0.85066E-02   -0.23264E-01 13792   0.693E-01    0.129E-01
RMM:   2    -0.709793493272E+03   -0.48068E-03   -0.44996E-03 13436   0.125E-01    0.242E-01
RMM:   3    -0.709793411567E+03    0.81705E-04   -0.79537E-04 12401   0.503E-02    0.120E-01
RMM:   4    -0.709794226113E+03   -0.81455E-03   -0.23280E-04  8641   0.257E-02    0.395E-01
RMM:   5    -0.709793393747E+03    0.83237E-03   -0.10658E-04  7745   0.215E-02    0.125E-01
RMM:   6    -0.709793394957E+03   -0.12102E-05   -0.75219E-05  7561   0.144E-02    0.778E-02
RMM:   7    -0.709793385912E+03    0.90452E-05   -0.36194E-05  7182   0.118E-02    0.502E-02
RMM:   8    -0.709793391569E+03   -0.56565E-05   -0.13542E-05  6629   0.740E-03
  22 F= -.70979339E+03 E0= -.70917502E+03  d E =-.888726E-02  mag=     6.9646
       N       E                     dE             d eps       ncg     rms          rms(c)
DAV:   1    -0.709796276669E+03   -0.28908E-02   -0.20918E+00 13856   0.208E+00    0.403E-01
RMM:   2    -0.709800648641E+03   -0.43720E-02   -0.40673E-02 13440   0.379E-01    0.767E-01
RMM:   3    -0.709800194253E+03    0.45439E-03   -0.76986E-03 14711   0.151E-01    0.450E-01
RMM:   4    -0.709803546214E+03   -0.33520E-02   -0.17859E-03 13281   0.717E-02    0.894E-01
RMM:   5    -0.709800248443E+03    0.32978E-02   -0.58217E-04 12242   0.448E-02    0.467E-01
RMM:   6    -0.709799913028E+03    0.33542E-03   -0.67589E-04 12229   0.392E-02    0.274E-01
RMM:   7    -0.709799819841E+03    0.93186E-04   -0.34321E-04 10307   0.320E-02    0.183E-01
RMM:   8    -0.709799809043E+03    0.10798E-04   -0.11864E-04  7977   0.214E-02
  23 F= -.70979981E+03 E0= -.70918204E+03  d E =-.153047E-01  mag=     6.9617
       N       E                     dE             d eps       ncg     rms          rms(c)
DAV:   1    -0.709801655995E+03   -0.18362E-02   -0.24947E-01 13888   0.717E-01    0.164E-01
RMM:   2    -0.709803200348E+03   -0.15444E-02   -0.50498E-03 13436   0.133E-01    0.507E-01
RMM:   3    -0.709802294605E+03    0.90574E-03   -0.84747E-04 12505   0.572E-02    0.290E-01
RMM:   4    -0.709802129762E+03    0.16484E-03   -0.28701E-04  9088   0.285E-02    0.207E-01
RMM:   5    -0.709801969356E+03    0.16041E-03   -0.13343E-04  7812   0.229E-02    0.124E-01
RMM:   6    -0.709801954190E+03    0.15166E-04   -0.95137E-05  7602   0.176E-02    0.112E-01
RMM:   7    -0.709801899225E+03    0.54966E-04   -0.57957E-05  7354   0.144E-02    0.472E-02
RMM:   8    -0.709801896841E+03    0.23839E-05   -0.25626E-05  6919   0.965E-03
  24 F= -.70980190E+03 E0= -.70918389E+03  d E =-.173925E-01  mag=     6.9598
       N       E                     dE             d eps       ncg     rms          rms(c)
DAV:   1    -0.709812260740E+03   -0.10362E-01   -0.39006E-01 13808   0.921E-01    0.172E-01
RMM:   2    -0.709813187577E+03   -0.92684E-03   -0.73698E-03 13436   0.160E-01    0.368E-01
RMM:   3    -0.709812995166E+03    0.19241E-03   -0.13188E-03 13446   0.641E-02    0.222E-01
RMM:   4    -0.709813806346E+03   -0.81118E-03   -0.32243E-04  9341   0.307E-02    0.426E-01
RMM:   5    -0.709812972347E+03    0.83400E-03   -0.20051E-04  8247   0.269E-02    0.196E-01
RMM:   6    -0.709812939662E+03    0.32685E-04   -0.14711E-04  8053   0.198E-02    0.112E-01
RMM:   7    -0.709812926408E+03    0.13255E-04   -0.70792E-05  7540   0.160E-02    0.790E-02
RMM:   8    -0.709812929139E+03   -0.27311E-05   -0.20576E-05  7038   0.989E-03
  25 F= -.70981293E+03 E0= -.70919509E+03  d E =-.110323E-01  mag=     6.9580
       N       E                     dE             d eps       ncg     rms          rms(c)
DAV:   1    -0.709814864408E+03   -0.19380E-02   -0.23698E-01 13840   0.718E-01    0.162E-01
RMM:   2    -0.709815615931E+03   -0.75152E-03   -0.45974E-03 13424   0.125E-01    0.306E-01
RMM:   3    -0.709815384863E+03    0.23107E-03   -0.84822E-04 12721   0.510E-02    0.196E-01
RMM:   4    -0.709815364467E+03    0.20396E-04   -0.18301E-04  8233   0.252E-02    0.143E-01
RMM:   5    -0.709815482776E+03   -0.11831E-03   -0.15188E-04  8004   0.236E-02    0.207E-01
RMM:   6    -0.709815352847E+03    0.12993E-03   -0.94050E-05  7645   0.190E-02    0.127E-01
RMM:   7    -0.709815293590E+03    0.59257E-04   -0.45671E-05  7353   0.125E-02    0.249E-02
RMM:   8    -0.709815302454E+03   -0.88643E-05   -0.16784E-05  6734   0.800E-03
  26 F= -.70981530E+03 E0= -.70919764E+03  d E =-.134056E-01  mag=     6.9565
       N       E                     dE             d eps       ncg     rms          rms(c)
DAV:   1    -0.709823782360E+03   -0.84888E-02   -0.23052E-01 13824   0.755E-01    0.119E-01
RMM:   2    -0.709824461749E+03   -0.67939E-03   -0.44863E-03 13436   0.121E-01    0.301E-01
RMM:   3    -0.709824222929E+03    0.23882E-03   -0.71039E-04 12577   0.494E-02    0.116E-01
RMM:   4    -0.709824537565E+03   -0.31464E-03   -0.17481E-04  8107   0.245E-02    0.260E-01
RMM:   5    -0.709824274920E+03    0.26265E-03   -0.81527E-05  7661   0.201E-02    0.154E-01
RMM:   6    -0.709824219426E+03    0.55494E-04   -0.45165E-05  7354   0.114E-02    0.789E-02
RMM:   7    -0.709824203771E+03    0.15655E-04   -0.26021E-05  7244   0.979E-03    0.424E-02
RMM:   8    -0.709824194625E+03    0.91453E-05   -0.10181E-05  6565   0.680E-03
  27 F= -.70982419E+03 E0= -.70920667E+03  d E =-.889217E-02  mag=     6.9569
       N       E                     dE             d eps       ncg     rms          rms(c)
DAV:   1    -0.709824683908E+03   -0.48014E-03   -0.24233E-02 13952   0.245E-01    0.506E-02
RMM:   2    -0.709824745353E+03   -0.61445E-04   -0.49490E-04  9723   0.403E-02    0.831E-02
RMM:   3    -0.709824781799E+03   -0.36446E-04   -0.83181E-05  7364   0.190E-02    0.115E-01
RMM:   4    -0.709824723405E+03    0.58394E-04   -0.19483E-05  7133   0.996E-03    0.412E-02
RMM:   5    -0.709824722060E+03    0.13451E-05   -0.80638E-06  6478   0.575E-03    0.450E-02
RMM:   6    -0.709824712142E+03    0.99182E-05   -0.52477E-06  5936   0.460E-03    0.212E-02
RMM:   7    -0.709824709018E+03    0.31234E-05   -0.23876E-06  4653   0.381E-03    0.155E-02
RMM:   8    -0.709824707897E+03    0.11211E-05   -0.10206E-07  2013   0.261E-03
  28 F= -.70982471E+03 E0= -.70920727E+03  d E =-.940544E-02  mag=     6.9580
       N       E                     dE             d eps       ncg     rms          rms(c)
DAV:   1    -0.709833288024E+03   -0.85790E-02   -0.17560E-01 13792   0.668E-01    0.107E-01
RMM:   2    -0.709833679290E+03   -0.39127E-03   -0.35759E-03 13431   0.112E-01    0.217E-01
RMM:   3    -0.709833654544E+03    0.24746E-04   -0.57451E-04 11814   0.444E-02    0.114E-01
RMM:   4    -0.709834410455E+03   -0.75591E-03   -0.18400E-04  8175   0.239E-02    0.406E-01
RMM:   5    -0.709833714622E+03    0.69583E-03   -0.71316E-05  7544   0.192E-02    0.169E-01
RMM:   6    -0.709833657011E+03    0.57612E-04   -0.34796E-05  7264   0.102E-02    0.119E-01
RMM:   7    -0.709833628967E+03    0.28044E-04   -0.25487E-05  7215   0.936E-03    0.660E-02
RMM:   8    -0.709833623583E+03    0.53841E-05   -0.11322E-05  6682   0.718E-03
  29 F= -.70983362E+03 E0= -.70921633E+03  d E =-.891569E-02  mag=     6.9599
       N       E                     dE             d eps       ncg     rms          rms(c)
DAV:   1    -0.709838810332E+03   -0.51814E-02   -0.99561E-01 13728   0.159E+00    0.268E-01
RMM:   2    -0.709841319090E+03   -0.25088E-02   -0.20334E-02 13440   0.266E-01    0.586E-01
RMM:   3    -0.709841028586E+03    0.29050E-03   -0.33763E-03 14607   0.106E-01    0.351E-01
RMM:   4    -0.709844841839E+03   -0.38133E-02   -0.10213E-03 12903   0.541E-02    0.922E-01
RMM:   5    -0.709841023217E+03    0.38186E-02   -0.33483E-04 10226   0.378E-02    0.345E-01
RMM:   6    -0.709840903302E+03    0.11992E-03   -0.17723E-04  8408   0.236E-02    0.296E-01
RMM:   7    -0.709840869522E+03    0.33781E-04   -0.92763E-05  7929   0.190E-02    0.247E-01
RMM:   8    -0.709840845884E+03    0.23638E-04   -0.74928E-05  7764   0.158E-02
  30 F= -.70984085E+03 E0= -.70922382E+03  d E =-.161380E-01  mag=     6.9642
       N       E                     dE             d eps       ncg     rms          rms(c)
DAV:   1    -0.709847783286E+03   -0.69138E-02   -0.10150E-01 13984   0.506E-01    0.185E-01
RMM:   2    -0.709848000103E+03   -0.21682E-03   -0.22925E-03 13367   0.886E-02    0.192E-01
RMM:   3    -0.709848010567E+03   -0.10464E-04   -0.40385E-04 10655   0.388E-02    0.153E-01
RMM:   4    -0.709848028910E+03   -0.18343E-04   -0.17970E-04  8061   0.265E-02    0.143E-01
RMM:   5    -0.709847977371E+03    0.51539E-04   -0.10557E-04  7718   0.208E-02    0.124E-01
RMM:   6    -0.709847974371E+03    0.30000E-05   -0.43701E-05  7563   0.131E-02    0.123E-01
RMM:   7    -0.709847945307E+03    0.29064E-04   -0.23775E-05  7045   0.852E-03    0.103E-01
RMM:   8    -0.709847883169E+03    0.62138E-04   -0.10695E-05  6475   0.692E-03
  31 F= -.70984788E+03 E0= -.70923124E+03  d E =-.703728E-02  mag=     6.9696
       N       E                     dE             d eps       ncg     rms          rms(c)
DAV:   1    -0.709859245110E+03   -0.11300E-01   -0.91375E-01 13760   0.151E+00    0.268E-01
RMM:   2    -0.709861946828E+03   -0.27017E-02   -0.18338E-02 13440   0.255E-01    0.667E-01
RMM:   3    -0.709861232779E+03    0.71405E-03   -0.31297E-03 14589   0.101E-01    0.337E-01
RMM:   4    -0.709864375813E+03   -0.31430E-02   -0.86593E-04 12828   0.511E-02    0.842E-01
RMM:   5    -0.709861356772E+03    0.30190E-02   -0.34115E-04 10225   0.374E-02    0.358E-01
RMM:   6    -0.709861181500E+03    0.17527E-03   -0.21411E-04  8603   0.260E-02    0.271E-01
RMM:   7    -0.709861046226E+03    0.13527E-03   -0.12351E-04  7996   0.215E-02    0.178E-01
RMM:   8    -0.709861025489E+03    0.20736E-04   -0.62607E-05  7762   0.160E-02
  32 F= -.70986103E+03 E0= -.70924481E+03  d E =-.201796E-01  mag=     6.9765
       N       E                     dE             d eps       ncg     rms          rms(c)
DAV:   1    -0.709869658725E+03   -0.86125E-02   -0.70223E-02 13904   0.417E-01    0.136E-01
RMM:   2    -0.709870073738E+03   -0.41501E-03   -0.16623E-03 13395   0.739E-02    0.282E-01
RMM:   3    -0.709870136901E+03   -0.63163E-04   -0.32705E-04  9323   0.355E-02    0.268E-01
RMM:   4    -0.709869796585E+03    0.34032E-03   -0.96786E-05  7762   0.201E-02    0.997E-02
RMM:   5    -0.709869800482E+03   -0.38972E-05   -0.46386E-05  7478   0.133E-02    0.750E-02
RMM:   6    -0.709869834940E+03   -0.34458E-04   -0.42110E-05  7424   0.116E-02    0.869E-02
RMM:   7    -0.709869819046E+03    0.15895E-04   -0.25722E-05  7138   0.109E-02    0.604E-02
RMM:   8    -0.709869808556E+03    0.10490E-04   -0.68873E-06  6327   0.551E-03
  33 F= -.70986981E+03 E0= -.70925376E+03  d E =-.878307E-02  mag=     6.9825
       N       E                     dE             d eps       ncg     rms          rms(c)
DAV:   1    -0.709876955952E+03   -0.71369E-02   -0.24415E-01 13824   0.775E-01    0.135E-01
RMM:   2    -0.709877463928E+03   -0.50798E-03   -0.49132E-03 13439   0.129E-01    0.226E-01
RMM:   3    -0.709877458542E+03    0.53851E-05   -0.79777E-04 12825   0.513E-02    0.112E-01
RMM:   4    -0.709878367453E+03   -0.90891E-03   -0.22800E-04  8550   0.261E-02    0.408E-01
RMM:   5    -0.709877546711E+03    0.82074E-03   -0.11129E-04  7775   0.223E-02    0.145E-01
RMM:   6    -0.709877524906E+03    0.21805E-04   -0.53487E-05  7580   0.128E-02    0.868E-02
RMM:   7    -0.709877535446E+03   -0.10540E-04   -0.35913E-05  7367   0.110E-02    0.508E-02
RMM:   8    -0.709877539607E+03   -0.41605E-05   -0.15750E-05  6616   0.802E-03
  34 F= -.70987754E+03 E0= -.70926163E+03  d E =-.165141E-01  mag=     6.9872
       N       E                     dE             d eps       ncg     rms          rms(c)
DAV:   1    -0.709878113101E+03   -0.57766E-03   -0.24679E-02 13936   0.247E-01    0.557E-02
RMM:   2    -0.709878240703E+03   -0.12760E-03   -0.52938E-04  9920   0.419E-02    0.112E-01
RMM:   3    -0.709878219544E+03    0.21159E-04   -0.88492E-05  7478   0.191E-02    0.862E-02
RMM:   4    -0.709878219061E+03    0.48345E-06   -0.22649E-05  7271   0.103E-02    0.468E-02
RMM:   5    -0.709878239079E+03   -0.20019E-04   -0.83680E-06  6613   0.611E-03    0.304E-02
RMM:   6    -0.709878278495E+03   -0.39416E-04   -0.74245E-06  6041   0.469E-03    0.269E-02
RMM:   7    -0.709878290878E+03   -0.12383E-04   -0.32167E-06  5259   0.413E-03    0.132E-02
RMM:   8    -0.709878303276E+03   -0.12398E-04   -0.39585E-07  2335   0.261E-03
  35 F= -.70987830E+03 E0= -.70926243E+03  d E =-.172778E-01  mag=     6.9910
       N       E                     dE             d eps       ncg     rms          rms(c)
DAV:   1    -0.709886787116E+03   -0.84962E-02   -0.96072E-02 13888   0.504E-01    0.873E-02
RMM:   2    -0.709887036850E+03   -0.24973E-03   -0.21898E-03 13409   0.916E-02    0.174E-01
RMM:   3    -0.709887047129E+03   -0.10279E-04   -0.35563E-04  9812   0.349E-02    0.109E-01
RMM:   4    -0.709887415999E+03   -0.36887E-03   -0.10103E-04  7729   0.200E-02    0.282E-01
RMM:   5    -0.709887045957E+03    0.37004E-03   -0.37620E-05  7381   0.136E-02    0.757E-02
RMM:   6    -0.709887074059E+03   -0.28102E-04   -0.16943E-05  6861   0.720E-03    0.989E-02
RMM:   7    -0.709887115117E+03   -0.41058E-04   -0.13809E-05  6832   0.701E-03    0.875E-02
RMM:   8    -0.709887113835E+03    0.12820E-05   -0.79975E-06  6543   0.552E-03
  36 F= -.70988711E+03 E0= -.70927118E+03  d E =-.881056E-02  mag=     6.9930
       N       E                     dE             d eps       ncg     rms          rms(c)
DAV:   1    -0.709889989015E+03   -0.28739E-02   -0.10996E-01 13888   0.540E-01    0.125E-01
RMM:   2    -0.709890328818E+03   -0.33980E-03   -0.25677E-03 13424   0.986E-02    0.213E-01
RMM:   3    -0.709890282474E+03    0.46344E-04   -0.41787E-04 10650   0.378E-02    0.137E-01
RMM:   4    -0.709890618414E+03   -0.33594E-03   -0.11101E-04  7757   0.215E-02    0.256E-01
RMM:   5    -0.709890319989E+03    0.29843E-03   -0.68579E-05  7565   0.171E-02    0.140E-01
RMM:   6    -0.709890337838E+03   -0.17849E-04   -0.29719E-05  7337   0.104E-02    0.104E-01
RMM:   7    -0.709890339380E+03   -0.15417E-05   -0.15295E-05  6901   0.784E-03    0.648E-02
RMM:   8    -0.709890348242E+03   -0.88625E-05   -0.92179E-06  6593   0.588E-03
  37 F= -.70989035E+03 E0= -.70927436E+03  d E =-.120450E-01  mag=     6.9934
       N       E                     dE             d eps       ncg     rms          rms(c)
DAV:   1    -0.709894603400E+03   -0.42640E-02   -0.12115E-01 13936   0.563E-01    0.118E-01
RMM:   2    -0.709894971249E+03   -0.36785E-03   -0.27546E-03 13420   0.101E-01    0.232E-01
RMM:   3    -0.709894888119E+03    0.83130E-04   -0.45348E-04 11247   0.397E-02    0.124E-01
RMM:   4    -0.709895116479E+03   -0.22836E-03   -0.11572E-04  7783   0.218E-02    0.229E-01
RMM:   5    -0.709894919804E+03    0.19667E-03   -0.61822E-05  7526   0.166E-02    0.135E-01
RMM:   6    -0.709894897917E+03    0.21887E-04   -0.38781E-05  7221   0.110E-02    0.593E-02
RMM:   7    -0.709894904209E+03   -0.62914E-05   -0.20221E-05  6977   0.874E-03    0.456E-02
RMM:   8    -0.709894904188E+03    0.20547E-07   -0.71892E-06  6415   0.595E-03
  38 F= -.70989490E+03 E0= -.70927890E+03  d E =-.455595E-02  mag=     6.9936
       N       E                     dE             d eps       ncg     rms          rms(c)
DAV:   1    -0.709894915950E+03   -0.11742E-04   -0.24616E-04 12736   0.263E-02    0.270E-02
RMM:   2    -0.709894936558E+03   -0.20608E-04   -0.18688E-05  7065   0.834E-03    0.556E-02
RMM:   3    -0.709894939919E+03   -0.33606E-05   -0.92916E-06  6411   0.665E-03    0.618E-02
RMM:   4    -0.709894927288E+03    0.12631E-04   -0.26648E-06  4826   0.353E-03    0.348E-02
RMM:   5    -0.709894927848E+03   -0.56000E-06   -0.62273E-07  3074   0.299E-03    0.214E-02
RMM:   6    -0.709894930457E+03   -0.26088E-05   -0.32201E-08  1671   0.268E-03    0.126E-02
RMM:   7    -0.709894932465E+03   -0.20085E-05   -0.47384E-08  1529   0.268E-03    0.865E-03
RMM:   8    -0.709894934715E+03   -0.22500E-05   -0.19802E-08  1324   0.267E-03
  39 F= -.70989493E+03 E0= -.70927891E+03  d E =-.458647E-02  mag=     6.9935
       N       E                     dE             d eps       ncg     rms          rms(c)
DAV:   1    -0.709896727228E+03   -0.17948E-02   -0.20662E-02 13904   0.222E-01    0.429E-02
RMM:   2    -0.709896764680E+03   -0.37453E-04   -0.43032E-04  9091   0.376E-02    0.742E-02
RMM:   3    -0.709896778508E+03   -0.13828E-04   -0.66999E-05  7297   0.174E-02    0.707E-02
RMM:   4    -0.709896778533E+03   -0.24236E-07   -0.19329E-05  7191   0.920E-03    0.680E-02
RMM:   5    -0.709896761256E+03    0.17277E-04   -0.90465E-06  6415   0.620E-03    0.400E-02
RMM:   6    -0.709896757857E+03    0.33986E-05   -0.42549E-06  5666   0.445E-03    0.222E-02
RMM:   7    -0.709896757281E+03    0.57671E-06   -0.18087E-06  4100   0.350E-03    0.133E-02
RMM:   8    -0.709896757117E+03    0.16393E-06   -0.42557E-07  2384   0.295E-03
  40 F= -.70989676E+03 E0= -.70928072E+03  d E =-.182240E-02  mag=     6.9929
       N       E                     dE             d eps       ncg     rms          rms(c)
DAV:   1    -0.709898512016E+03   -0.17547E-02   -0.17733E-01 13904   0.649E-01    0.126E-01
RMM:   2    -0.709898815189E+03   -0.30317E-03   -0.36352E-03 13440   0.110E-01    0.190E-01
RMM:   3    -0.709899050200E+03   -0.23501E-03   -0.64229E-04 12420   0.456E-02    0.233E-01
RMM:   4    -0.709898875857E+03    0.17434E-03   -0.16692E-04  8128   0.241E-02    0.161E-01
RMM:   5    -0.709898788897E+03    0.86960E-04   -0.75330E-05  7686   0.187E-02    0.117E-01
RMM:   6    -0.709898751302E+03    0.37595E-04   -0.36079E-05  7333   0.113E-02    0.490E-02
RMM:   7    -0.709898747165E+03    0.41370E-05   -0.22118E-05  6987   0.888E-03    0.498E-02
RMM:   8    -0.709898732694E+03    0.14471E-04   -0.10440E-05  6475   0.676E-03
  41 F= -.70989873E+03 E0= -.70928270E+03  d E =-.379798E-02  mag=     6.9910
       N       E                     dE             d eps       ncg     rms          rms(c)
DAV:   1    -0.709900060550E+03   -0.13134E-02   -0.21502E-02 14016   0.226E-01    0.431E-02
RMM:   2    -0.709900197004E+03   -0.13645E-03   -0.44174E-04  9883   0.391E-02    0.160E-01
RMM:   3    -0.709900079259E+03    0.11774E-03   -0.76540E-05  7332   0.184E-02    0.360E-02
RMM:   4    -0.709900081642E+03   -0.23834E-05   -0.21246E-05  7124   0.979E-03    0.459E-02
RMM:   5    -0.709900081808E+03   -0.16580E-06   -0.75848E-06  6454   0.592E-03    0.456E-02
RMM:   6    -0.709900073957E+03    0.78509E-05   -0.47018E-06  5503   0.416E-03    0.365E-02
RMM:   7    -0.709900073341E+03    0.61652E-06   -0.33581E-06  5220   0.394E-03    0.302E-02
RMM:   8    -0.709900068184E+03    0.51562E-05   -0.11001E-06  3429   0.326E-03
  42 F= -.70990007E+03 E0= -.70928404E+03  d E =-.133549E-02  mag=     6.9886
       N       E                     dE             d eps       ncg     rms          rms(c)
DAV:   1    -0.709900567747E+03   -0.49441E-03   -0.13063E-01 13888   0.557E-01    0.999E-02
RMM:   2    -0.709900801167E+03   -0.23342E-03   -0.25619E-03 13438   0.954E-02    0.179E-01
RMM:   3    -0.709900822969E+03   -0.21802E-04   -0.49272E-04 11453   0.392E-02    0.116E-01
RMM:   4    -0.709900991538E+03   -0.16857E-03   -0.11672E-04  7875   0.210E-02    0.219E-01
RMM:   5    -0.709900800908E+03    0.19063E-03   -0.58104E-05  7430   0.163E-02    0.130E-01
RMM:   6    -0.709900751795E+03    0.49112E-04   -0.30886E-05  7272   0.105E-02    0.628E-02
RMM:   7    -0.709900744313E+03    0.74823E-05   -0.22550E-05  6899   0.872E-03    0.437E-02
RMM:   8    -0.709900732301E+03    0.12012E-04   -0.94872E-06  6421   0.653E-03
  43 F= -.70990073E+03 E0= -.70928471E+03  d E =-.199961E-02  mag=     6.9856
       N       E                     dE             d eps       ncg     rms          rms(c)
DAV:   1    -0.709900949788E+03   -0.20547E-03   -0.16472E-02 14192   0.198E-01    0.396E-02
RMM:   2    -0.709900997477E+03   -0.47689E-04   -0.33159E-04  8439   0.340E-02    0.766E-02
RMM:   3    -0.709900995500E+03    0.19769E-05   -0.53809E-05  7171   0.166E-02    0.528E-02
RMM:   4    -0.709900992742E+03    0.27588E-05   -0.13837E-05  6917   0.742E-03    0.457E-02
RMM:   5    -0.709900994748E+03   -0.20062E-05   -0.64954E-06  6347   0.523E-03    0.326E-02
RMM:   6    -0.709901002057E+03   -0.73094E-05   -0.37999E-06  5348   0.403E-03    0.287E-02
RMM:   7    -0.709901010129E+03   -0.80717E-05   -0.38284E-06  5700   0.397E-03    0.102E-02
RMM:   8    -0.709901020419E+03   -0.10290E-04   -0.76001E-07  2735   0.285E-03
  44 F= -.70990102E+03 E0= -.70928499E+03  d E =-.228772E-02  mag=     6.9835
       N       E                     dE             d eps       ncg     rms          rms(c)
DAV:   1    -0.709903018681E+03   -0.20086E-02   -0.37464E-02 13888   0.298E-01    0.522E-02
RMM:   2    -0.709903120432E+03   -0.10175E-03   -0.72721E-04 11879   0.505E-02    0.127E-01
RMM:   3    -0.709903098236E+03    0.22197E-04   -0.12515E-04  7480   0.210E-02    0.488E-02
RMM:   4    -0.709903161591E+03   -0.63355E-04   -0.35459E-05  7251   0.127E-02    0.130E-01
RMM:   5    -0.709903087573E+03    0.74018E-04   -0.15639E-05  6873   0.814E-03    0.518E-02
RMM:   6    -0.709903080372E+03    0.72007E-05   -0.78983E-06  6314   0.543E-03    0.387E-02
RMM:   7    -0.709903078129E+03    0.22430E-05   -0.52046E-06  5936   0.450E-03    0.432E-02
RMM:   8    -0.709903072170E+03    0.59590E-05   -0.22942E-06  4379   0.365E-03
  45 F= -.70990307E+03 E0= -.70928708E+03  d E =-.205175E-02  mag=     6.9808
       N       E                     dE             d eps       ncg     rms          rms(c)
DAV:   1    -0.709904903118E+03   -0.18250E-02   -0.17454E-01 13776   0.644E-01    0.116E-01
RMM:   2    -0.709905213212E+03   -0.31009E-03   -0.33841E-03 13440   0.109E-01    0.186E-01
RMM:   3    -0.709905215078E+03   -0.18661E-05   -0.61353E-04 11942   0.432E-02    0.996E-02
RMM:   4    -0.709905546761E+03   -0.33168E-03   -0.16240E-04  8207   0.226E-02    0.304E-01
RMM:   5    -0.709905191043E+03    0.35572E-03   -0.50738E-05  7545   0.156E-02    0.136E-01
RMM:   6    -0.709905132824E+03    0.58219E-04   -0.37235E-05  7286   0.102E-02    0.834E-02
RMM:   7    -0.709905095898E+03    0.36926E-04   -0.32025E-05  7186   0.101E-02    0.654E-02
RMM:   8    -0.709905064404E+03    0.31493E-04   -0.13432E-05  6529   0.799E-03
  46 F= -.70990506E+03 E0= -.70928911E+03  d E =-.404399E-02  mag=     6.9762
       N       E                     dE             d eps       ncg     rms          rms(c)
DAV:   1    -0.709905996374E+03   -0.90048E-03   -0.61457E-03 13712   0.118E-01    0.355E-02
RMM:   2    -0.709906005893E+03   -0.95190E-05   -0.12862E-04  7451   0.198E-02    0.522E-02
RMM:   3    -0.709906006690E+03   -0.79643E-06   -0.22670E-05  7133   0.106E-02    0.593E-02
RMM:   4    -0.709905993444E+03    0.13245E-04   -0.61312E-06  6218   0.484E-03    0.286E-02
RMM:   5    -0.709905982378E+03    0.11066E-04   -0.34956E-06  5466   0.411E-03    0.278E-02
RMM:   6    -0.709905977571E+03    0.48072E-05   -0.14593E-06  3769   0.339E-03    0.197E-02
RMM:   7    -0.709905981741E+03   -0.41702E-05   -0.58310E-07  2828   0.295E-03    0.112E-02
RMM:   8    -0.709905986104E+03   -0.43630E-05   -0.14656E-08  1491   0.257E-03
  47 F= -.70990599E+03 E0= -.70929002E+03  d E =-.921700E-03  mag=     6.9718
       N       E                     dE             d eps       ncg     rms          rms(c)
DAV:   1    -0.709908242677E+03   -0.22609E-02   -0.55454E-02 13808   0.354E-01    0.614E-02
RMM:   2    -0.709908357828E+03   -0.11515E-03   -0.10264E-03 12300   0.569E-02    0.106E-01
RMM:   3    -0.709908342053E+03    0.15774E-04   -0.15896E-04  7780   0.231E-02    0.418E-02
RMM:   4    -0.709908420753E+03   -0.78700E-04   -0.45040E-05  7305   0.138E-02    0.126E-01
RMM:   5    -0.709908348956E+03    0.71797E-04   -0.18781E-05  6952   0.850E-03    0.837E-02
RMM:   6    -0.709908325391E+03    0.23564E-04   -0.88305E-06  6336   0.551E-03    0.355E-02
RMM:   7    -0.709908325752E+03   -0.36043E-06   -0.68097E-06  6110   0.482E-03    0.396E-02
RMM:   8    -0.709908321888E+03    0.38635E-05   -0.34295E-06  5288   0.419E-03
  48 F= -.70990832E+03 E0= -.70929238E+03  d E =-.325748E-02  mag=     6.9672
       N       E                     dE             d eps       ncg     rms          rms(c)
DAV:   1    -0.709908372775E+03   -0.47023E-04   -0.22185E-01 13696   0.708E-01    0.124E-01
RMM:   2    -0.709908802486E+03   -0.42971E-03   -0.40587E-03 13440   0.113E-01    0.228E-01
RMM:   3    -0.709908783085E+03    0.19401E-04   -0.68724E-04 11867   0.454E-02    0.114E-01
RMM:   4    -0.709909313935E+03   -0.53085E-03   -0.19463E-04  8362   0.241E-02    0.353E-01
RMM:   5    -0.709908746486E+03    0.56745E-03   -0.87086E-05  7652   0.197E-02    0.164E-01
RMM:   6    -0.709908649115E+03    0.97371E-04   -0.40462E-05  7246   0.115E-02    0.693E-02
RMM:   7    -0.709908622303E+03    0.26812E-04   -0.37178E-05  7252   0.102E-02    0.636E-02
RMM:   8    -0.709908604472E+03    0.17831E-04   -0.12907E-05  6516   0.795E-03
  49 F= -.70990860E+03 E0= -.70929275E+03  d E =-.354007E-02  mag=     6.9612
       N       E                     dE             d eps       ncg     rms          rms(c)
DAV:   1    -0.709909075470E+03   -0.45317E-03   -0.32831E-02 13888   0.273E-01    0.541E-02
RMM:   2    -0.709909202278E+03   -0.12681E-03   -0.62691E-04 10624   0.444E-02    0.148E-01
RMM:   3    -0.709909167961E+03    0.34317E-04   -0.99193E-05  7334   0.201E-02    0.701E-02
RMM:   4    -0.709909188624E+03   -0.20664E-04   -0.28434E-05  7164   0.109E-02    0.896E-02
RMM:   5    -0.709909188668E+03   -0.43576E-07   -0.12395E-05  6487   0.717E-03    0.470E-02
RMM:   6    -0.709909214379E+03   -0.25711E-04   -0.78770E-06  6301   0.523E-03    0.351E-02
RMM:   7    -0.709909247716E+03   -0.33336E-04   -0.57803E-06  6074   0.473E-03    0.209E-02
RMM:   8    -0.709909283237E+03   -0.35522E-04   -0.27638E-06  4500   0.363E-03
  50 F= -.70990928E+03 E0= -.70929336E+03  d E =-.421883E-02  mag=     6.9571
       N       E                     dE             d eps       ncg     rms          rms(c)
DAV:   1    -0.709911146177E+03   -0.18985E-02   -0.69239E-03 13488   0.129E-01    0.288E-02
RMM:   2    -0.709911207687E+03   -0.61510E-04   -0.16026E-04  7462   0.220E-02    0.711E-02
RMM:   3    -0.709911202521E+03    0.51652E-05   -0.20266E-05  7125   0.105E-02    0.339E-02
RMM:   4    -0.709911208896E+03   -0.63745E-05   -0.43357E-06  5879   0.420E-03    0.385E-02
RMM:   5    -0.709911236341E+03   -0.27445E-04   -0.34661E-06  5133   0.385E-03    0.304E-02
RMM:   6    -0.709911256156E+03   -0.19815E-04   -0.61801E-07  2706   0.302E-03    0.158E-02
RMM:   7    -0.709911289046E+03   -0.32890E-04   -0.94720E-07  2979   0.309E-03    0.125E-02
RMM:   8    -0.709911304052E+03   -0.15006E-04   -0.21201E-07  1911   0.276E-03
  51 F= -.70991130E+03 E0= -.70929539E+03  d E =-.202081E-02  mag=     6.9542
       N       E                     dE             d eps       ncg     rms          rms(c)
DAV:   1    -0.709914922847E+03   -0.36338E-02   -0.61934E-02 13888   0.386E-01    0.748E-02
RMM:   2    -0.709915179184E+03   -0.25634E-03   -0.13660E-03 12876   0.644E-02    0.195E-01
RMM:   3    -0.709915079553E+03    0.99631E-04   -0.18756E-04  7742   0.255E-02    0.964E-02
RMM:   4    -0.709915170118E+03   -0.90565E-04   -0.52542E-05  7315   0.158E-02    0.158E-01
RMM:   5    -0.709915093014E+03    0.77103E-04   -0.28973E-05  7041   0.988E-03    0.870E-02
RMM:   6    -0.709915094641E+03   -0.16271E-05   -0.99485E-06  6368   0.673E-03    0.533E-02
RMM:   7    -0.709915125995E+03   -0.31354E-04   -0.87416E-06  6469   0.514E-03    0.548E-02
RMM:   8    -0.709915135903E+03   -0.99081E-05   -0.48494E-06  5929   0.486E-03
  52 F= -.70991514E+03 E0= -.70929921E+03  d E =-.585267E-02  mag=     6.9524
       N       E                     dE             d eps       ncg     rms          rms(c)
DAV:   1    -0.709915109503E+03    0.16492E-04   -0.24859E-01 13696   0.774E-01    0.155E-01
RMM:   2    -0.709915780729E+03   -0.67123E-03   -0.54232E-03 13437   0.129E-01    0.314E-01
RMM:   3    -0.709915640734E+03    0.13999E-03   -0.73159E-04 12260   0.499E-02    0.184E-01
RMM:   4    -0.709916607209E+03   -0.96647E-03   -0.24863E-04  8667   0.271E-02    0.453E-01
RMM:   5    -0.709915648518E+03    0.95869E-03   -0.15196E-04  7821   0.244E-02    0.174E-01
RMM:   6    -0.709915618179E+03    0.30339E-04   -0.45630E-05  7326   0.133E-02    0.932E-02
RMM:   7    -0.709915658387E+03   -0.40209E-04   -0.36311E-05  7185   0.103E-02    0.868E-02
RMM:   8    -0.709915663103E+03   -0.47152E-05   -0.16868E-05  6617   0.876E-03
  53 F= -.70991566E+03 E0= -.70929977E+03  d E =-.637987E-02  mag=     6.9516
       N       E                     dE             d eps       ncg     rms          rms(c)
DAV:   1    -0.709916382294E+03   -0.72391E-03   -0.45414E-02 13920   0.331E-01    0.717E-02
RMM:   2    -0.709916641483E+03   -0.25919E-03   -0.10500E-03 12468   0.562E-02    0.221E-01
RMM:   3    -0.709916527683E+03    0.11380E-03   -0.14231E-04  7462   0.239E-02    0.128E-01
RMM:   4    -0.709916485880E+03    0.41803E-04   -0.39466E-05  7199   0.137E-02    0.907E-02
RMM:   5    -0.709916481500E+03    0.43799E-05   -0.16079E-05  6768   0.755E-03    0.686E-02
RMM:   6    -0.709916482796E+03   -0.12955E-05   -0.10854E-05  6427   0.639E-03    0.549E-02
RMM:   7    -0.709916481548E+03    0.12481E-05   -0.90422E-06  6432   0.575E-03    0.244E-02
RMM:   8    -0.709916485907E+03   -0.43597E-05   -0.52125E-06  5575   0.436E-03
  54 F= -.70991649E+03 E0= -.70930058E+03  d E =-.720267E-02  mag=     6.9507
       N       E                     dE             d eps       ncg     rms          rms(c)
DAV:   1    -0.709918374926E+03   -0.18934E-02   -0.87320E-03 13360   0.134E-01    0.338E-02
RMM:   2    -0.709918407990E+03   -0.33064E-04   -0.20976E-04  7511   0.209E-02    0.709E-02
RMM:   3    -0.709918389614E+03    0.18375E-04   -0.25013E-05  7123   0.107E-02    0.164E-02
RMM:   4    -0.709918401338E+03   -0.11724E-04   -0.71994E-06  5629   0.475E-03    0.374E-02
RMM:   5    -0.709918402156E+03   -0.81766E-06   -0.18287E-06  3965   0.351E-03    0.297E-02
RMM:   6    -0.709918403152E+03   -0.99675E-06   -0.48476E-07  1924   0.282E-03    0.979E-03
RMM:   7    -0.709918410347E+03   -0.71943E-05   -0.69392E-07  2316   0.287E-03    0.150E-02
RMM:   8    -0.709918412151E+03   -0.18039E-05   -0.12461E-07  1487   0.264E-03
  55 F= -.70991841E+03 E0= -.70930253E+03  d E =-.192624E-02  mag=     6.9502
       N       E                     dE             d eps       ncg     rms          rms(c)
DAV:   1    -0.709923195578E+03   -0.47852E-02   -0.77788E-02 13808   0.401E-01    0.918E-02
RMM:   2    -0.709923528635E+03   -0.33306E-03   -0.17630E-03 12662   0.607E-02    0.216E-01
RMM:   3    -0.709923437635E+03    0.91000E-04   -0.20477E-04  7650   0.259E-02    0.178E-01
RMM:   4    -0.709923337971E+03    0.99664E-04   -0.74857E-05  7369   0.176E-02    0.102E-01
RMM:   5    -0.709923345659E+03   -0.76876E-05   -0.32411E-05  7019   0.107E-02    0.845E-02
RMM:   6    -0.709923325868E+03    0.19791E-04   -0.13221E-05  6400   0.775E-03    0.440E-02
RMM:   7    -0.709923337112E+03   -0.11244E-04   -0.13096E-05  6575   0.595E-03    0.425E-02
RMM:   8    -0.709923329974E+03    0.71384E-05   -0.61783E-06  6068   0.564E-03
  56 F= -.70992333E+03 E0= -.70930742E+03  d E =-.684407E-02  mag=     6.9501
       N       E                     dE             d eps       ncg     rms          rms(c)
DAV:   1    -0.709930122393E+03   -0.67853E-02   -0.31190E-01 13776   0.803E-01    0.183E-01
RMM:   2    -0.709931235936E+03   -0.11135E-02   -0.69905E-03 13434   0.121E-01    0.386E-01
RMM:   3    -0.709931100635E+03    0.13530E-03   -0.77149E-04 12265   0.502E-02    0.352E-01
RMM:   4    -0.709930728540E+03    0.37210E-03   -0.27029E-04  8575   0.290E-02    0.222E-01
RMM:   5    -0.709930692768E+03    0.35772E-04   -0.13243E-04  7747   0.226E-02    0.166E-01
RMM:   6    -0.709930611581E+03    0.81187E-04   -0.52126E-05  7392   0.150E-02    0.856E-02
RMM:   7    -0.709930641173E+03   -0.29592E-04   -0.53578E-05  7306   0.118E-02    0.852E-02
RMM:   8    -0.709930608880E+03    0.32293E-04   -0.25907E-05  6717   0.110E-02
  57 F= -.70993061E+03 E0= -.70931470E+03  d E =-.141230E-01  mag=     6.9506
       N       E                     dE             d eps       ncg     rms          rms(c)
DAV:   1    -0.709929642161E+03    0.99901E-03   -0.12492E+00 13648   0.161E+00    0.368E-01
RMM:   2    -0.709934695080E+03   -0.50529E-02   -0.27970E-02 13440   0.242E-01    0.823E-01
RMM:   3    -0.709933787693E+03    0.90739E-03   -0.31251E-03 13426   0.101E-01    0.724E-01
RMM:   4    -0.709931989586E+03    0.17981E-02   -0.10655E-03 12600   0.577E-02    0.391E-01
RMM:   5    -0.709931840779E+03    0.14881E-03   -0.48102E-04 11126   0.393E-02    0.306E-01
RMM:   6    -0.709931573230E+03    0.26755E-03   -0.20460E-04  8588   0.282E-02    0.162E-01
RMM:   7    -0.709931672075E+03   -0.98845E-04   -0.21229E-04  8537   0.236E-02    0.156E-01
RMM:   8    -0.709931543086E+03    0.12899E-03   -0.98028E-05  7742   0.203E-02    0.554E-02
RMM:   9    -0.709931550674E+03   -0.75877E-05   -0.21318E-05  6819   0.888E-03
  58 F= -.70993155E+03 E0= -.70931560E+03  d E =-.150648E-01  mag=     6.9521
       N       E                     dE             d eps       ncg     rms          rms(c)
DAV:   1    -0.709934079730E+03   -0.25366E-02   -0.38526E-01 13872   0.891E-01    0.209E-01
RMM:   2    -0.709935384908E+03   -0.13052E-02   -0.88677E-03 13436   0.135E-01    0.419E-01
RMM:   3    -0.709935255568E+03    0.12934E-03   -0.94399E-04 12566   0.558E-02    0.372E-01
RMM:   4    -0.709934973321E+03    0.28225E-03   -0.31919E-04  9130   0.312E-02    0.290E-01
RMM:   5    -0.709934758165E+03    0.21516E-03   -0.17940E-04  7920   0.252E-02    0.176E-01
RMM:   6    -0.709934670370E+03    0.87795E-04   -0.72215E-05  7396   0.171E-02    0.879E-02
RMM:   7    -0.709934707695E+03   -0.37325E-04   -0.63464E-05  7363   0.132E-02    0.884E-02
RMM:   8    -0.709934674354E+03    0.33341E-04   -0.31151E-05  6994   0.119E-02
  59 F= -.70993467E+03 E0= -.70931874E+03  d E =-.181884E-01  mag=     6.9520
       N       E                     dE             d eps       ncg     rms          rms(c)
DAV:   1    -0.709943448119E+03   -0.87404E-02   -0.10684E-01 13904   0.455E-01    0.127E-01
RMM:   2    -0.709943880215E+03   -0.43210E-03   -0.27855E-03 12858   0.705E-02    0.266E-01
RMM:   3    -0.709943868082E+03    0.12133E-04   -0.31183E-04  8405   0.305E-02    0.268E-01
RMM:   4    -0.709943589899E+03    0.27818E-03   -0.11114E-04  7462   0.203E-02    0.133E-01
RMM:   5    -0.709943568509E+03    0.21390E-04   -0.55901E-05  7270   0.134E-02    0.971E-02
RMM:   6    -0.709943530591E+03    0.37918E-04   -0.29022E-05  6768   0.105E-02    0.544E-02
RMM:   7    -0.709943527008E+03    0.35830E-05   -0.20153E-05  6606   0.805E-03    0.441E-02
RMM:   8    -0.709943519147E+03    0.78612E-05   -0.90962E-06  6260   0.646E-03
  60 F= -.70994352E+03 E0= -.70932754E+03  d E =-.884479E-02  mag=     6.9530
       N       E                     dE             d eps       ncg     rms          rms(c)
DAV:   1    -0.709949533156E+03   -0.60061E-02   -0.62128E-01 13808   0.110E+00    0.284E-01
RMM:   2    -0.709952136049E+03   -0.26029E-02   -0.15671E-02 13438   0.168E-01    0.639E-01
RMM:   3    -0.709951915526E+03    0.22052E-03   -0.16839E-03 12895   0.709E-02    0.609E-01
RMM:   4    -0.709950452951E+03    0.14626E-02   -0.55796E-04 11192   0.412E-02    0.274E-01
RMM:   5    -0.709950390025E+03    0.62926E-04   -0.28857E-04  9153   0.295E-02    0.241E-01
RMM:   6    -0.709950208479E+03    0.18155E-03   -0.13169E-04  7755   0.226E-02    0.108E-01
RMM:   7    -0.709950268316E+03   -0.59836E-04   -0.11631E-04  7726   0.176E-02    0.114E-01
RMM:   8    -0.709950218404E+03    0.49912E-04   -0.53157E-05  7289   0.155E-02
  61 F= -.70995022E+03 E0= -.70933412E+03  d E =-.155441E-01  mag=     6.9553
       N       E                     dE             d eps       ncg     rms          rms(c)
DAV:   1    -0.709950564856E+03   -0.29654E-03   -0.21006E-02 13744   0.202E-01    0.648E-02
RMM:   2    -0.709950723054E+03   -0.15820E-03   -0.60183E-04  9046   0.328E-02    0.137E-01
RMM:   3    -0.709950694659E+03    0.28395E-04   -0.77009E-05  7327   0.170E-02    0.105E-01
RMM:   4    -0.709950673632E+03    0.21027E-04   -0.20788E-05  6905   0.853E-03    0.790E-02
RMM:   5    -0.709950671555E+03    0.20766E-05   -0.11152E-05  6289   0.616E-03    0.383E-02
RMM:   6    -0.709950693781E+03   -0.22226E-04   -0.70055E-06  5820   0.509E-03    0.278E-02
RMM:   7    -0.709950707712E+03   -0.13931E-04   -0.44090E-06  5523   0.427E-03    0.147E-02
RMM:   8    -0.709950720259E+03   -0.12547E-04   -0.11063E-06  2925   0.312E-03
  62 F= -.70995072E+03 E0= -.70933467E+03  d E =-.160459E-01  mag=     6.9563
       N       E                     dE             d eps       ncg     rms          rms(c)
DAV:   1    -0.709957603937E+03   -0.68962E-02   -0.97328E-02 13776   0.477E-01    0.887E-02
RMM:   2    -0.709957843891E+03   -0.23995E-03   -0.22222E-03 13247   0.761E-02    0.169E-01
RMM:   3    -0.709957838821E+03    0.50698E-05   -0.27030E-04  8246   0.306E-02    0.143E-01
RMM:   4    -0.709957813171E+03    0.25651E-04   -0.78291E-05  7436   0.183E-02    0.129E-01
RMM:   5    -0.709957736520E+03    0.76651E-04   -0.34841E-05  7221   0.111E-02    0.873E-02
RMM:   6    -0.709957685422E+03    0.51098E-04   -0.16692E-05  6628   0.821E-03    0.444E-02
RMM:   7    -0.709957658498E+03    0.26924E-04   -0.15461E-05  6760   0.689E-03    0.414E-02
RMM:   8    -0.709957645522E+03    0.12976E-04   -0.69793E-06  6174   0.583E-03
  63 F= -.70995765E+03 E0= -.70934157E+03  d E =-.692526E-02  mag=     6.9589
       N       E                     dE             d eps       ncg     rms          rms(c)
DAV:   1    -0.709960629303E+03   -0.29708E-02   -0.12298E-01 13824   0.537E-01    0.970E-02
RMM:   2    -0.709960912398E+03   -0.28309E-03   -0.27607E-03 13347   0.852E-02    0.180E-01
RMM:   3    -0.709960899909E+03    0.12489E-04   -0.34264E-04  8981   0.341E-02    0.147E-01
RMM:   4    -0.709960884625E+03    0.15284E-04   -0.96524E-05  7530   0.200E-02    0.138E-01
RMM:   5    -0.709960798607E+03    0.86018E-04   -0.39283E-05  7289   0.123E-02    0.993E-02
RMM:   6    -0.709960743858E+03    0.54750E-04   -0.19131E-05  6751   0.869E-03    0.472E-02
RMM:   7    -0.709960719400E+03    0.24457E-04   -0.18409E-05  6915   0.739E-03    0.417E-02
RMM:   8    -0.709960713422E+03    0.59785E-05   -0.72109E-06  6236   0.601E-03
  64 F= -.70996071E+03 E0= -.70934462E+03  d E =-.999316E-02  mag=     6.9627
       N       E                     dE             d eps       ncg     rms          rms(c)
DAV:   1    -0.709969148985E+03   -0.84296E-02   -0.97982E-02 13888   0.451E-01    0.873E-02
RMM:   2    -0.709969327836E+03   -0.17885E-03   -0.20685E-03 12539   0.663E-02    0.103E-01
RMM:   3    -0.709969342291E+03   -0.14456E-04   -0.22832E-04  7876   0.266E-02    0.748E-02
RMM:   4    -0.709969589282E+03   -0.24699E-03   -0.71969E-05  7448   0.163E-02    0.226E-01
RMM:   5    -0.709969311849E+03    0.27743E-03   -0.33020E-05  7262   0.116E-02    0.708E-02
RMM:   6    -0.709969294755E+03    0.17094E-04   -0.14103E-05  6513   0.710E-03    0.353E-02
RMM:   7    -0.709969296056E+03   -0.13011E-05   -0.62642E-06  5904   0.503E-03    0.219E-02
RMM:   8    -0.709969311754E+03   -0.15698E-04   -0.32704E-06  4794   0.381E-03
  65 F= -.70996931E+03 E0= -.70935325E+03  d E =-.859833E-02  mag=     6.9666
       N       E                     dE             d eps       ncg     rms          rms(c)
DAV:   1    -0.709977206578E+03   -0.79105E-02   -0.88174E-01 13536   0.135E+00    0.261E-01
RMM:   2    -0.709978754405E+03   -0.15478E-02   -0.18705E-02 13440   0.199E-01    0.318E-01
RMM:   3    -0.709978738880E+03    0.15525E-04   -0.19941E-03 13109   0.790E-02    0.131E-01
RMM:   4    -0.709978963017E+03   -0.22414E-03   -0.54401E-04 11350   0.400E-02    0.298E-01
RMM:   5    -0.709979196569E+03   -0.23355E-03   -0.20811E-04  8690   0.253E-02    0.363E-01
RMM:   6    -0.709978529492E+03    0.66708E-03   -0.12003E-04  7925   0.202E-02    0.105E-01
RMM:   7    -0.709978497739E+03    0.31753E-04   -0.65748E-05  7696   0.148E-02    0.608E-02
RMM:   8    -0.709978517273E+03   -0.19534E-04   -0.34326E-05  7064   0.113E-02
  66 F= -.70997852E+03 E0= -.70936247E+03  d E =-.178039E-01  mag=     6.9724
       N       E                     dE             d eps       ncg     rms          rms(c)
DAV:   1    -0.709980206558E+03   -0.17088E-02   -0.93927E-02 13888   0.442E-01    0.924E-02
RMM:   2    -0.709980601097E+03   -0.39454E-03   -0.20021E-03 12869   0.658E-02    0.195E-01
RMM:   3    -0.709980605521E+03   -0.44241E-05   -0.24438E-04  7934   0.298E-02    0.162E-01
RMM:   4    -0.709980549759E+03    0.55762E-04   -0.69012E-05  7369   0.166E-02    0.104E-01
RMM:   5    -0.709980603071E+03   -0.53312E-04   -0.29533E-05  7114   0.101E-02    0.643E-02
RMM:   6    -0.709980656183E+03   -0.53112E-04   -0.16614E-05  6566   0.767E-03    0.516E-02
RMM:   7    -0.709980728800E+03   -0.72617E-04   -0.11054E-05  6404   0.636E-03    0.278E-02
RMM:   8    -0.709980764695E+03   -0.35895E-04   -0.50329E-06  5348   0.430E-03
  67 F= -.70998076E+03 E0= -.70936478E+03  d E =-.200513E-01  mag=     6.9753
       N       E                     dE             d eps       ncg     rms          rms(c)
DAV:   1    -0.709986443452E+03   -0.57147E-02   -0.86220E-02 13840   0.433E-01    0.769E-02
RMM:   2    -0.709986685272E+03   -0.24182E-03   -0.16441E-03 12408   0.608E-02    0.147E-01
RMM:   3    -0.709986686051E+03   -0.77904E-06   -0.18492E-04  7673   0.252E-02    0.129E-01
RMM:   4    -0.709986659673E+03    0.26378E-04   -0.51739E-05  7335   0.145E-02    0.936E-02
RMM:   5    -0.709986652328E+03    0.73448E-05   -0.21480E-05  6933   0.868E-03    0.625E-02
RMM:   6    -0.709986656273E+03   -0.39441E-05   -0.97053E-06  6246   0.636E-03    0.351E-02
RMM:   7    -0.709986673295E+03   -0.17023E-04   -0.79962E-06  6278   0.513E-03    0.336E-02
RMM:   8    -0.709986683235E+03   -0.99396E-05   -0.49130E-06  5760   0.476E-03
  68 F= -.70998668E+03 E0= -.70937076E+03  d E =-.591854E-02  mag=     6.9778
       N       E                     dE             d eps       ncg     rms          rms(c)
DAV:   1    -0.709988598332E+03   -0.19250E-02   -0.79118E-02 13888   0.415E-01    0.732E-02
RMM:   2    -0.709988783000E+03   -0.18467E-03   -0.14976E-03 12153   0.580E-02    0.123E-01
RMM:   3    -0.709988798870E+03   -0.15870E-04   -0.16604E-04  7586   0.235E-02    0.112E-01
RMM:   4    -0.709988803314E+03   -0.44440E-05   -0.46938E-05  7306   0.137E-02    0.105E-01
RMM:   5    -0.709988775132E+03    0.28183E-04   -0.19728E-05  6874   0.856E-03    0.651E-02
RMM:   6    -0.709988771904E+03    0.32280E-05   -0.78322E-06  6104   0.585E-03    0.314E-02
RMM:   7    -0.709988782355E+03   -0.10451E-04   -0.65783E-06  5878   0.457E-03    0.295E-02
RMM:   8    -0.709988786943E+03   -0.45885E-05   -0.34130E-06  5291   0.425E-03
  69 F= -.70998879E+03 E0= -.70937293E+03  d E =-.802225E-02  mag=     6.9798
       N       E                     dE             d eps       ncg     rms          rms(c)
DAV:   1    -0.709988831707E+03   -0.49352E-04   -0.21428E-03 13424   0.685E-02    0.158E-02
RMM:   2    -0.709988848579E+03   -0.16872E-04   -0.43556E-05  7161   0.999E-03    0.261E-02
RMM:   3    -0.709988854035E+03   -0.54564E-05   -0.57462E-06  6179   0.502E-03    0.383E-02
RMM:   4    -0.709988849398E+03    0.46370E-05   -0.36350E-07  1859   0.265E-03    0.123E-02
RMM:   5    -0.709988856237E+03   -0.68387E-05   -0.17121E-07  1602   0.258E-03    0.152E-02
RMM:   6    -0.709988861762E+03   -0.55253E-05   -0.32559E-08  1272   0.248E-03    0.117E-02
RMM:   7    -0.709988868612E+03   -0.68497E-05   -0.40695E-08  1322   0.256E-03    0.688E-03
RMM:   8    -0.709988872795E+03   -0.41829E-05   -0.25507E-08  1099   0.257E-03
  70 F= -.70998887E+03 E0= -.70937301E+03  d E =-.810810E-02  mag=     6.9813
       N       E                     dE             d eps       ncg     rms          rms(c)
DAV:   1    -0.709991010603E+03   -0.21420E-02   -0.36556E-02 13888   0.286E-01    0.572E-02
RMM:   2    -0.709991147334E+03   -0.13673E-03   -0.95149E-04 10672   0.456E-02    0.113E-01
RMM:   3    -0.709991158425E+03   -0.11090E-04   -0.10602E-04  7408   0.197E-02    0.123E-01
RMM:   4    -0.709991097465E+03    0.60959E-04   -0.27574E-05  7195   0.109E-02    0.484E-02
RMM:   5    -0.709991104743E+03   -0.72775E-05   -0.11817E-05  6402   0.636E-03    0.364E-02
RMM:   6    -0.709991111526E+03   -0.67829E-05   -0.78532E-06  6027   0.551E-03    0.227E-02
RMM:   7    -0.709991124198E+03   -0.12672E-04   -0.56632E-06  5913   0.455E-03    0.290E-02
RMM:   8    -0.709991125320E+03   -0.11220E-05   -0.19957E-06  4461   0.372E-03
  71 F= -.70999113E+03 E0= -.70937530E+03  d E =-.225252E-02  mag=     6.9823
       N       E                     dE             d eps       ncg     rms          rms(c)
DAV:   1    -0.709991332013E+03   -0.20782E-03   -0.70104E-03 13488   0.125E-01    0.239E-02
RMM:   2    -0.709991373641E+03   -0.41628E-04   -0.18137E-04  7459   0.200E-02    0.687E-02
RMM:   3    -0.709991354401E+03    0.19240E-04   -0.20577E-05  7076   0.954E-03    0.444E-02
RMM:   4    -0.709991349510E+03    0.48907E-05   -0.49411E-06  5817   0.434E-03    0.157E-02
RMM:   5    -0.709991353609E+03   -0.40990E-05   -0.12995E-06  3081   0.321E-03    0.173E-02
RMM:   6    -0.709991356600E+03   -0.29904E-05   -0.48234E-07  2315   0.289E-03    0.110E-02
RMM:   7    -0.709991360715E+03   -0.41154E-05   -0.14872E-06  3137   0.324E-03    0.120E-02
RMM:   8    -0.709991361573E+03   -0.85811E-06   -0.14212E-07  1464   0.279E-03
  72 F= -.70999136E+03 E0= -.70937555E+03  d E =-.248878E-02  mag=     6.9831
       N       E                     dE             d eps       ncg     rms          rms(c)
DAV:   1    -0.709992061991E+03   -0.70128E-03   -0.24260E-02 13872   0.239E-01    0.450E-02
RMM:   2    -0.709992209197E+03   -0.14721E-03   -0.62287E-04  9851   0.416E-02    0.145E-01
RMM:   3    -0.709992117690E+03    0.91507E-04   -0.81501E-05  7348   0.180E-02    0.583E-02
RMM:   4    -0.709992124853E+03   -0.71634E-05   -0.22778E-05  7058   0.976E-03    0.582E-02
RMM:   5    -0.709992126215E+03   -0.13619E-05   -0.10142E-05  6341   0.609E-03    0.460E-02
RMM:   6    -0.709992123419E+03    0.27960E-05   -0.48086E-06  5793   0.464E-03    0.258E-02
RMM:   7    -0.709992125266E+03   -0.18472E-05   -0.46603E-06  5625   0.406E-03    0.236E-02
RMM:   8    -0.709992123687E+03    0.15796E-05   -0.15068E-06  4114   0.352E-03
  73 F= -.70999212E+03 E0= -.70937634E+03  d E =-.762114E-03  mag=     6.9830
       N       E                     dE             d eps       ncg     rms          rms(c)
DAV:   1    -0.709992126922E+03   -0.16558E-05   -0.64495E-05  8368   0.128E-02    0.744E-03
RMM:   2    -0.709992132904E+03   -0.59814E-05   -0.54682E-06  5829   0.467E-03    0.221E-02
RMM:   3    -0.709992132756E+03    0.14792E-06   -0.40114E-07  2175   0.275E-03    0.189E-02
RMM:   4    -0.709992131827E+03    0.92846E-06   -0.53844E-08  1208   0.241E-03    0.481E-03
RMM:   5    -0.709992133367E+03   -0.15395E-05   -0.25247E-08   992   0.232E-03    0.225E-03
RMM:   6    -0.709992135185E+03   -0.18181E-05   -0.16893E-08  1003   0.236E-03    0.196E-03
RMM:   7    -0.709992139347E+03   -0.41619E-05   -0.15077E-07  1454   0.249E-03    0.276E-03
RMM:   8    -0.709992140330E+03   -0.98351E-06   -0.27516E-08  1071   0.236E-03
  74 F= -.70999214E+03 E0= -.70937635E+03  d E =-.778757E-03  mag=     6.9830
       N       E                     dE             d eps       ncg     rms          rms(c)
DAV:   1    -0.709992498819E+03   -0.35947E-03   -0.46925E-03 13504   0.104E-01    0.167E-02
RMM:   2    -0.709992509641E+03   -0.10822E-04   -0.91443E-05  7184   0.175E-02    0.305E-02
RMM:   3    -0.709992508913E+03    0.72828E-06   -0.12524E-05  6968   0.815E-03    0.173E-02
RMM:   4    -0.709992516499E+03   -0.75862E-05   -0.30498E-06  5296   0.374E-03    0.392E-02
RMM:   5    -0.709992509770E+03    0.67285E-05   -0.80452E-07  3293   0.317E-03    0.144E-02
[...]
RMM:   8    -0.709993832122E+03   -0.48150E-05   -0.51534E-06  5633   0.436E-03
  80 F= -.70999383E+03 E0= -.70937821E+03  d E =-.782778E-03  mag=     6.9850
       N       E                     dE             d eps       ncg     rms          rms(c)
DAV:   1    -0.709993990036E+03   -0.16273E-03   -0.14158E-03 13472   0.566E-02    0.181E-02
RMM:   2    -0.709994009203E+03   -0.19167E-04   -0.33053E-05  7121   0.109E-02    0.536E-02
RMM:   3    -0.709994009853E+03   -0.64987E-06   -0.76504E-06  6704   0.633E-03    0.487E-02
RMM:   4    -0.709993998240E+03    0.11612E-04   -0.61891E-07  2636   0.288E-03    0.956E-03
RMM:   5    -0.709994001348E+03   -0.31076E-05   -0.21666E-07  1689   0.270E-03    0.770E-03
RMM:   6    -0.709994001900E+03   -0.55210E-06   -0.15445E-08  1109   0.257E-03    0.347E-03
RMM:   7    -0.709994006055E+03   -0.41556E-05   -0.54305E-07  1990   0.284E-03    0.581E-03
RMM:   8    -0.709994007299E+03   -0.12438E-05   -0.20744E-07  1417   0.266E-03
  81 F= -.70999401E+03 E0= -.70937840E+03  d E =-.175178E-03  mag=     6.9853
       N       E                     dE             d eps       ncg     rms          rms(c)
DAV:   1    -0.709994437489E+03   -0.43143E-03   -0.12590E-02 13920   0.168E-01    0.283E-02
RMM:   2    -0.709994492741E+03   -0.55253E-04   -0.25317E-04  7955   0.287E-02    0.803E-02
RMM:   3    -0.709994468851E+03    0.23891E-04   -0.39425E-05  7147   0.134E-02    0.499E-02
RMM:   4    -0.709994461774E+03    0.70762E-05   -0.10657E-05  6610   0.665E-03    0.216E-02
RMM:   5    -0.709994463947E+03   -0.21729E-05   -0.39075E-06  5643   0.432E-03    0.218E-02
RMM:   6    -0.709994462483E+03    0.14645E-05   -0.12252E-06  3348   0.323E-03    0.128E-02
RMM:   7    -0.709994462901E+03   -0.41866E-06   -0.14357E-06  3386   0.323E-03    0.143E-02
RMM:   8    -0.709994462170E+03    0.73088E-06   -0.40862E-07  2139   0.294E-03
  82 F= -.70999446E+03 E0= -.70937888E+03  d E =-.630049E-03  mag=     6.9856
       N       E                     dE             d eps       ncg     rms          rms(c)
DAV:   1    -0.709995116532E+03   -0.65363E-03   -0.50381E-02 13872   0.336E-01    0.558E-02
RMM:   2    -0.709995285726E+03   -0.16919E-03   -0.98695E-04 12205   0.573E-02    0.128E-01
RMM:   3    -0.709995253569E+03    0.32157E-04   -0.17286E-04  7820   0.236E-02    0.110E-01
RMM:   4    -0.709995210730E+03    0.42838E-04   -0.42993E-05  7276   0.146E-02    0.432E-02
RMM:   5    -0.709995212637E+03   -0.19063E-05   -0.15535E-05  6876   0.751E-03    0.402E-02
RMM:   6    -0.709995207527E+03    0.51097E-05   -0.78749E-06  6221   0.562E-03    0.237E-02
RMM:   7    -0.709995205218E+03    0.23085E-05   -0.80795E-06  6387   0.488E-03    0.235E-02
RMM:   8    -0.709995203283E+03    0.19355E-05   -0.28445E-06  5075   0.403E-03
  83 F= -.70999520E+03 E0= -.70937967E+03  d E =-.137116E-02  mag=     6.9860
       N       E                     dE             d eps       ncg     rms          rms(c)
DAV:   1    -0.709995168400E+03    0.36819E-04   -0.20187E-01 13760   0.673E-01    0.111E-01
RMM:   2    -0.709995781056E+03   -0.61266E-03   -0.39376E-03 13391   0.115E-01    0.232E-01
RMM:   3    -0.709995742858E+03    0.38198E-04   -0.71607E-04 12135   0.461E-02    0.219E-01
RMM:   4    -0.709995553540E+03    0.18932E-03   -0.15398E-04  8055   0.236E-02    0.831E-02
RMM:   5    -0.709995553544E+03   -0.30559E-08   -0.61713E-05  7630   0.167E-02    0.830E-02
RMM:   6    -0.709995538680E+03    0.14864E-04   -0.32763E-05  7257   0.106E-02    0.512E-02
RMM:   7    -0.709995536969E+03    0.17107E-05   -0.31956E-05  7212   0.946E-03    0.551E-02
RMM:   8    -0.709995524840E+03    0.12130E-04   -0.11910E-05  6486   0.740E-03
  84 F= -.70999552E+03 E0= -.70938008E+03  d E =-.169272E-02  mag=     6.9866
       N       E                     dE             d eps       ncg     rms          rms(c)
DAV:   1    -0.709995808984E+03   -0.27201E-03   -0.86798E-03 14048   0.139E-01    0.287E-02
RMM:   2    -0.709995945662E+03   -0.13668E-03   -0.18700E-04  7741   0.235E-02    0.141E-01
RMM:   3    -0.709995826356E+03    0.11931E-03   -0.32107E-05  7202   0.124E-02    0.360E-02
RMM:   4    -0.709995827583E+03   -0.12265E-05   -0.94310E-06  6549   0.586E-03    0.182E-02
RMM:   5    -0.709995828946E+03   -0.13634E-05   -0.30306E-06  5260   0.407E-03    0.201E-02
RMM:   6    -0.709995827089E+03    0.18576E-05   -0.34724E-07  2223   0.273E-03    0.990E-03
RMM:   7    -0.709995828761E+03   -0.16725E-05   -0.50079E-07  2485   0.287E-03    0.157E-02
RMM:   8    -0.709995827774E+03    0.98706E-06   -0.12550E-07  1827   0.273E-03
  85 F= -.70999583E+03 E0= -.70938043E+03  d E =-.302934E-03  mag=     6.9874
       N       E                     dE             d eps       ncg     rms          rms(c)
DAV:   1    -0.709996150836E+03   -0.32207E-03   -0.78342E-02 13840   0.417E-01    0.692E-02
RMM:   2    -0.709996349866E+03   -0.19903E-03   -0.14887E-03 12746   0.685E-02    0.123E-01
RMM:   3    -0.709996372439E+03   -0.22573E-04   -0.25033E-04  8486   0.278E-02    0.137E-01
RMM:   4    -0.709996300678E+03    0.71761E-04   -0.60822E-05  7437   0.168E-02    0.578E-02
RMM:   5    -0.709996298397E+03    0.22811E-05   -0.21370E-05  7066   0.892E-03    0.489E-02
RMM:   6    -0.709996291919E+03    0.64776E-05   -0.13316E-05  6646   0.691E-03    0.350E-02
RMM:   7    -0.709996287927E+03    0.39920E-05   -0.11762E-05  6657   0.610E-03    0.323E-02
RMM:   8    -0.709996283765E+03    0.41620E-05   -0.51150E-06  5900   0.492E-03
  86 F= -.70999628E+03 E0= -.70938095E+03  d E =-.758926E-03  mag=     6.9882
       N       E                     dE             d eps       ncg     rms          rms(c)
DAV:   1    -0.709997052277E+03   -0.76435E-03   -0.36429E-03 13552   0.916E-02    0.175E-02
RMM:   2    -0.709997066185E+03   -0.13908E-04   -0.72184E-05  7211   0.143E-02    0.361E-02
RMM:   3    -0.709997064556E+03    0.16281E-05   -0.94533E-06  6804   0.689E-03    0.265E-02
RMM:   4    -0.709997062898E+03    0.16589E-05   -0.10874E-06  2875   0.307E-03    0.176E-02
RMM:   5    -0.709997063564E+03   -0.66678E-06   -0.35794E-07  2208   0.282E-03    0.152E-02
RMM:   6    -0.709997063316E+03    0.24818E-06   -0.56633E-08  1593   0.265E-03    0.954E-03
RMM:   7    -0.709997064783E+03   -0.14670E-05   -0.51141E-08  1474   0.267E-03    0.710E-03
RMM:   8    -0.709997066052E+03   -0.12693E-05   -0.15931E-08  1242   0.268E-03
  87 F= -.70999707E+03 E0= -.70938174E+03  d E =-.782287E-03  mag=     6.9891
       N       E                     dE             d eps       ncg     rms          rms(c)
DAV:   1    -0.709998514591E+03   -0.14498E-02   -0.32789E-02 13888   0.275E-01    0.446E-02
RMM:   2    -0.709998577978E+03   -0.63387E-04   -0.60800E-04  9910   0.419E-02    0.735E-02
RMM:   3    -0.709998578131E+03   -0.15271E-06   -0.80541E-05  7313   0.180E-02    0.418E-02
RMM:   4    -0.709998635521E+03   -0.57390E-04   -0.22630E-05  7101   0.962E-03    0.109E-01
RMM:   5    -0.709998573640E+03    0.61880E-04   -0.10215E-05  6528   0.665E-03    0.397E-02
RMM:   6    -0.709998571611E+03    0.20288E-05   -0.43937E-06  5370   0.409E-03    0.274E-02
RMM:   7    -0.709998567369E+03    0.42428E-05   -0.18728E-06  4280   0.347E-03    0.227E-02
RMM:   8    -0.709998564971E+03    0.23971E-05   -0.65354E-07  2594   0.301E-03
  88 F= -.70999856E+03 E0= -.70938328E+03  d E =-.228121E-02  mag=     6.9901
       N       E                     dE             d eps       ncg     rms          rms(c)
DAV:   1    -0.709997443122E+03    0.11242E-02   -0.13125E-01 13664   0.550E-01    0.918E-02
RMM:   2    -0.709997675786E+03   -0.23266E-03   -0.24142E-03 13221   0.833E-02    0.138E-01
RMM:   3    -0.709997682765E+03   -0.69789E-05   -0.33476E-04  9044   0.333E-02    0.680E-02
RMM:   4    -0.709998111970E+03   -0.42921E-03   -0.11190E-04  7722   0.201E-02    0.292E-01
RMM:   5    -0.709997671522E+03    0.44045E-03   -0.45979E-05  7375   0.145E-02    0.813E-02
RMM:   6    -0.709997667096E+03    0.44265E-05   -0.20361E-05  6785   0.793E-03    0.503E-02
RMM:   7    -0.709997654242E+03    0.12854E-04   -0.99524E-06  6597   0.627E-03    0.424E-02
RMM:   8    -0.709997648734E+03    0.55071E-05   -0.46359E-06  5729   0.446E-03
  89 F= -.70999765E+03 E0= -.70938244E+03  d E =-.136497E-02  mag=     6.9917
       N       E                     dE             d eps       ncg     rms          rms(c)
DAV:   1    -0.709998734139E+03   -0.10799E-02   -0.60473E-02 13888   0.373E-01    0.607E-02
RMM:   2    -0.709998860230E+03   -0.12609E-03   -0.11063E-03 12111   0.567E-02    0.117E-01
RMM:   3    -0.709998850688E+03    0.95423E-05   -0.15034E-04  7520   0.238E-02    0.417E-02
RMM:   4    -0.709998971036E+03   -0.12035E-03   -0.44634E-05  7265   0.136E-02    0.152E-01
RMM:   5    -0.709998869969E+03    0.10107E-03   -0.15835E-05  6831   0.829E-03    0.392E-02
RMM:   6    -0.709998887718E+03   -0.17749E-04   -0.88421E-06  6131   0.524E-03    0.315E-02
RMM:   7    -0.709998904382E+03   -0.16664E-04   -0.47722E-06  5917   0.455E-03    0.307E-02
RMM:   8    -0.709998912051E+03   -0.76688E-05   -0.19929E-06  4020   0.343E-03
  90 F= -.70999891E+03 E0= -.70938366E+03  d E =-.262829E-02  mag=     6.9925
       N       E                     dE             d eps       ncg     rms          rms(c)
DAV:   1    -0.709999621778E+03   -0.71740E-03   -0.24797E-03 13376   0.772E-02    0.190E-02
RMM:   2    -0.709999643082E+03   -0.21304E-04   -0.54687E-05  7190   0.126E-02    0.461E-02
RMM:   3    -0.709999642866E+03    0.21554E-06   -0.87997E-06  6815   0.653E-03    0.487E-02
RMM:   4    -0.709999634870E+03    0.79957E-05   -0.16593E-06  4033   0.332E-03    0.172E-02
RMM:   5    -0.709999637690E+03   -0.28195E-05   -0.84464E-08  1614   0.265E-03    0.772E-03
RMM:   6    -0.709999643766E+03   -0.60761E-05   -0.13436E-07  1671   0.263E-03    0.159E-02
RMM:   7    -0.709999646498E+03   -0.27322E-05   -0.35383E-08  1399   0.259E-03    0.798E-03
RMM:   8    -0.709999648402E+03   -0.19033E-05   -0.10953E-08  1139   0.259E-03
  91 F= -.70999965E+03 E0= -.70938438E+03  d E =-.736351E-03  mag=     6.9929
       N       E                     dE             d eps       ncg     rms          rms(c)
DAV:   1    -0.710000846386E+03   -0.11999E-02   -0.22184E-02 13872   0.231E-01    0.383E-02
RMM:   2    -0.710000893850E+03   -0.47464E-04   -0.46117E-04  8967   0.365E-02    0.620E-02
RMM:   3    -0.710000888502E+03    0.53482E-05   -0.56065E-05  7242   0.161E-02    0.326E-02
RMM:   4    -0.710000930032E+03   -0.41530E-04   -0.15117E-05  6990   0.775E-03    0.854E-02
RMM:   5    -0.710000896217E+03    0.33815E-04   -0.73738E-06  6383   0.551E-03    0.379E-02
RMM:   6    -0.710000896000E+03    0.21753E-06   -0.28875E-06  5089   0.382E-03    0.218E-02
RMM:   7    -0.710000899466E+03   -0.34664E-05   -0.11520E-06  3444   0.314E-03    0.140E-02
RMM:   8    -0.710000900850E+03   -0.13843E-05   -0.65614E-07  2685   0.301E-03
  92 F= -.71000090E+03 E0= -.70938563E+03  d E =-.198880E-02  mag=     6.9929
       N       E                     dE             d eps       ncg     rms          rms(c)
DAV:   1    -0.710001006983E+03   -0.10752E-03   -0.36875E-03 13488   0.942E-02    0.184E-02
RMM:   2    -0.710001030856E+03   -0.23873E-04   -0.80728E-05  7252   0.152E-02    0.509E-02
RMM:   3    -0.710001017852E+03    0.13004E-04   -0.10809E-05  6923   0.725E-03    0.327E-02
RMM:   4    -0.710001016961E+03    0.89088E-06   -0.20665E-06  4094   0.348E-03    0.171E-02
RMM:   5    -0.710001016903E+03    0.58004E-07   -0.22981E-07  2094   0.283E-03    0.120E-02
RMM:   6    -0.710001018122E+03   -0.12183E-05   -0.12244E-07  1662   0.273E-03    0.982E-03
RMM:   7    -0.710001017981E+03    0.14035E-06   -0.59299E-08  1493   0.276E-03    0.839E-03
RMM:   8    -0.710001017798E+03    0.18367E-06   -0.17317E-08  1175   0.269E-03
  93 F= -.71000102E+03 E0= -.70938575E+03  d E =-.210575E-02  mag=     6.9927
       N       E                     dE             d eps       ncg     rms          rms(c)
DAV:   1    -0.710001668376E+03   -0.65040E-03   -0.60885E-03 13584   0.118E-01    0.200E-02
RMM:   2    -0.710001684376E+03   -0.15999E-04   -0.13088E-04  7295   0.198E-02    0.390E-02
RMM:   3    -0.710001683389E+03    0.98633E-06   -0.16941E-05  6991   0.926E-03    0.282E-02
RMM:   4    -0.710001685616E+03   -0.22269E-05   -0.41003E-06  5868   0.411E-03    0.311E-02
RMM:   5    -0.710001682362E+03    0.32542E-05   -0.12098E-06  3754   0.330E-03    0.164E-02
RMM:   6    -0.710001682869E+03   -0.50667E-06   -0.22366E-07  1867   0.278E-03    0.120E-02
RMM:   7    -0.710001684445E+03   -0.15758E-05   -0.49497E-07  2266   0.277E-03    0.124E-02
RMM:   8    -0.710001684591E+03   -0.14679E-06   -0.16569E-07  1424   0.263E-03
  94 F= -.71000168E+03 E0= -.70938643E+03  d E =-.666794E-03  mag=     6.9927
       N       E                     dE             d eps       ncg     rms          rms(c)
DAV:   1    -0.710001885295E+03   -0.20085E-03   -0.59290E-03 13520   0.116E-01    0.206E-02
RMM:   2    -0.710001917140E+03   -0.31844E-04   -0.13061E-04  7336   0.197E-02    0.663E-02
RMM:   3    -0.710001897311E+03    0.19829E-04   -0.18002E-05  7024   0.951E-03    0.249E-02
RMM:   4    -0.710001898650E+03   -0.13395E-05   -0.42947E-06  5716   0.433E-03    0.189E-02
RMM:   5    -0.710001899346E+03   -0.69640E-06   -0.94201E-07  3233   0.319E-03    0.180E-02
RMM:   6    -0.710001899393E+03   -0.46421E-07   -0.20931E-07  1772   0.278E-03    0.127E-02
RMM:   7    -0.710001899610E+03   -0.21695E-06   -0.28759E-07  1945   0.285E-03    0.999E-03
RMM:   8    -0.710001899573E+03    0.37282E-07   -0.14828E-07  1512   0.272E-03
  95 F= -.71000190E+03 E0= -.70938664E+03  d E =-.881775E-03  mag=     6.9929
       N       E                     dE             d eps       ncg     rms          rms(c)
DAV:   1    -0.710002410618E+03   -0.51101E-03   -0.40582E-03 13552   0.952E-02    0.165E-02
RMM:   2    -0.710002418606E+03   -0.79888E-05   -0.87626E-05  7186   0.162E-02    0.203E-02
RMM:   3    -0.710002419413E+03   -0.80616E-06   -0.11485E-05  6989   0.788E-03    0.163E-02
RMM:   4    -0.710002423785E+03   -0.43721E-05   -0.21361E-06  4412   0.350E-03    0.339E-02
RMM:   5    -0.710002418838E+03    0.49470E-05   -0.31545E-07  2395   0.298E-03    0.123E-02
RMM:   6    -0.710002419466E+03   -0.62834E-06   -0.14257E-07  1585   0.286E-03    0.926E-03
RMM:   7    -0.710002419786E+03   -0.31957E-06   -0.21147E-07  1571   0.291E-03    0.666E-03
RMM:   8    -0.710002419879E+03   -0.93758E-07   -0.30965E-07  1642   0.287E-03
  96 F= -.71000242E+03 E0= -.70938715E+03  d E =-.520307E-03  mag=     6.9929
       N       E                     dE             d eps       ncg     rms          rms(c)
DAV:   1    -0.710002942247E+03   -0.52246E-03   -0.29900E-02 13824   0.258E-01    0.446E-02
RMM:   2    -0.710003005901E+03   -0.63654E-04   -0.62734E-04 10934   0.437E-02    0.644E-02
RMM:   3    -0.710003034324E+03   -0.28423E-04   -0.92719E-05  7315   0.195E-02    0.890E-02
RMM:   4    -0.710003005908E+03    0.28416E-04   -0.25796E-05  7122   0.111E-02    0.554E-02
RMM:   5    -0.710002999397E+03    0.65112E-05   -0.82990E-06  6517   0.596E-03    0.293E-02
RMM:   6    -0.710002996337E+03    0.30600E-05   -0.48796E-06  5830   0.441E-03    0.185E-02
RMM:   7    -0.710002996113E+03    0.22387E-06   -0.31079E-06  5193   0.384E-03    0.202E-02
RMM:   8    -0.710002993846E+03    0.22672E-05   -0.11012E-06  3460   0.319E-03
  97 F= -.71000299E+03 E0= -.70938773E+03  d E =-.109427E-02  mag=     6.9927
       N       E                     dE             d eps       ncg     rms          rms(c)
DAV:   1    -0.710003120814E+03   -0.12470E-03   -0.25819E-03 13408   0.781E-02    0.148E-02
RMM:   2    -0.710003135939E+03   -0.15125E-04   -0.55825E-05  7155   0.146E-02    0.493E-02
RMM:   3    -0.710003126502E+03    0.94372E-05   -0.90337E-06  6882   0.704E-03    0.196E-02
RMM:   4    -0.710003126870E+03   -0.36834E-06   -0.11521E-06  3626   0.324E-03    0.123E-02
RMM:   5    -0.710003129011E+03   -0.21409E-05   -0.15261E-07  1946   0.288E-03    0.160E-02
RMM:   6    -0.710003130580E+03   -0.15693E-05   -0.65499E-08  1460   0.284E-03    0.127E-02
RMM:   7    -0.710003131553E+03   -0.97319E-06   -0.26935E-07  1822   0.299E-03    0.648E-03
RMM:   8    -0.710003132034E+03   -0.48084E-06   -0.75246E-08  1217   0.289E-03
  98 F= -.71000313E+03 E0= -.70938786E+03  d E =-.138188E-03  mag=     6.9926
       N       E                     dE             d eps       ncg     rms          rms(c)
DAV:   1    -0.710003147215E+03   -0.15662E-04   -0.66285E-04 13184   0.395E-02    0.795E-03
RMM:   2    -0.710003149268E+03   -0.20533E-05   -0.15438E-05  7006   0.757E-03    0.131E-02
RMM:   3    -0.710003149126E+03    0.14243E-06   -0.16524E-06  4841   0.358E-03    0.699E-03
RMM:   4    -0.710003150127E+03   -0.10010E-05   -0.58585E-08  1387   0.231E-03    0.761E-03
RMM:   5    -0.710003150521E+03   -0.39372E-06   -0.36203E-08  1203   0.225E-03    0.615E-03
RMM:   6    -0.710003151259E+03   -0.73801E-06   -0.27498E-08  1026   0.218E-03    0.806E-03
RMM:   7    -0.710003151308E+03   -0.49571E-07   -0.11494E-08   976   0.219E-03    0.378E-03
RMM:   8    -0.710003151663E+03   -0.35510E-06   -0.21085E-09   955   0.219E-03
  99 F= -.71000315E+03 E0= -.70938789E+03  d E =-.157817E-03  mag=     6.9927
       N       E                     dE             d eps       ncg     rms          rms(c)
DAV:   1    -0.710003234336E+03   -0.83027E-04   -0.28178E-03 13392   0.805E-02    0.143E-02
RMM:   2    -0.710003241326E+03   -0.69906E-05   -0.65922E-05  7166   0.156E-02    0.268E-02
RMM:   3    -0.710003241063E+03    0.26327E-06   -0.10122E-05  6916   0.751E-03    0.195E-02
RMM:   4    -0.710003242106E+03   -0.10424E-05   -0.17481E-06  4235   0.340E-03    0.205E-02
RMM:   5    -0.710003240814E+03    0.12912E-05   -0.38621E-07  2374   0.299E-03    0.134E-02
RMM:   6    -0.710003240830E+03   -0.15367E-07   -0.11091E-07  1622   0.293E-03    0.828E-03
RMM:   7    -0.710003240699E+03    0.13029E-06   -0.57838E-07  2227   0.307E-03    0.634E-03
RMM:   8    -0.710003240666E+03    0.33309E-07   -0.43412E-07  1788   0.289E-03
 100 F= -.71000324E+03 E0= -.70938796E+03  d E =-.890027E-04  mag=     6.9928
       N       E                     dE             d eps       ncg     rms          rms(c)
DAV:   1    -0.710003242437E+03   -0.17379E-05   -0.10201E-04  8288   0.157E-02    0.628E-03
RMM:   2    -0.710003248555E+03   -0.61180E-05   -0.69647E-06  6411   0.539E-03    0.316E-02
RMM:   3    -0.710003242606E+03    0.59489E-05   -0.76967E-07  3146   0.308E-03    0.114E-02
RMM:   4    -0.710003243408E+03   -0.80121E-06   -0.73131E-08  1160   0.264E-03    0.102E-02
RMM:   5    -0.710003243707E+03   -0.29941E-06   -0.89794E-09   906   0.258E-03    0.119E-02
RMM:   6    -0.710003243455E+03    0.25220E-06   -0.30050E-09   863   0.256E-03    0.774E-03
RMM:   7    -0.710003243568E+03   -0.11360E-06    0.00000E+00   854   0.255E-03    0.308E-03
RMM:   8    -0.710003243744E+03   -0.17599E-06    0.00000E+00   845   0.254E-03
 101 F= -.71000324E+03 E0= -.70938796E+03  d E =-.920810E-04  mag=     6.9929
       N       E                     dE             d eps       ncg     rms          rms(c)
DAV:   1    -0.710003302519E+03   -0.58951E-04   -0.22152E-03 12816   0.685E-02    0.129E-02
RMM:   2    -0.710003311540E+03   -0.90212E-05   -0.54944E-05  7153   0.134E-02    0.373E-02
RMM:   3    -0.710003306116E+03    0.54247E-05   -0.84928E-06  6874   0.679E-03    0.211E-02
RMM:   4    -0.710003305749E+03    0.36677E-06   -0.90050E-07  3025   0.311E-03    0.149E-02
RMM:   5    -0.710003305367E+03    0.38183E-06   -0.39392E-07  1992   0.294E-03    0.131E-02
RMM:   6    -0.710003305039E+03    0.32807E-06   -0.22854E-07  1685   0.293E-03    0.138E-02
RMM:   7    -0.710003303821E+03    0.12176E-05   -0.49137E-07  1989   0.303E-03    0.869E-03
RMM:   8    -0.710003303446E+03    0.37566E-06   -0.34743E-07  1512   0.291E-03
 102 F= -.71000330E+03 E0= -.70938799E+03  d E =-.597013E-04  mag=     6.9931
