       N       E                     dE             d eps       ncg     rms          rms(c)
DAV:   1     0.765143332269E+04    0.76514E+04   -0.29982E+05 15152   0.126E+03
DAV:   2     0.609845765905E+03   -0.70416E+04   -0.63602E+04 16048   0.375E+02
DAV:   3    -0.758386630818E+03   -0.13682E+04   -0.13153E+04 18688   0.166E+02
DAV:   4    -0.833260333470E+03   -0.74874E+02   -0.72951E+02 20432   0.432E+01
DAV:   5    -0.834942809181E+03   -0.16825E+01   -0.16523E+01 19264   0.599E+00    0.187E+02
RMM:   6    -0.700108659953E+03    0.13483E+03   -0.63136E+02 14890   0.403E+01    0.172E+02
RMM:   7    -0.146491764838E+04   -0.76481E+03   -0.41016E+02 16570   0.274E+01    0.386E+02
RMM:   8    -0.135327613998E+04    0.11164E+03   -0.12045E+02 19075   0.113E+01    0.372E+02
RMM:   9    -0.145577803400E+04   -0.10250E+03   -0.57436E+01 15547   0.102E+01    0.379E+02
RMM:  10    -0.997922779589E+03    0.45786E+03   -0.49796E+02 22100   0.262E+01    0.311E+02
RMM:  11    -0.113377487633E+04   -0.13585E+03   -0.79681E+01 16768   0.112E+01    0.276E+02
RMM:  12    -0.112861593965E+04    0.51589E+01   -0.24578E+02 19804   0.152E+01    0.158E+02
RMM:  13    -0.986398104613E+03    0.14222E+03   -0.26639E+02 21588   0.215E+01    0.179E+02
RMM:  14    -0.741333603569E+03    0.24506E+03   -0.32618E+01 15783   0.802E+00    0.146E+02
RMM:  15    -0.643697033410E+03    0.97637E+02   -0.65612E+01 18191   0.111E+01    0.126E+02
RMM:  16    -0.642891326963E+03    0.80571E+00   -0.19524E+01 15539   0.660E+00    0.111E+02
RMM:  17    -0.634689592341E+03    0.82017E+01   -0.88964E+00 16047   0.450E+00    0.978E+01
RMM:  18    -0.625248604615E+03    0.94410E+01   -0.64685E+00 15801   0.379E+00    0.853E+01
RMM:  19    -0.623115294815E+03    0.21333E+01   -0.30739E+00 15838   0.258E+00    0.809E+01
RMM:  20    -0.623932403544E+03   -0.81711E+00   -0.25932E+00 15637   0.240E+00    0.702E+01
RMM:  21    -0.625711802559E+03   -0.17794E+01   -0.61980E+00 18818   0.349E+00    0.492E+01
RMM:  22    -0.631743433975E+03   -0.60316E+01   -0.14867E+00 15373   0.197E+00    0.442E+01
RMM:  23    -0.638712327914E+03   -0.69689E+01   -0.17400E+00 15930   0.202E+00    0.410E+01
RMM:  24    -0.654120432801E+03   -0.15408E+02   -0.99875E+00 21186   0.446E+00    0.191E+01
RMM:  25    -0.663707100145E+03   -0.95867E+01   -0.49732E+00 18742   0.305E+00    0.148E+01
RMM:  26    -0.669506051792E+03   -0.57990E+01   -0.23653E+00 16726   0.217E+00    0.196E+01
RMM:  27    -0.668281088052E+03    0.12250E+01   -0.55511E-01 15085   0.123E+00    0.157E+01
RMM:  28    -0.674444932084E+03   -0.61638E+01   -0.15002E+00 16953   0.166E+00    0.159E+01
RMM:  29    -0.677863750353E+03   -0.34188E+01   -0.13532E+00 17452   0.173E+00    0.118E+01
RMM:  30    -0.679404421322E+03   -0.15407E+01   -0.61490E-01 16313   0.115E+00    0.136E+01
RMM:  31    -0.678177787249E+03    0.12266E+01   -0.29499E-01 15127   0.885E-01    0.120E+01
RMM:  32    -0.680378689961E+03   -0.22009E+01   -0.38936E-01 16565   0.900E-01    0.111E+01
RMM:  33    -0.679112610124E+03    0.12661E+01   -0.32315E-01 16063   0.836E-01    0.118E+01
RMM:  34    -0.680497083555E+03   -0.13845E+01   -0.62746E-01 18497   0.110E+00    0.144E+01
RMM:  35    -0.686241811926E+03   -0.57447E+01   -0.29085E-01 16208   0.794E-01    0.115E+01
RMM:  36    -0.686903860353E+03   -0.66205E+00   -0.35638E-01 17112   0.814E-01    0.159E+01
RMM:  37    -0.687741574283E+03   -0.83771E+00   -0.18161E-01 15942   0.595E-01    0.136E+01
RMM:  38    -0.689200789269E+03   -0.14592E+01   -0.25484E-01 17548   0.683E-01    0.103E+01
RMM:  39    -0.690891122496E+03   -0.16903E+01   -0.23757E-01 17454   0.657E-01    0.911E+00
RMM:  40    -0.691915773532E+03   -0.10247E+01   -0.25331E-01 17677   0.666E-01    0.984E+00
RMM:  41    -0.691622662888E+03    0.29311E+00   -0.13829E-01 16377   0.515E-01    0.845E+00
RMM:  42    -0.692392231819E+03   -0.76957E+00   -0.81266E-02 15879   0.397E-01    0.907E+00
RMM:  43    -0.692044022364E+03    0.34821E+00   -0.83750E-02 16701   0.377E-01    0.667E+00
RMM:  44    -0.693195621724E+03   -0.11516E+01   -0.16124E-01 18527   0.485E-01    0.513E+00
RMM:  45    -0.693770111804E+03   -0.57449E+00   -0.62058E-02 16331   0.321E-01    0.453E+00
RMM:  46    -0.694271589346E+03   -0.50148E+00   -0.83986E-02 17754   0.353E-01    0.439E+00
RMM:  47    -0.694788178019E+03   -0.51659E+00   -0.68754E-02 17617   0.311E-01    0.530E+00
RMM:  48    -0.694904668724E+03   -0.11649E+00   -0.16878E-02 15641   0.187E-01    0.581E+00
RMM:  49    -0.695154310522E+03   -0.24964E+00   -0.14326E-02 15752   0.175E-01    0.613E+00
RMM:  50    -0.695715998030E+03   -0.56169E+00   -0.36257E-02 18567   0.248E-01    0.653E+00
RMM:  51    -0.694549033584E+03    0.11670E+01   -0.30215E-01 24226   0.617E-01    0.360E+00
RMM:  52    -0.694790096810E+03   -0.24106E+00   -0.61366E-03 15059   0.169E-01    0.323E+00
RMM:  53    -0.694828456635E+03   -0.38360E-01   -0.60274E-03 15564   0.124E-01    0.286E+00
RMM:  54    -0.695120339393E+03   -0.29188E+00   -0.12411E-02 17693   0.152E-01    0.221E+00
RMM:  55    -0.695324734246E+03   -0.20439E+00   -0.69262E-03 16645   0.115E-01    0.168E+00
RMM:  56    -0.695492397158E+03   -0.16766E+00   -0.19038E-02 19889   0.190E-01    0.813E-01
RMM:  57    -0.695671092750E+03   -0.17870E+00   -0.29869E-03 15361   0.854E-02    0.671E-01
RMM:  58    -0.695793254724E+03   -0.12216E+00   -0.38795E-03 16222   0.873E-02    0.691E-01
RMM:  59    -0.695953598141E+03   -0.16034E+00   -0.32421E-03 16059   0.766E-02    0.501E-01
RMM:  60    -0.696117967553E+03   -0.16437E+00   -0.29286E-03 16121   0.703E-02    0.517E-01
RMM:  61    -0.696184829281E+03   -0.66862E-01   -0.13496E-03 14484   0.532E-02    0.537E-01
RMM:  62    -0.696241541825E+03   -0.56713E-01   -0.57909E-04 12425   0.364E-02    0.384E-01
RMM:  63    -0.696291607798E+03   -0.50066E-01   -0.70152E-04 12557   0.332E-02    0.272E-01
RMM:  64    -0.696327483122E+03   -0.35875E-01   -0.46432E-04 11766   0.281E-02    0.183E-01
RMM:  65    -0.696344361100E+03   -0.16878E-01   -0.22125E-04  9966   0.209E-02    0.120E-01
RMM:  66    -0.696355502770E+03   -0.11142E-01   -0.10964E-04  9012   0.171E-02    0.770E-02
RMM:  67    -0.696363761922E+03   -0.82592E-02   -0.65324E-05  8862   0.134E-02    0.609E-02
RMM:  68    -0.696370851237E+03   -0.70893E-02   -0.51673E-05  8654   0.113E-02    0.502E-02
RMM:  69    -0.696376828310E+03   -0.59771E-02   -0.53940E-05  8619   0.102E-02    0.444E-02
RMM:  70    -0.696380094847E+03   -0.32665E-02   -0.40128E-05  8268   0.911E-03    0.366E-02
RMM:  71    -0.696381618623E+03   -0.15238E-02   -0.52519E-05  8636   0.985E-03    0.415E-02
RMM:  72    -0.696383410397E+03   -0.17918E-02   -0.40447E-05  7968   0.891E-03    0.366E-02
RMM:  73    -0.696385362883E+03   -0.19525E-02   -0.68505E-05  8659   0.959E-03    0.231E-02
RMM:  74    -0.696386433082E+03   -0.10702E-02   -0.71295E-05  8575   0.957E-03    0.239E-02
RMM:  75    -0.696386918050E+03   -0.48497E-03   -0.29968E-05  7202   0.745E-03    0.138E-02
RMM:  76    -0.696387838592E+03   -0.92054E-03   -0.28948E-05  7227   0.656E-03    0.131E-02
RMM:  77    -0.696388561184E+03   -0.72259E-03   -0.28465E-05  6995   0.623E-03    0.109E-02
RMM:  78    -0.696389148616E+03   -0.58743E-03   -0.15113E-05  6137   0.551E-03    0.887E-03
RMM:  79    -0.696389851608E+03   -0.70299E-03   -0.14520E-05  6434   0.508E-03    0.858E-03
RMM:  80    -0.696390239353E+03   -0.38774E-03   -0.69480E-06  5433   0.446E-03
   1 F= -.69639024E+03 E0= -.69581415E+03  d E =-.696390E+03  mag=     2.6299
       N       E                     dE             d eps       ncg     rms          rms(c)
DAV:   1    -0.694887111798E+03    0.15027E+01   -0.31952E+02 15344   0.228E+01    0.508E+00
RMM:   2    -0.695996166216E+03   -0.11091E+01   -0.80941E+00 14848   0.437E+00    0.104E+01
RMM:   3    -0.696008217877E+03   -0.12052E-01   -0.18463E+00 16366   0.190E+00    0.797E+00
RMM:   4    -0.696701796565E+03   -0.69358E+00   -0.33774E-01 15063   0.890E-01    0.128E+01
RMM:   5    -0.695776245445E+03    0.92555E+00   -0.13668E-01 14887   0.713E-01    0.506E+00
RMM:   6    -0.695741221870E+03    0.35024E-01   -0.76841E-02 14914   0.482E-01    0.422E+00
RMM:   7    -0.695679579874E+03    0.61642E-01   -0.57387E-02 15136   0.404E-01    0.259E+00
RMM:   8    -0.695655792250E+03    0.23788E-01   -0.52190E-02 15715   0.328E-01    0.126E+00
RMM:   9    -0.695660682592E+03   -0.48903E-02   -0.14495E-02 14928   0.201E-01    0.140E+00
RMM:  10    -0.695656237609E+03    0.44450E-02   -0.59743E-03 14816   0.145E-01    0.923E-01
RMM:  11    -0.695654894393E+03    0.13432E-02   -0.33026E-03 14660   0.959E-02    0.649E-01
RMM:  12    -0.695654124937E+03    0.76946E-03   -0.18535E-03 14031   0.705E-02    0.444E-01
RMM:  13    -0.695653641585E+03    0.48335E-03   -0.10872E-03 13597   0.491E-02    0.264E-01
RMM:  14    -0.695653326208E+03    0.31538E-03   -0.60713E-04 12541   0.364E-02    0.148E-01
RMM:  15    -0.695653023489E+03    0.30272E-03   -0.42574E-04 11505   0.289E-02    0.135E-01
RMM:  16    -0.695652615228E+03    0.40826E-03   -0.20366E-04  9637   0.218E-02    0.112E-01
RMM:  17    -0.695651851646E+03    0.76358E-03   -0.23999E-04  9741   0.218E-02    0.887E-02
RMM:  18    -0.695650918805E+03    0.93284E-03   -0.16912E-04  9318   0.195E-02    0.931E-02
RMM:  19    -0.695649964321E+03    0.95448E-03   -0.13100E-04  9031   0.178E-02    0.627E-02
RMM:  20    -0.695649253836E+03    0.71048E-03   -0.95365E-05  8697   0.150E-02    0.506E-02
RMM:  21    -0.695648852009E+03    0.40183E-03   -0.64335E-05  8317   0.126E-02    0.339E-02
RMM:  22    -0.695649192004E+03   -0.33999E-03   -0.29082E-05  7630   0.930E-03    0.268E-02
RMM:  23    -0.695649799115E+03   -0.60711E-03   -0.25792E-05  7433   0.744E-03    0.266E-02
RMM:  24    -0.695650380052E+03   -0.58094E-03   -0.16238E-05  6860   0.621E-03    0.239E-02
RMM:  25    -0.695650838349E+03   -0.45830E-03   -0.14257E-05  6623   0.554E-03    0.200E-02
RMM:  26    -0.695651541241E+03   -0.70289E-03   -0.19951E-05  7109   0.584E-03    0.195E-02
RMM:  27    -0.695652306220E+03   -0.76498E-03   -0.23553E-05  7026   0.593E-03    0.162E-02
RMM:  28    -0.695652814237E+03   -0.50802E-03   -0.16278E-05  6333   0.545E-03    0.171E-02
RMM:  29    -0.695653220266E+03   -0.40603E-03   -0.17834E-05  6593   0.555E-03    0.116E-02
RMM:  30    -0.695653489037E+03   -0.26877E-03   -0.70256E-06  4920   0.444E-03    0.108E-02
RMM:  31    -0.695653759322E+03   -0.27029E-03   -0.51362E-06  4521   0.383E-03    0.938E-03
RMM:  32    -0.695654127358E+03   -0.36804E-03   -0.46190E-06  5014   0.384E-03    0.788E-03
RMM:  33    -0.695654460635E+03   -0.33328E-03   -0.26685E-06  4041   0.336E-03    0.747E-03
RMM:  34    -0.695654727179E+03   -0.26654E-03   -0.12023E-06  3246   0.309E-03    0.659E-03
RMM:  35    -0.695655081664E+03   -0.35448E-03   -0.13661E-06  3260   0.304E-03    0.673E-03
RMM:  36    -0.695655433767E+03   -0.35210E-03   -0.11684E-06  2974   0.298E-03    0.618E-03
RMM:  37    -0.695655815406E+03   -0.38164E-03   -0.15598E-06  3107   0.302E-03    0.533E-03
RMM:  38    -0.695656113037E+03   -0.29763E-03   -0.10228E-06  2857   0.297E-03    0.374E-03
RMM:  39    -0.695656257933E+03   -0.14490E-03   -0.44716E-07  2227   0.286E-03    0.325E-03
RMM:  40    -0.695656408088E+03   -0.15015E-03   -0.55883E-07  2155   0.287E-03    0.306E-03
RMM:  41    -0.695656532358E+03   -0.12427E-03   -0.40358E-07  2038   0.286E-03    0.259E-03
RMM:  42    -0.695656669251E+03   -0.13689E-03   -0.98001E-07  2509   0.293E-03    0.228E-03
RMM:  43    -0.695656761761E+03   -0.92509E-04   -0.78153E-07  2473   0.292E-03
   2 F= -.69565676E+03 E0= -.69508450E+03  d E =0.733478E+00  mag=     2.5403
       N       E                     dE             d eps       ncg     rms          rms(c)
DAV:   1    -0.696163945952E+03   -0.50728E+00   -0.16020E+02 14944   0.160E+01    0.472E+00
RMM:   2    -0.696787983403E+03   -0.62404E+00   -0.46170E+00 14848   0.322E+00    0.899E+00
RMM:   3    -0.697069106047E+03   -0.28112E+00   -0.10364E+00 16099   0.138E+00    0.887E+00
RMM:   4    -0.697140429807E+03   -0.71324E-01   -0.21487E-01 15070   0.751E-01    0.979E+00
RMM:   5    -0.696598259470E+03    0.54217E+00   -0.99695E-02 14897   0.600E-01    0.316E+00
RMM:   6    -0.696601638630E+03   -0.33792E-02   -0.40426E-02 14902   0.356E-01    0.303E+00
RMM:   7    -0.696559665295E+03    0.41973E-01   -0.26114E-02 15054   0.279E-01    0.134E+00
RMM:   8    -0.696554066233E+03    0.55991E-02   -0.16391E-02 15110   0.208E-01    0.118E+00
RMM:   9    -0.696544246505E+03    0.98197E-02   -0.89702E-03 15143   0.157E-01    0.936E-01
RMM:  10    -0.696539594839E+03    0.46517E-02   -0.31239E-03 14493   0.972E-02    0.748E-01
RMM:  11    -0.696535927397E+03    0.36674E-02   -0.13140E-03 13921   0.610E-02    0.482E-01
RMM:  12    -0.696534918870E+03    0.10085E-02   -0.51963E-04 12599   0.377E-02    0.318E-01
RMM:  13    -0.696535425651E+03   -0.50678E-03   -0.38833E-04 11709   0.306E-02    0.214E-01
RMM:  14    -0.696536784530E+03   -0.13589E-02   -0.30345E-04 10713   0.259E-02    0.138E-01
RMM:  15    -0.696538402500E+03   -0.16180E-02   -0.17628E-04  9542   0.202E-02    0.814E-02
RMM:  16    -0.696540288891E+03   -0.18864E-02   -0.68455E-05  8566   0.138E-02    0.616E-02
RMM:  17    -0.696542859651E+03   -0.25708E-02   -0.58311E-05  7911   0.101E-02    0.429E-02
RMM:  18    -0.696545950416E+03   -0.30908E-02   -0.68162E-05  8127   0.987E-03    0.351E-02
RMM:  19    -0.696548201319E+03   -0.22509E-02   -0.50808E-05  7712   0.911E-03    0.262E-02
RMM:  20    -0.696549845134E+03   -0.16438E-02   -0.34606E-05  7197   0.774E-03    0.249E-02
RMM:  21    -0.696551040474E+03   -0.11953E-02   -0.21477E-05  6468   0.627E-03    0.167E-02
RMM:  22    -0.696552024063E+03   -0.98359E-03   -0.13827E-05  5852   0.525E-03    0.143E-02
RMM:  23    -0.696553472350E+03   -0.14483E-02   -0.21168E-05  6650   0.547E-03    0.124E-02
RMM:  24    -0.696554366628E+03   -0.89428E-03   -0.12668E-05  5458   0.472E-03    0.915E-03
RMM:  25    -0.696554889700E+03   -0.52307E-03   -0.72710E-06  4913   0.420E-03    0.771E-03
RMM:  26    -0.696555234148E+03   -0.34445E-03   -0.38248E-06  4036   0.352E-03    0.710E-03
RMM:  27    -0.696555673568E+03   -0.43942E-03   -0.29185E-06  3735   0.331E-03    0.567E-03
RMM:  28    -0.696556198261E+03   -0.52469E-03   -0.28234E-06  3835   0.331E-03    0.567E-03
RMM:  29    -0.696556454536E+03   -0.25628E-03   -0.14889E-06  3204   0.312E-03    0.533E-03
RMM:  30    -0.696556716484E+03   -0.26195E-03   -0.13588E-06  2992   0.301E-03    0.446E-03
RMM:  31    -0.696556910975E+03   -0.19449E-03   -0.61755E-07  2548   0.295E-03    0.376E-03
RMM:  32    -0.696557096985E+03   -0.18601E-03   -0.60037E-07  2394   0.289E-03    0.299E-03
RMM:  33    -0.696557264597E+03   -0.16761E-03   -0.32873E-07  2238   0.287E-03    0.265E-03
RMM:  34    -0.696557448802E+03   -0.18420E-03   -0.14102E-07  2003   0.282E-03    0.271E-03
RMM:  35    -0.696557524090E+03   -0.75288E-04   -0.85685E-08  1854   0.281E-03
   3 F= -.69655752E+03 E0= -.69598270E+03  d E =-.167285E+00  mag=     2.6068
       N       E                     dE             d eps       ncg     rms          rms(c)
DAV:   1    -0.696582663309E+03   -0.25215E-01   -0.16029E+00 15344   0.160E+00    0.381E-01
RMM:   2    -0.696588242099E+03   -0.55788E-02   -0.32578E-02 14698   0.272E-01    0.971E-01
RMM:   3    -0.696587813950E+03    0.42815E-03   -0.53425E-03 14795   0.114E-01    0.678E-01
RMM:   4    -0.696588886740E+03   -0.10728E-02   -0.16527E-03 14063   0.659E-02    0.818E-01
RMM:   5    -0.696585773967E+03    0.31128E-02   -0.70345E-04 12820   0.496E-02    0.439E-01
RMM:   6    -0.696585659335E+03    0.11463E-03   -0.29771E-04 10769   0.318E-02    0.380E-01
RMM:   7    -0.696585204945E+03    0.45439E-03   -0.34310E-04 10371   0.291E-02    0.195E-01
RMM:   8    -0.696585073711E+03    0.13123E-03   -0.19147E-04  9201   0.222E-02    0.109E-01
RMM:   9    -0.696585069560E+03    0.41511E-05   -0.48579E-05  8318   0.150E-02
   4 F= -.69658507E+03 E0= -.69600999E+03  d E =-.194830E+00  mag=     2.6087
       N       E                     dE             d eps       ncg     rms          rms(c)
DAV:   1    -0.696280224364E+03    0.30485E+00   -0.81222E+01 15072   0.118E+01    0.301E+00
RMM:   2    -0.696547853367E+03   -0.26763E+00   -0.14995E+00 14848   0.218E+00    0.586E+00
RMM:   3    -0.696862221526E+03   -0.31437E+00   -0.39972E-01 16065   0.987E-01    0.810E+00
RMM:   4    -0.696514638830E+03    0.34758E+00   -0.10258E-01 15097   0.547E-01    0.427E+00
RMM:   5    -0.696443141415E+03    0.71497E-01   -0.35560E-02 14934   0.348E-01    0.232E+00
RMM:   6    -0.696428278197E+03    0.14863E-01   -0.26158E-02 15112   0.258E-01    0.171E+00
RMM:   7    -0.696426014376E+03    0.22638E-02   -0.19616E-02 15545   0.220E-01    0.160E+00
RMM:   8    -0.696414721151E+03    0.11293E-01   -0.62228E-03 14825   0.147E-01    0.723E-01
RMM:   9    -0.696414908791E+03   -0.18764E-03   -0.33586E-03 14641   0.939E-02    0.664E-01
RMM:  10    -0.696413719669E+03    0.11891E-02   -0.11875E-03 13411   0.649E-02    0.345E-01
RMM:  11    -0.696413517004E+03    0.20266E-03   -0.49720E-04 12132   0.366E-02    0.192E-01
RMM:  12    -0.696413832258E+03   -0.31525E-03   -0.36769E-04 11224   0.299E-02    0.171E-01
RMM:  13    -0.696413906626E+03   -0.74368E-04   -0.24732E-04 10155   0.252E-02
   5 F= -.69641391E+03 E0= -.69583910E+03  d E =0.171163E+00  mag=     2.6036
       N       E                     dE             d eps       ncg     rms          rms(c)
DAV:   1    -0.696533011131E+03   -0.11918E+00   -0.12277E+01 15344   0.463E+00    0.982E-01
RMM:   2    -0.696577604053E+03   -0.44593E-01   -0.21881E-01 14849   0.791E-01    0.239E+00
RMM:   3    -0.696578340244E+03   -0.73619E-03   -0.51517E-02 16415   0.356E-01    0.208E+00
RMM:   4    -0.696565737866E+03    0.12602E-01   -0.10871E-02 15270   0.175E-01    0.150E+00
RMM:   5    -0.696555805577E+03    0.99323E-02   -0.46557E-03 14728   0.122E-01    0.800E-01
RMM:   6    -0.696556948916E+03   -0.11433E-02   -0.32497E-03 14873   0.926E-02    0.806E-01
RMM:   7    -0.696555855797E+03    0.10931E-02   -0.29326E-03 15297   0.868E-02    0.590E-01
RMM:   8    -0.696555186436E+03    0.66936E-03   -0.14761E-03 14060   0.648E-02    0.374E-01
RMM:   9    -0.696554729039E+03    0.45740E-03   -0.41100E-04 11897   0.384E-02    0.215E-01
RMM:  10    -0.696554652375E+03    0.76664E-04   -0.12697E-04  8947   0.204E-02
   6 F= -.69655465E+03 E0= -.69598052E+03  d E =0.304172E-01  mag=     2.5962
       N       E                     dE             d eps       ncg     rms          rms(c)
DAV:   1    -0.696623834189E+03   -0.69105E-01   -0.38817E+00 15328   0.258E+00    0.597E-01
RMM:   2    -0.696643361695E+03   -0.19528E-01   -0.66311E-02 14849   0.434E-01    0.160E+00
RMM:   3    -0.696638348052E+03    0.50136E-02   -0.15807E-02 16136   0.200E-01    0.121E+00
RMM:   4    -0.696631472787E+03    0.68753E-02   -0.34799E-03 14858   0.104E-01    0.551E-01
RMM:   5    -0.696630941611E+03    0.53118E-03   -0.17712E-03 14026   0.706E-02    0.437E-01
RMM:   6    -0.696631658319E+03   -0.71671E-03   -0.10781E-03 13978   0.556E-02    0.474E-01
RMM:   7    -0.696630704228E+03    0.95409E-03   -0.74411E-04 13386   0.467E-02    0.246E-01
RMM:   8    -0.696630579770E+03    0.12446E-03   -0.28334E-04 10733   0.308E-02    0.129E-01
RMM:   9    -0.696630634646E+03   -0.54876E-04   -0.10891E-04  8866   0.200E-02
   7 F= -.69663063E+03 E0= -.69605622E+03  d E =-.455651E-01  mag=     2.5927
       N       E                     dE             d eps       ncg     rms          rms(c)
DAV:   1    -0.696640991669E+03   -0.10412E-01   -0.30973E+00 15344   0.230E+00    0.505E-01
RMM:   2    -0.696655908728E+03   -0.14917E-01   -0.52852E-02 14849   0.393E-01    0.142E+00
RMM:   3    -0.696652920029E+03    0.29887E-02   -0.12461E-02 16100   0.179E-01    0.111E+00
RMM:   4    -0.696648492556E+03    0.44275E-02   -0.30961E-03 14646   0.958E-02    0.732E-01
RMM:   5    -0.696646110317E+03    0.23822E-02   -0.11411E-03 13575   0.618E-02    0.336E-01
RMM:   6    -0.696646554014E+03   -0.44370E-03   -0.87759E-04 13527   0.464E-02    0.394E-01
RMM:   7    -0.696645954636E+03    0.59938E-03   -0.53714E-04 12591   0.402E-02    0.263E-01
RMM:   8    -0.696645707266E+03    0.24737E-03   -0.29354E-04 10593   0.292E-02    0.130E-01
RMM:   9    -0.696645683700E+03    0.23566E-04   -0.92730E-05  8651   0.196E-02
   8 F= -.69664568E+03 E0= -.69607102E+03  d E =-.606141E-01  mag=     2.5920
       N       E                     dE             d eps       ncg     rms          rms(c)
DAV:   1    -0.696650774865E+03   -0.50676E-02   -0.28171E-01 15328   0.695E-01    0.166E-01
RMM:   2    -0.696651712097E+03   -0.93723E-03   -0.47132E-03 14549   0.117E-01    0.382E-01
RMM:   3    -0.696651729588E+03   -0.17491E-04   -0.88741E-04 13288   0.543E-02    0.280E-01
RMM:   4    -0.696651968132E+03   -0.23854E-03   -0.34088E-04 10624   0.302E-02    0.352E-01
RMM:   5    -0.696651389388E+03    0.57874E-03   -0.12498E-04  8495   0.231E-02    0.129E-01
RMM:   6    -0.696651437564E+03   -0.48175E-04   -0.90421E-05  8294   0.170E-02    0.117E-01
RMM:   7    -0.696651511623E+03   -0.74059E-04   -0.66001E-05  8103   0.148E-02    0.722E-02
RMM:   8    -0.696651548888E+03   -0.37265E-04   -0.27327E-05  7545   0.103E-02
   9 F= -.69665155E+03 E0= -.69607687E+03  d E =-.664793E-01  mag=     2.5926
       N       E                     dE             d eps       ncg     rms          rms(c)
DAV:   1    -0.696573794538E+03    0.77717E-01   -0.49628E+01 14864   0.878E+00    0.246E+00
RMM:   2    -0.696846427804E+03   -0.27263E+00   -0.95977E-01 14848   0.171E+00    0.649E+00
RMM:   3    -0.696916686939E+03   -0.70259E-01   -0.24310E-01 15877   0.764E-01    0.636E+00
RMM:   4    -0.696712580119E+03    0.20411E+00   -0.68053E-02 14982   0.445E-01    0.364E+00
RMM:   5    -0.696682560471E+03    0.30020E-01   -0.21489E-02 14982   0.271E-01    0.241E+00
RMM:   6    -0.696668691096E+03    0.13869E-01   -0.22554E-02 15275   0.238E-01    0.202E+00
RMM:   7    -0.696656159083E+03    0.12532E-01   -0.16217E-02 15576   0.205E-01    0.135E+00
RMM:   8    -0.696648813652E+03    0.73454E-02   -0.52608E-03 14833   0.135E-01    0.671E-01
RMM:   9    -0.696647354835E+03    0.14588E-02   -0.30437E-03 14365   0.840E-02    0.453E-01
RMM:  10    -0.696647224303E+03    0.13053E-03   -0.84355E-04 13070   0.534E-02    0.345E-01
RMM:  11    -0.696646896535E+03    0.32777E-03   -0.33511E-04 10956   0.295E-02    0.210E-01
RMM:  12    -0.696646916487E+03   -0.19952E-04   -0.21248E-04  9806   0.232E-02
  10 F= -.69664692E+03 E0= -.69607121E+03  d E =0.463240E-02  mag=     2.5928
       N       E                     dE             d eps       ncg     rms          rms(c)
DAV:   1    -0.696738437054E+03   -0.91541E-01   -0.13183E+01 15248   0.460E+00    0.117E+00
RMM:   2    -0.696820255010E+03   -0.81818E-01   -0.24522E-01 14848   0.844E-01    0.347E+00
RMM:   3    -0.696789660600E+03    0.30594E-01   -0.58900E-02 16116   0.376E-01    0.235E+00
RMM:   4    -0.696778952491E+03    0.10708E-01   -0.15303E-02 15026   0.203E-01    0.202E+00
RMM:   5    -0.696761495332E+03    0.17457E-01   -0.71599E-03 14876   0.148E-01    0.944E-01
RMM:   6    -0.696759963870E+03    0.15315E-02   -0.47706E-03 14997   0.115E-01    0.823E-01
RMM:   7    -0.696758089739E+03    0.18741E-02   -0.29798E-03 14665   0.936E-02    0.580E-01
RMM:   8    -0.696757506496E+03    0.58324E-03   -0.19203E-03 14267   0.733E-02    0.431E-01
RMM:   9    -0.696756607176E+03    0.89932E-03   -0.62578E-04 12868   0.465E-02    0.215E-01
RMM:  10    -0.696756466967E+03    0.14021E-03   -0.21494E-04  9989   0.249E-02    0.111E-01
RMM:  11    -0.696756437761E+03    0.29206E-04   -0.74503E-05  8807   0.163E-02
  11 F= -.69675644E+03 E0= -.69618164E+03  d E =-.104889E+00  mag=     2.5897
       N       E                     dE             d eps       ncg     rms          rms(c)
DAV:   1    -0.696759789322E+03   -0.33224E-02   -0.54965E-01 15216   0.931E-01    0.262E-01
RMM:   2    -0.696763499611E+03   -0.37103E-02   -0.10096E-02 14817   0.172E-01    0.775E-01
RMM:   3    -0.696763080810E+03    0.41880E-03   -0.22200E-03 14406   0.804E-02    0.642E-01
RMM:   4    -0.696761033511E+03    0.20473E-02   -0.74157E-04 13089   0.468E-02    0.344E-01
RMM:   5    -0.696760777945E+03    0.25557E-03   -0.31177E-04 10799   0.323E-02    0.228E-01
RMM:   6    -0.696760674843E+03    0.10310E-03   -0.21894E-04  9520   0.268E-02    0.202E-01
RMM:   7    -0.696760505843E+03    0.16900E-03   -0.17356E-04  9060   0.232E-02    0.881E-02
RMM:   8    -0.696760472148E+03    0.33695E-04   -0.56847E-05  8273   0.150E-02
  12 F= -.69676047E+03 E0= -.69618573E+03  d E =-.108923E+00  mag=     2.5882
       N       E                     dE             d eps       ncg     rms          rms(c)
DAV:   1    -0.696632630388E+03    0.12788E+00   -0.29195E+01 14848   0.706E+00    0.171E+00
RMM:   2    -0.696730203686E+03   -0.97573E-01   -0.61805E-01 14848   0.120E+00    0.399E+00
RMM:   3    -0.696709356970E+03    0.20847E-01   -0.10247E-01 15509   0.520E-01    0.247E+00
RMM:   4    -0.696749542551E+03   -0.40186E-01   -0.29212E-02 15844   0.260E-01    0.354E+00
RMM:   5    -0.696695237996E+03    0.54305E-01   -0.12662E-02 14993   0.191E-01    0.189E+00
RMM:   6    -0.696701958044E+03   -0.67200E-02   -0.16195E-02 16168   0.200E-01    0.198E+00
RMM:   7    -0.696684278828E+03    0.17679E-01   -0.87975E-03 15526   0.161E-01    0.937E-01
RMM:   8    -0.696680574366E+03    0.37045E-02   -0.36352E-03 14444   0.108E-01    0.432E-01
RMM:   9    -0.696680509879E+03    0.64486E-04   -0.12558E-03 13568   0.593E-02    0.409E-01
RMM:  10    -0.696680075052E+03    0.43483E-03   -0.39464E-04 11718   0.364E-02    0.302E-01
RMM:  11    -0.696679878075E+03    0.19698E-03   -0.14554E-04  9226   0.205E-02    0.215E-01
RMM:  12    -0.696679965719E+03   -0.87645E-04   -0.20471E-04  9441   0.215E-02
  13 F= -.69667997E+03 E0= -.69610446E+03  d E =0.805064E-01  mag=     2.5954
       N       E                     dE             d eps       ncg     rms          rms(c)
DAV:   1    -0.696756094218E+03   -0.76216E-01   -0.12348E+01 15360   0.466E+00    0.131E+00
RMM:   2    -0.696799197541E+03   -0.43103E-01   -0.25520E-01 14848   0.780E-01    0.261E+00
RMM:   3    -0.696795469241E+03    0.37283E-02   -0.42049E-02 15412   0.339E-01    0.187E+00
RMM:   4    -0.696825408551E+03   -0.29939E-01   -0.13836E-02 15178   0.186E-01    0.285E+00
RMM:   5    -0.696779358840E+03    0.46050E-01   -0.90732E-03 15064   0.164E-01    0.887E-01
RMM:   6    -0.696783693009E+03   -0.43342E-02   -0.54231E-03 15191   0.128E-01    0.109E+00
RMM:   7    -0.696777683746E+03    0.60093E-02   -0.22411E-03 14101   0.902E-02    0.528E-01
RMM:   8    -0.696776947808E+03    0.73594E-03   -0.12789E-03 13685   0.633E-02    0.337E-01
RMM:   9    -0.696776629781E+03    0.31803E-03   -0.45422E-04 11939   0.383E-02    0.210E-01
RMM:  10    -0.696776511801E+03    0.11798E-03   -0.14805E-04  9222   0.222E-02    0.137E-01
RMM:  11    -0.696776469678E+03    0.42123E-04   -0.49836E-05  8434   0.136E-02
  14 F= -.69677647E+03 E0= -.69620141E+03  d E =-.159975E-01  mag=     2.5963
       N       E                     dE             d eps       ncg     rms          rms(c)
DAV:   1    -0.696781011015E+03   -0.44992E-02   -0.16851E-01 15248   0.538E-01    0.141E-01
RMM:   2    -0.696781765511E+03   -0.75450E-03   -0.35200E-03 14232   0.912E-02    0.314E-01
RMM:   3    -0.696781705666E+03    0.59845E-04   -0.57961E-04 11816   0.409E-02    0.269E-01
RMM:   4    -0.696781444607E+03    0.26106E-03   -0.18085E-04  9137   0.233E-02    0.154E-01
RMM:   5    -0.696781508448E+03   -0.63840E-04   -0.10354E-04  8530   0.195E-02    0.151E-01
RMM:   6    -0.696781466525E+03    0.41923E-04   -0.85073E-05  8441   0.178E-02    0.127E-01
RMM:   7    -0.696781432846E+03    0.33679E-04   -0.44670E-05  8235   0.130E-02    0.648E-02
RMM:   8    -0.696781419086E+03    0.13760E-04   -0.25659E-05  7475   0.961E-03
  15 F= -.69678142E+03 E0= -.69620647E+03  d E =-.209469E-01  mag=     2.5955
       N       E                     dE             d eps       ncg     rms          rms(c)
DAV:   1    -0.696781819187E+03   -0.38634E-03   -0.55562E-01 15312   0.975E-01    0.231E-01
RMM:   2    -0.696783241656E+03   -0.14225E-02   -0.11224E-02 14739   0.162E-01    0.465E-01
RMM:   3    -0.696782700493E+03    0.54116E-03   -0.16950E-03 13861   0.688E-02    0.180E-01
RMM:   4    -0.696783211110E+03   -0.51062E-03   -0.49864E-04 11721   0.346E-02    0.338E-01
RMM:   5    -0.696784131782E+03   -0.92067E-03   -0.29037E-04 10638   0.282E-02    0.499E-01
RMM:   6    -0.696782917100E+03    0.12147E-02   -0.21662E-04  9666   0.276E-02    0.238E-01
RMM:   7    -0.696782651798E+03    0.26530E-03   -0.11295E-04  8526   0.212E-02    0.108E-01
RMM:   8    -0.696782597871E+03    0.53927E-04   -0.52959E-05  8203   0.144E-02
  16 F= -.69678260E+03 E0= -.69620771E+03  d E =-.221257E-01  mag=     2.5934
       N       E                     dE             d eps       ncg     rms          rms(c)
DAV:   1    -0.696783641950E+03   -0.99015E-03   -0.16079E-01 15344   0.524E-01    0.139E-01
RMM:   2    -0.696784352587E+03   -0.71064E-03   -0.34449E-03 14219   0.905E-02    0.359E-01
RMM:   3    -0.696784117195E+03    0.23539E-03   -0.51234E-04 11475   0.417E-02    0.227E-01
RMM:   4    -0.696784102746E+03    0.14449E-04   -0.19487E-04  9016   0.231E-02    0.223E-01
RMM:   5    -0.696783873224E+03    0.22952E-03   -0.81416E-05  8217   0.180E-02    0.998E-02
RMM:   6    -0.696783892308E+03   -0.19084E-04   -0.68652E-05  8083   0.149E-02    0.115E-01
RMM:   7    -0.696783857974E+03    0.34334E-04   -0.38079E-05  7839   0.125E-02    0.628E-02
RMM:   8    -0.696783850114E+03    0.78597E-05   -0.19315E-05  7044   0.829E-03
  17 F= -.69678385E+03 E0= -.69620902E+03  d E =-.233780E-01  mag=     2.5916
       N       E                     dE             d eps       ncg     rms          rms(c)
DAV:   1    -0.696810698444E+03   -0.26840E-01   -0.31070E+00 15296   0.248E+00    0.428E-01
RMM:   2    -0.696824559003E+03   -0.13861E-01   -0.62654E-02 14848   0.422E-01    0.127E+00
RMM:   3    -0.696818493729E+03    0.60653E-02   -0.12475E-02 16256   0.174E-01    0.544E-01
RMM:   4    -0.696825628500E+03   -0.71348E-02   -0.32321E-03 14534   0.894E-02    0.128E+00
RMM:   5    -0.696821462718E+03    0.41658E-02   -0.94808E-04 13712   0.611E-02    0.885E-01
RMM:   6    -0.696817241350E+03    0.42214E-02   -0.56387E-04 13078   0.435E-02    0.449E-01
RMM:   7    -0.696816756730E+03    0.48462E-03   -0.55104E-04 12786   0.401E-02    0.268E-01
RMM:   8    -0.696816728936E+03    0.27795E-04   -0.27750E-04 10554   0.287E-02
  18 F= -.69681673E+03 E0= -.69624196E+03  d E =-.328788E-01  mag=     2.5903
       N       E                     dE             d eps       ncg     rms          rms(c)
DAV:   1    -0.696821911487E+03   -0.51548E-02   -0.23146E-01 15360   0.679E-01    0.156E-01
RMM:   2    -0.696828163972E+03   -0.62525E-02   -0.51362E-03 14716   0.118E-01    0.997E-01
RMM:   3    -0.696822598851E+03    0.55651E-02   -0.10322E-03 13681   0.598E-02    0.301E-01
RMM:   4    -0.696822483028E+03    0.11582E-03   -0.30692E-04 10333   0.333E-02    0.235E-01
RMM:   5    -0.696822412089E+03    0.70938E-04   -0.11352E-04  8363   0.214E-02    0.171E-01
RMM:   6    -0.696822256073E+03    0.15602E-03   -0.55061E-05  7972   0.143E-02    0.874E-02
RMM:   7    -0.696822293809E+03   -0.37736E-04   -0.40015E-05  7795   0.110E-02    0.767E-02
RMM:   8    -0.696822289533E+03    0.42761E-05   -0.31833E-05  7747   0.103E-02
  19 F= -.69682229E+03 E0= -.69624750E+03  d E =-.384394E-01  mag=     2.5893
       N       E                     dE             d eps       ncg     rms          rms(c)
DAV:   1    -0.696861855600E+03   -0.39562E-01   -0.16003E+00 15104   0.169E+00    0.385E-01
RMM:   2    -0.696871068264E+03   -0.92127E-02   -0.36047E-02 14848   0.300E-01    0.108E+00
RMM:   3    -0.696867037600E+03    0.40307E-02   -0.61991E-03 15827   0.131E-01    0.682E-01
RMM:   4    -0.696868668106E+03   -0.16305E-02   -0.18407E-03 14442   0.681E-02    0.893E-01
RMM:   5    -0.696865885501E+03    0.27826E-02   -0.10146E-03 13658   0.559E-02    0.569E-01
RMM:   6    -0.696864188230E+03    0.16973E-02   -0.52420E-04 12822   0.431E-02    0.291E-01
RMM:   7    -0.696864059819E+03    0.12841E-03   -0.36902E-04 11146   0.317E-02    0.140E-01
RMM:   8    -0.696863967615E+03    0.92204E-04   -0.33456E-04 10548   0.271E-02
  20 F= -.69686397E+03 E0= -.69628911E+03  d E =-.416781E-01  mag=     2.5874
       N       E                     dE             d eps       ncg     rms          rms(c)
DAV:   1    -0.696867005596E+03   -0.29458E-02   -0.20263E-01 15344   0.600E-01    0.159E-01
RMM:   2    -0.696869841603E+03   -0.28360E-02   -0.49417E-03 14530   0.110E-01    0.615E-01
RMM:   3    -0.696868173217E+03    0.16684E-02   -0.89255E-04 13623   0.522E-02    0.418E-01
RMM:   4    -0.696867317729E+03    0.85549E-03   -0.27730E-04 10091   0.305E-02    0.109E-01
RMM:   5    -0.696867497979E+03   -0.18025E-03   -0.15874E-04  8900   0.231E-02    0.204E-01
RMM:   6    -0.696867273550E+03    0.22443E-03   -0.60026E-05  8375   0.168E-02    0.891E-02
RMM:   7    -0.696867250609E+03    0.22941E-04   -0.46329E-05  8150   0.116E-02    0.638E-02
RMM:   8    -0.696867237851E+03    0.12758E-04   -0.25847E-05  7536   0.983E-03
  21 F= -.69686724E+03 E0= -.69629234E+03  d E =-.449483E-01  mag=     2.5849
       N       E                     dE             d eps       ncg     rms          rms(c)
DAV:   1    -0.696879035881E+03   -0.11785E-01   -0.69729E-01 15136   0.105E+00    0.324E-01
RMM:   2    -0.696885201987E+03   -0.61661E-02   -0.16667E-02 14836   0.184E-01    0.934E-01
RMM:   3    -0.696882513383E+03    0.26886E-02   -0.25332E-03 14683   0.821E-02    0.712E-01
RMM:   4    -0.696880895454E+03    0.16179E-02   -0.87058E-04 13478   0.496E-02    0.445E-01
RMM:   5    -0.696880836199E+03    0.59255E-04   -0.72694E-04 13196   0.437E-02    0.436E-01
RMM:   6    -0.696879878942E+03    0.95726E-03   -0.29396E-04 10690   0.342E-02    0.206E-01
RMM:   7    -0.696879859323E+03    0.19619E-04   -0.20966E-04  9402   0.243E-02    0.136E-01
RMM:   8    -0.696879800092E+03    0.59231E-04   -0.14750E-04  8730   0.194E-02
  22 F= -.69687980E+03 E0= -.69630486E+03  d E =-.125622E-01  mag=     2.5828
       N       E                     dE             d eps       ncg     rms          rms(c)
DAV:   1    -0.696880667711E+03   -0.80839E-03   -0.26033E-02 15376   0.204E-01    0.889E-02
RMM:   2    -0.696882388469E+03   -0.17208E-02   -0.73691E-04 12603   0.425E-02    0.508E-01
RMM:   3    -0.696881000809E+03    0.13877E-02   -0.20372E-04  9024   0.281E-02    0.243E-01
RMM:   4    -0.696880702634E+03    0.29817E-03   -0.68505E-05  8087   0.177E-02    0.405E-02
RMM:   5    -0.696880752335E+03   -0.49701E-04   -0.31164E-05  7504   0.103E-02    0.781E-02
RMM:   6    -0.696880729725E+03    0.22610E-04   -0.14622E-05  7107   0.826E-03    0.396E-02
RMM:   7    -0.696880746751E+03   -0.17025E-04   -0.72679E-06  6181   0.503E-03    0.305E-02
RMM:   8    -0.696880772125E+03   -0.25374E-04   -0.78245E-06  6421   0.489E-03
  23 F= -.69688077E+03 E0= -.69630577E+03  d E =-.135343E-01  mag=     2.5809
       N       E                     dE             d eps       ncg     rms          rms(c)
DAV:   1    -0.696896494936E+03   -0.15748E-01   -0.19558E-01 15360   0.634E-01    0.137E-01
RMM:   2    -0.696897270231E+03   -0.77529E-03   -0.45658E-03 14468   0.113E-01    0.296E-01
RMM:   3    -0.696897437011E+03   -0.16678E-03   -0.76524E-04 12868   0.471E-02    0.280E-01
RMM:   4    -0.696897242478E+03    0.19453E-03   -0.24370E-04  9264   0.271E-02    0.244E-01
RMM:   5    -0.696897176666E+03    0.65812E-04   -0.10086E-04  8513   0.197E-02    0.173E-01
RMM:   6    -0.696897062770E+03    0.11390E-03   -0.60165E-05  8277   0.149E-02    0.111E-01
RMM:   7    -0.696897073528E+03   -0.10758E-04   -0.43102E-05  8146   0.128E-02    0.651E-02
RMM:   8    -0.696897084650E+03   -0.11122E-04   -0.20417E-05  7396   0.916E-03
  24 F= -.69689708E+03 E0= -.69632214E+03  d E =-.163125E-01  mag=     2.5801
       N       E                     dE             d eps       ncg     rms          rms(c)
DAV:   1    -0.696900169946E+03   -0.30964E-02   -0.10869E-01 15344   0.473E-01    0.103E-01
RMM:   2    -0.696900729606E+03   -0.55966E-03   -0.25565E-03 13940   0.843E-02    0.270E-01
RMM:   3    -0.696900529475E+03    0.20013E-03   -0.43602E-04 10943   0.353E-02    0.158E-01
RMM:   4    -0.696900595927E+03   -0.66452E-04   -0.13166E-04  8572   0.212E-02    0.197E-01
RMM:   5    -0.696900530628E+03    0.65299E-04   -0.55420E-05  8279   0.147E-02    0.145E-01
RMM:   6    -0.696900433281E+03    0.97347E-04   -0.38186E-05  8173   0.118E-02    0.837E-02
RMM:   7    -0.696900424583E+03    0.86984E-05   -0.20869E-05  7528   0.921E-03    0.537E-02
RMM:   8    -0.696900413709E+03    0.10874E-04   -0.12823E-05  6962   0.687E-03
  25 F= -.69690041E+03 E0= -.69632545E+03  d E =-.196416E-01  mag=     2.5805
       N       E                     dE             d eps       ncg     rms          rms(c)
DAV:   1    -0.696908890051E+03   -0.84655E-02   -0.18168E-01 15296   0.592E-01    0.154E-01
RMM:   2    -0.696909462456E+03   -0.57240E-03   -0.44276E-03 14694   0.111E-01    0.252E-01
RMM:   3    -0.696909516339E+03   -0.53883E-04   -0.70893E-04 12453   0.455E-02    0.256E-01
RMM:   4    -0.696909322263E+03    0.19408E-03   -0.22325E-04  9105   0.251E-02    0.168E-01
RMM:   5    -0.696909423020E+03   -0.10076E-03   -0.12192E-04  8548   0.208E-02    0.204E-01
RMM:   6    -0.696909302039E+03    0.12098E-03   -0.92043E-05  8342   0.193E-02    0.142E-01
RMM:   7    -0.696909174491E+03    0.12755E-03   -0.51922E-05  8193   0.146E-02    0.862E-02
RMM:   8    -0.696909130587E+03    0.43905E-04   -0.28650E-05  7464   0.101E-02
  26 F= -.69690913E+03 E0= -.69633417E+03  d E =-.871688E-02  mag=     2.5821
       N       E                     dE             d eps       ncg     rms          rms(c)
DAV:   1    -0.696910237509E+03   -0.10630E-02   -0.57709E-02 15504   0.334E-01    0.964E-02
RMM:   2    -0.696910968987E+03   -0.73148E-03   -0.14915E-03 13758   0.643E-02    0.317E-01
RMM:   3    -0.696910447572E+03    0.52142E-03   -0.26844E-04  9345   0.292E-02    0.190E-01
RMM:   4    -0.696910312806E+03    0.13477E-03   -0.77799E-05  8289   0.186E-02    0.777E-02
RMM:   5    -0.696910319475E+03   -0.66691E-05   -0.33188E-05  7864   0.108E-02    0.883E-02
RMM:   6    -0.696910315036E+03    0.44386E-05   -0.36923E-05  7809   0.109E-02    0.976E-02
RMM:   7    -0.696910220609E+03    0.94427E-04   -0.20619E-05  7345   0.917E-03    0.471E-02
RMM:   8    -0.696910205976E+03    0.14633E-04   -0.79175E-06  6611   0.565E-03
  27 F= -.69691021E+03 E0= -.69633521E+03  d E =-.979227E-02  mag=     2.5846
       N       E                     dE             d eps       ncg     rms          rms(c)
DAV:   1    -0.696918692410E+03   -0.84718E-02   -0.14976E-01 15232   0.506E-01    0.151E-01
RMM:   2    -0.696920003173E+03   -0.13108E-02   -0.33598E-03 14306   0.914E-02    0.446E-01
RMM:   3    -0.696919083808E+03    0.91936E-03   -0.58401E-04 11325   0.396E-02    0.227E-01
RMM:   4    -0.696918932674E+03    0.15113E-03   -0.16995E-04  8786   0.232E-02    0.136E-01
RMM:   5    -0.696919001603E+03   -0.68929E-04   -0.64354E-05  8288   0.151E-02    0.155E-01
RMM:   6    -0.696919151163E+03   -0.14956E-03   -0.12587E-04  8587   0.194E-02    0.234E-01
RMM:   7    -0.696918763343E+03    0.38782E-03   -0.69829E-05  8155   0.186E-02    0.765E-02
RMM:   8    -0.696918704866E+03    0.58476E-04   -0.28943E-05  7507   0.965E-03
  28 F= -.69691870E+03 E0= -.69634370E+03  d E =-.849889E-02  mag=     2.5882
       N       E                     dE             d eps       ncg     rms          rms(c)
DAV:   1    -0.696919646595E+03   -0.88325E-03   -0.28437E-02 15360   0.221E-01    0.744E-02
RMM:   2    -0.696920517986E+03   -0.87139E-03   -0.72297E-04 11438   0.425E-02    0.367E-01
RMM:   3    -0.696919703764E+03    0.81422E-03   -0.14882E-04  8458   0.233E-02    0.125E-01
RMM:   4    -0.696919662711E+03    0.41053E-04   -0.39887E-05  8113   0.134E-02    0.719E-02
RMM:   5    -0.696919645201E+03    0.17510E-04   -0.11441E-05  6875   0.672E-03    0.551E-02
RMM:   6    -0.696919645623E+03   -0.42179E-06   -0.20923E-05  7304   0.782E-03    0.982E-02
RMM:   7    -0.696919568904E+03    0.76719E-04   -0.15155E-05  6971   0.832E-03    0.463E-02
RMM:   8    -0.696919543793E+03    0.25110E-04   -0.73015E-06  6417   0.528E-03
  29 F= -.69691954E+03 E0= -.69634447E+03  d E =-.933782E-02  mag=     2.5924
       N       E                     dE             d eps       ncg     rms          rms(c)
DAV:   1    -0.696924253705E+03   -0.46848E-02   -0.91136E-02 15360   0.430E-01    0.721E-02
RMM:   2    -0.696925666922E+03   -0.14132E-02   -0.17242E-03 13483   0.674E-02    0.456E-01
RMM:   3    -0.696924418904E+03    0.12480E-02   -0.27617E-04  9600   0.313E-02    0.839E-02
RMM:   4    -0.696924448766E+03   -0.29862E-04   -0.67625E-05  8155   0.172E-02    0.928E-02
RMM:   5    -0.696924457164E+03   -0.83980E-05   -0.25298E-05  7659   0.103E-02    0.919E-02
RMM:   6    -0.696924444066E+03    0.13098E-04   -0.15487E-05  7204   0.736E-03    0.800E-02
RMM:   7    -0.696924447526E+03   -0.34597E-05   -0.12076E-05  6940   0.658E-03    0.654E-02
RMM:   8    -0.696924426680E+03    0.20846E-04   -0.67682E-06  6390   0.498E-03
  30 F= -.69692443E+03 E0= -.69634932E+03  d E =-.488289E-02  mag=     2.5968
       N       E                     dE             d eps       ncg     rms          rms(c)
DAV:   1    -0.696924440146E+03    0.73797E-05   -0.38343E-04 14896   0.291E-02    0.138E-02
RMM:   2    -0.696924507904E+03   -0.67758E-04   -0.17625E-05  7498   0.666E-03    0.943E-02
RMM:   3    -0.696924454151E+03    0.53753E-04   -0.58056E-06  6613   0.542E-03    0.322E-02
RMM:   4    -0.696924455558E+03   -0.14073E-05   -0.81737E-07  3336   0.302E-03    0.119E-02
RMM:   5    -0.696924463580E+03   -0.80220E-05   -0.84558E-08  1474   0.253E-03    0.793E-03
RMM:   6    -0.696924472476E+03   -0.88961E-05   -0.11013E-08  1194   0.246E-03    0.630E-03
RMM:   7    -0.696924490806E+03   -0.18330E-04   -0.93140E-08  1370   0.253E-03    0.726E-03
RMM:   8    -0.696924508752E+03   -0.17947E-04   -0.10277E-07  1364   0.258E-03
  31 F= -.69692451E+03 E0= -.69634934E+03  d E =-.496496E-02  mag=     2.6014
       N       E                     dE             d eps       ncg     rms          rms(c)
DAV:   1    -0.696926511991E+03   -0.20212E-02   -0.24676E-02 15328   0.209E-01    0.542E-02
RMM:   2    -0.696926760163E+03   -0.24817E-03   -0.51750E-04  9675   0.357E-02    0.189E-01
RMM:   3    -0.696926654471E+03    0.10569E-03   -0.83102E-05  8090   0.162E-02    0.111E-01
RMM:   4    -0.696926674802E+03   -0.20331E-04   -0.34689E-05  7420   0.101E-02    0.110E-01
RMM:   5    -0.696926656357E+03    0.18445E-04   -0.12390E-05  6724   0.729E-03    0.391E-02
RMM:   6    -0.696926701054E+03   -0.44697E-04   -0.43975E-06  5706   0.445E-03    0.501E-02
RMM:   7    -0.696926772315E+03   -0.71261E-04   -0.31741E-06  4975   0.381E-03    0.694E-02
RMM:   8    -0.696926783022E+03   -0.10707E-04   -0.18045E-06  4374   0.361E-03
  32 F= -.69692678E+03 E0= -.69635162E+03  d E =-.227427E-02  mag=     2.6050
       N       E                     dE             d eps       ncg     rms          rms(c)
DAV:   1    -0.696927044651E+03   -0.27234E-03   -0.57872E-03 14960   0.101E-01    0.403E-02
RMM:   2    -0.696927102024E+03   -0.57373E-04   -0.13376E-04  8091   0.180E-02    0.616E-02
RMM:   3    -0.696927102526E+03   -0.50252E-06   -0.20585E-05  7535   0.920E-03    0.453E-02
RMM:   4    -0.696927114390E+03   -0.11864E-04   -0.55170E-06  5589   0.437E-03    0.468E-02
RMM:   5    -0.696927169677E+03   -0.55287E-04   -0.90890E-06  6604   0.532E-03    0.774E-02
RMM:   6    -0.696927175180E+03   -0.55034E-05   -0.69290E-06  6577   0.576E-03    0.379E-02
RMM:   7    -0.696927191799E+03   -0.16618E-04   -0.17878E-06  4528   0.353E-03    0.150E-02
RMM:   8    -0.696927224725E+03   -0.32926E-04   -0.13210E-07  1735   0.254E-03
  33 F= -.69692722E+03 E0= -.69635203E+03  d E =-.271597E-02  mag=     2.6078
       N       E                     dE             d eps       ncg     rms          rms(c)
DAV:   1    -0.696928516177E+03   -0.13244E-02   -0.98257E-03 15360   0.140E-01    0.319E-02
RMM:   2    -0.696929085243E+03   -0.56907E-03   -0.24377E-04  8574   0.279E-02    0.292E-01
RMM:   3    -0.696928596087E+03    0.48916E-03   -0.46170E-05  7976   0.159E-02    0.887E-02
RMM:   4    -0.696928589824E+03    0.62636E-05   -0.18637E-05  7270   0.764E-03    0.848E-02
RMM:   5    -0.696928586030E+03    0.37932E-05   -0.67539E-06  6521   0.576E-03    0.573E-02
RMM:   6    -0.696928590985E+03   -0.49546E-05   -0.19467E-06  4593   0.356E-03    0.422E-02
RMM:   7    -0.696928604089E+03   -0.13104E-04   -0.16300E-06  4190   0.335E-03    0.324E-02
RMM:   8    -0.696928617969E+03   -0.13880E-04   -0.82093E-07  3145   0.315E-03
  34 F= -.69692862E+03 E0= -.69635345E+03  d E =-.139324E-02  mag=     2.6102
       N       E                     dE             d eps       ncg     rms          rms(c)
DAV:   1    -0.696929474782E+03   -0.87069E-03   -0.30222E-02 15360   0.245E-01    0.564E-02
RMM:   2    -0.696929946335E+03   -0.47155E-03   -0.66188E-04 12720   0.471E-02    0.265E-01
RMM:   3    -0.696929587087E+03    0.35925E-03   -0.12311E-04  8256   0.206E-02    0.981E-02
RMM:   4    -0.696929737337E+03   -0.15025E-03   -0.61684E-05  8044   0.151E-02    0.195E-01
RMM:   5    -0.696929604185E+03    0.13315E-03   -0.22747E-05  7548   0.980E-03    0.114E-01
RMM:   6    -0.696929571445E+03    0.32740E-04   -0.11355E-05  7164   0.657E-03    0.733E-02
RMM:   7    -0.696929565650E+03    0.57957E-05   -0.56814E-06  6530   0.523E-03    0.493E-02
RMM:   8    -0.696929569013E+03   -0.33636E-05   -0.25145E-06  4571   0.352E-03
  35 F= -.69692957E+03 E0= -.69635444E+03  d E =-.234429E-02  mag=     2.6123
       N       E                     dE             d eps       ncg     rms          rms(c)
DAV:   1    -0.696930352602E+03   -0.78695E-03   -0.19037E-03 15136   0.565E-02    0.383E-02
RMM:   2    -0.696930922748E+03   -0.57015E-03   -0.78925E-05  8085   0.143E-02    0.292E-01
RMM:   3    -0.696930417990E+03    0.50476E-03   -0.55818E-05  7927   0.154E-02    0.110E-01
RMM:   4    -0.696930402982E+03    0.15009E-04   -0.13041E-05  7268   0.830E-03    0.768E-02
RMM:   5    -0.696930378816E+03    0.24165E-04   -0.26381E-06  5808   0.413E-03    0.437E-02
RMM:   6    -0.696930377664E+03    0.11516E-05   -0.54775E-07  2996   0.294E-03    0.196E-02
RMM:   7    -0.696930386633E+03   -0.89689E-05   -0.18383E-07  1878   0.279E-03    0.117E-02
RMM:   8    -0.696930392630E+03   -0.59970E-05   -0.93427E-08  1633   0.266E-03
  36 F= -.69693039E+03 E0= -.69635524E+03  d E =-.823617E-03  mag=     2.6144
       N       E                     dE             d eps       ncg     rms          rms(c)
DAV:   1    -0.696932469547E+03   -0.20829E-02   -0.17053E-02 15360   0.169E-01    0.475E-02
RMM:   2    -0.696932959972E+03   -0.49043E-03   -0.33095E-04 10103   0.347E-02    0.278E-01
RMM:   3    -0.696932564366E+03    0.39561E-03   -0.65688E-05  8002   0.176E-02    0.113E-01
RMM:   4    -0.696932574123E+03   -0.97576E-05   -0.32719E-05  7695   0.104E-02    0.124E-01
RMM:   5    -0.696932535329E+03    0.38794E-04   -0.15515E-05  7288   0.816E-03    0.718E-02
RMM:   6    -0.696932542342E+03   -0.70132E-05   -0.95130E-06  7360   0.623E-03    0.658E-02
RMM:   7    -0.696932538818E+03    0.35240E-05   -0.43095E-06  6348   0.467E-03    0.464E-02
RMM:   8    -0.696932537798E+03    0.10207E-05   -0.11413E-06  3387   0.304E-03
  37 F= -.69693254E+03 E0= -.69635742E+03  d E =-.296878E-02  mag=     2.6164
       N       E                     dE             d eps       ncg     rms          rms(c)
DAV:   1    -0.696934959939E+03   -0.24211E-02   -0.68268E-02 15344   0.337E-01    0.988E-02
RMM:   2    -0.696935742937E+03   -0.78300E-03   -0.12332E-03 14672   0.685E-02    0.351E-01
RMM:   3    -0.696935168575E+03    0.57436E-03   -0.30182E-04 10092   0.290E-02    0.171E-01
RMM:   4    -0.696935658896E+03   -0.49032E-03   -0.11473E-04  8379   0.208E-02    0.330E-01
RMM:   5    -0.696935254150E+03    0.40475E-03   -0.61311E-05  8083   0.156E-02    0.203E-01
RMM:   6    -0.696935179435E+03    0.74716E-04   -0.50711E-05  7996   0.130E-02    0.136E-01
RMM:   7    -0.696935096019E+03    0.83416E-04   -0.30539E-05  7942   0.114E-02    0.603E-02
RMM:   8    -0.696935081805E+03    0.14214E-04   -0.12301E-05  6979   0.697E-03
  38 F= -.69693508E+03 E0= -.69635998E+03  d E =-.551279E-02  mag=     2.6182
       N       E                     dE             d eps       ncg     rms          rms(c)
DAV:   1    -0.696937109330E+03   -0.20133E-02   -0.13642E-02 15296   0.156E-01    0.492E-02
RMM:   2    -0.696937385869E+03   -0.27654E-03   -0.30577E-04  9019   0.304E-02    0.197E-01
RMM:   3    -0.696937198381E+03    0.18749E-03   -0.71859E-05  8038   0.168E-02    0.107E-01
RMM:   4    -0.696937163506E+03    0.34875E-04   -0.18256E-05  7497   0.908E-03    0.562E-02
RMM:   5    -0.696937163172E+03    0.33434E-06   -0.62439E-06  6631   0.521E-03    0.424E-02
RMM:   6    -0.696937186685E+03   -0.23514E-04   -0.84820E-06  6688   0.554E-03    0.561E-02
RMM:   7    -0.696937191145E+03   -0.44593E-05   -0.71039E-06  6738   0.574E-03    0.264E-02
RMM:   8    -0.696937193161E+03   -0.20167E-05   -0.16828E-06  4483   0.349E-03
  39 F= -.69693719E+03 E0= -.69636207E+03  d E =-.211136E-02  mag=     2.6201
       N       E                     dE             d eps       ncg     rms          rms(c)
DAV:   1    -0.696938110109E+03   -0.91896E-03   -0.22012E-02 15328   0.197E-01    0.657E-02
RMM:   2    -0.696938232414E+03   -0.12230E-03   -0.46112E-04 10186   0.375E-02    0.124E-01
RMM:   3    -0.696938282887E+03   -0.50474E-04   -0.96644E-05  8121   0.182E-02    0.146E-01
RMM:   4    -0.696938183626E+03    0.99261E-04   -0.24239E-05  7762   0.104E-02    0.511E-02
RMM:   5    -0.696938233066E+03   -0.49440E-04   -0.17527E-05  7424   0.723E-03    0.840E-02
RMM:   6    -0.696938246093E+03   -0.13027E-04   -0.20242E-05  7378   0.881E-03    0.635E-02
RMM:   7    -0.696938244124E+03    0.19694E-05   -0.94867E-06  6946   0.676E-03    0.349E-02
RMM:   8    -0.696938249310E+03   -0.51865E-05   -0.28132E-06  5051   0.381E-03
  40 F= -.69693825E+03 E0= -.69636313E+03  d E =-.316751E-02  mag=     2.6215
       N       E                     dE             d eps       ncg     rms          rms(c)
DAV:   1    -0.696938964449E+03   -0.72033E-03   -0.57780E-03 15504   0.113E-01    0.318E-02
RMM:   2    -0.696939606334E+03   -0.64189E-03   -0.16313E-04  8117   0.250E-02    0.314E-01
RMM:   3    -0.696938962565E+03    0.64377E-03   -0.44801E-05  7944   0.155E-02    0.381E-02
RMM:   4    -0.696938994444E+03   -0.31879E-04   -0.11047E-05  7100   0.715E-03    0.323E-02
RMM:   5    -0.696939005377E+03   -0.10933E-04   -0.37564E-06  6304   0.459E-03    0.326E-02
RMM:   6    -0.696939015787E+03   -0.10410E-04   -0.23915E-06  4971   0.378E-03    0.269E-02
RMM:   7    -0.696939029121E+03   -0.13334E-04   -0.18923E-06  4762   0.348E-03    0.192E-02
RMM:   8    -0.696939035601E+03   -0.64799E-05   -0.65514E-07  3014   0.306E-03
  41 F= -.69693904E+03 E0= -.69636388E+03  d E =-.786291E-03  mag=     2.6226
       N       E                     dE             d eps       ncg     rms          rms(c)
DAV:   1    -0.696939498722E+03   -0.46960E-03   -0.17470E-02 15360   0.196E-01    0.428E-02
RMM:   2    -0.696939831114E+03   -0.33239E-03   -0.37727E-04 11242   0.413E-02    0.224E-01
RMM:   3    -0.696939538493E+03    0.29262E-03   -0.74995E-05  8053   0.183E-02    0.582E-02
RMM:   4    -0.696939561017E+03   -0.22524E-04   -0.21450E-05  7895   0.101E-02    0.575E-02
RMM:   5    -0.696939569874E+03   -0.88567E-05   -0.92258E-06  6884   0.636E-03    0.476E-02
RMM:   6    -0.696939574347E+03   -0.44732E-05   -0.57859E-06  6686   0.503E-03    0.400E-02
RMM:   7    -0.696939584631E+03   -0.10284E-04   -0.26872E-06  5483   0.399E-03    0.346E-02
RMM:   8    -0.696939581147E+03    0.34836E-05   -0.28173E-07  2492   0.280E-03
  42 F= -.69693958E+03 E0= -.69636441E+03  d E =-.133184E-02  mag=     2.6235
       N       E                     dE             d eps       ncg     rms          rms(c)
DAV:   1    -0.696939814745E+03   -0.23011E-03   -0.34777E-03 15120   0.875E-02    0.152E-02
RMM:   2    -0.696939849799E+03   -0.35053E-04   -0.74429E-05  7883   0.177E-02    0.635E-02
RMM:   3    -0.696939830964E+03    0.18835E-04   -0.12906E-05  7769   0.825E-03    0.202E-02
RMM:   4    -0.696939842125E+03   -0.11161E-04   -0.37112E-06  6276   0.416E-03    0.435E-02
RMM:   5    -0.696939838418E+03    0.37068E-05   -0.81302E-07  3513   0.319E-03    0.209E-02
RMM:   6    -0.696939840367E+03   -0.19495E-05   -0.10602E-07  1954   0.281E-03    0.985E-03
RMM:   7    -0.696939845836E+03   -0.54684E-05   -0.22667E-07  1983   0.284E-03    0.115E-02
RMM:   8    -0.696939850945E+03   -0.51087E-05   -0.30025E-07  1841   0.283E-03
  43 F= -.69693985E+03 E0= -.69636468E+03  d E =-.269797E-03  mag=     2.6242
       N       E                     dE             d eps       ncg     rms          rms(c)
DAV:   1    -0.696939881671E+03   -0.35835E-04   -0.73003E-04 14976   0.401E-02    0.938E-03
RMM:   2    -0.696939907431E+03   -0.25759E-04   -0.18472E-05  7855   0.848E-03    0.536E-02
RMM:   3    -0.696939889563E+03    0.17868E-04   -0.39424E-06  7056   0.484E-03    0.219E-02
RMM:   4    -0.696939889390E+03    0.17300E-06   -0.64405E-08  1803   0.243E-03    0.125E-02
RMM:   5    -0.696939892833E+03   -0.34430E-05   -0.50151E-09  1228   0.237E-03    0.184E-02
RMM:   6    -0.696939895469E+03   -0.26364E-05   -0.10850E-08  1184   0.244E-03    0.149E-02
RMM:   7    -0.696939899290E+03   -0.38204E-05   -0.13659E-08  1126   0.250E-03    0.563E-03
RMM:   8    -0.696939902398E+03   -0.31085E-05   -0.35418E-09  1072   0.244E-03
  44 F= -.69693990E+03 E0= -.69636472E+03  d E =-.321251E-03  mag=     2.6246
       N       E                     dE             d eps       ncg     rms          rms(c)
DAV:   1    -0.696940040413E+03   -0.14112E-03   -0.11369E-03 15024   0.460E-02    0.121E-02
RMM:   2    -0.696940047055E+03   -0.66418E-05   -0.23497E-05  7736   0.962E-03    0.271E-02
RMM:   3    -0.696940047599E+03   -0.54394E-06   -0.42566E-06  6618   0.487E-03    0.164E-02
RMM:   4    -0.696940049378E+03   -0.17788E-05   -0.24981E-07  2025   0.270E-03    0.209E-02
RMM:   5    -0.696940050473E+03   -0.10946E-05   -0.12434E-07  1850   0.264E-03    0.855E-03
RMM:   6    -0.696940053642E+03   -0.31689E-05   -0.28930E-08  1328   0.265E-03    0.816E-03
RMM:   7    -0.696940056302E+03   -0.26609E-05   -0.34459E-08  1261   0.264E-03    0.582E-03
RMM:   8    -0.696940058764E+03   -0.24611E-05   -0.30494E-08  1116   0.269E-03
  45 F= -.69694006E+03 E0= -.69636487E+03  d E =-.156365E-03  mag=     2.6250
       N       E                     dE             d eps       ncg     rms          rms(c)
DAV:   1    -0.696940189093E+03   -0.13279E-03   -0.50963E-03 15424   0.974E-02    0.245E-02
RMM:   2    -0.696940227422E+03   -0.38329E-04   -0.10460E-04  8038   0.200E-02    0.719E-02
RMM:   3    -0.696940212130E+03    0.15293E-04   -0.21344E-05  7835   0.102E-02    0.509E-02
RMM:   4    -0.696940203779E+03    0.83507E-05   -0.63176E-06  6631   0.531E-03    0.269E-02
RMM:   5    -0.696940206700E+03   -0.29204E-05   -0.26997E-06  5377   0.381E-03    0.249E-02
RMM:   6    -0.696940207486E+03   -0.78656E-06   -0.13835E-06  4096   0.335E-03    0.199E-02
RMM:   7    -0.696940208173E+03   -0.68717E-06   -0.57318E-07  2829   0.304E-03    0.144E-02
RMM:   8    -0.696940209599E+03   -0.14254E-05   -0.19687E-07  1900   0.290E-03
  46 F= -.69694021E+03 E0= -.69636500E+03  d E =-.307200E-03  mag=     2.6251
       N       E                     dE             d eps       ncg     rms          rms(c)
DAV:   1    -0.696940317635E+03   -0.10946E-03   -0.46089E-04 14992   0.281E-02    0.106E-02
RMM:   2    -0.696940356454E+03   -0.38819E-04   -0.13067E-05  7610   0.687E-03    0.758E-02
RMM:   3    -0.696940319311E+03    0.37142E-04   -0.42106E-06  6589   0.490E-03    0.220E-02
RMM:   4    -0.696940322670E+03   -0.33591E-05   -0.27333E-07  2499   0.273E-03    0.108E-02
RMM:   5    -0.696940323562E+03   -0.89192E-06   -0.41348E-08  1221   0.255E-03    0.605E-03
RMM:   6    -0.696940326352E+03   -0.27896E-05   -0.56407E-08  1207   0.257E-03    0.992E-03
RMM:   7    -0.696940328450E+03   -0.20981E-05   -0.50081E-10  1045   0.246E-03    0.744E-03
RMM:   8    -0.696940330216E+03   -0.17661E-05   -0.46640E-09   990   0.246E-03
  47 F= -.69694033E+03 E0= -.69636510E+03  d E =-.120618E-03  mag=     2.6252
       N       E                     dE             d eps       ncg     rms          rms(c)
DAV:   1    -0.696940593510E+03   -0.26506E-03   -0.40366E-03 15520   0.821E-02    0.245E-02
RMM:   2    -0.696940607768E+03   -0.14258E-04   -0.82091E-05  7918   0.177E-02    0.498E-02
RMM:   3    -0.696940603094E+03    0.46740E-05   -0.15828E-05  7649   0.916E-03    0.253E-02
RMM:   4    -0.696940622962E+03   -0.19868E-04   -0.57648E-06  6367   0.462E-03    0.608E-02
RMM:   5    -0.696940600234E+03    0.22728E-04   -0.33045E-06  6213   0.426E-03    0.173E-02
RMM:   6    -0.696940604185E+03   -0.39507E-05   -0.98503E-07  3353   0.318E-03    0.177E-02
RMM:   7    -0.696940604177E+03    0.81127E-08   -0.29305E-07  2454   0.288E-03    0.129E-02
RMM:   8    -0.696940604055E+03    0.12176E-06   -0.12264E-07  1444   0.282E-03
  48 F= -.69694060E+03 E0= -.69636534E+03  d E =-.394456E-03  mag=     2.6252
       N       E                     dE             d eps       ncg     rms          rms(c)
DAV:   1    -0.696940882316E+03   -0.27814E-03   -0.16102E-02 15376   0.164E-01    0.478E-02
RMM:   2    -0.696940936654E+03   -0.54338E-04   -0.31847E-04 10014   0.349E-02    0.971E-02
RMM:   3    -0.696940931335E+03    0.53188E-05   -0.65470E-05  8004   0.173E-02    0.712E-02
RMM:   4    -0.696940940255E+03   -0.89199E-05   -0.22384E-05  7685   0.958E-03    0.843E-02
RMM:   5    -0.696940907940E+03    0.32315E-04   -0.11825E-05  7491   0.712E-03    0.361E-02
RMM:   6    -0.696940912889E+03   -0.49488E-05   -0.84962E-06  7003   0.554E-03    0.398E-02
RMM:   7    -0.696940908079E+03    0.48100E-05   -0.51170E-06  6492   0.488E-03    0.268E-02
RMM:   8    -0.696940905451E+03    0.26280E-05   -0.12913E-06  3793   0.327E-03
  49 F= -.69694091E+03 E0= -.69636557E+03  d E =-.695852E-03  mag=     2.6251
       N       E                     dE             d eps       ncg     rms          rms(c)
DAV:   1    -0.696940966837E+03   -0.58758E-04   -0.64104E-02 15360   0.327E-01    0.925E-02
RMM:   2    -0.696941175006E+03   -0.20817E-03   -0.12335E-03 14424   0.692E-02    0.192E-01
RMM:   3    -0.696941074535E+03    0.10047E-03   -0.26856E-04  9890   0.295E-02    0.809E-02
RMM:   4    -0.696941449316E+03   -0.37478E-03   -0.10120E-04  8448   0.201E-02    0.253E-01
RMM:   5    -0.696941079628E+03    0.36969E-03   -0.50060E-05  8144   0.144E-02    0.106E-01
RMM:   6    -0.696941069571E+03    0.10058E-04   -0.33775E-05  8038   0.113E-02    0.717E-02
RMM:   7    -0.696941067043E+03    0.25274E-05   -0.24897E-05  7756   0.970E-03    0.578E-02
RMM:   8    -0.696941046631E+03    0.20412E-04   -0.98663E-06  6879   0.616E-03
  50 F= -.69694105E+03 E0= -.69636556E+03  d E =-.837032E-03  mag=     2.6248
       N       E                     dE             d eps       ncg     rms          rms(c)
DAV:   1    -0.696941088268E+03   -0.21225E-04   -0.79763E-05  9952   0.151E-02    0.242E-02
RMM:   2    -0.696941157208E+03   -0.68940E-04   -0.26859E-05  7515   0.115E-02    0.103E-01
RMM:   3    -0.696941141787E+03    0.15421E-04   -0.13265E-05  6941   0.745E-03    0.955E-02
RMM:   4    -0.696941087966E+03    0.53821E-04   -0.39973E-06  6137   0.478E-03    0.136E-02
RMM:   5    -0.696941095044E+03   -0.70779E-05   -0.36089E-07  2529   0.275E-03    0.106E-02
RMM:   6    -0.696941097299E+03   -0.22554E-05   -0.47837E-08  1522   0.261E-03    0.720E-03
RMM:   7    -0.696941098844E+03   -0.15450E-05   -0.32977E-08  1296   0.260E-03    0.471E-03
RMM:   8    -0.696941102805E+03   -0.39603E-05   -0.10135E-07  1432   0.264E-03
  51 F= -.69694110E+03 E0= -.69636559E+03  d E =-.561736E-04  mag=     2.6247
       N       E                     dE             d eps       ncg     rms          rms(c)
DAV:   1    -0.696941225463E+03   -0.12662E-03   -0.69430E-04 14832   0.324E-02    0.111E-02
RMM:   2    -0.696941238500E+03   -0.13037E-04   -0.14408E-05  7653   0.760E-03    0.465E-02
RMM:   3    -0.696941230515E+03    0.79856E-05   -0.31765E-06  5974   0.415E-03    0.285E-02
RMM:   4    -0.696941228035E+03    0.24800E-05   -0.19427E-07  2277   0.267E-03    0.677E-03
RMM:   5    -0.696941230064E+03   -0.20295E-05   -0.50689E-08  1442   0.259E-03    0.122E-02
RMM:   6    -0.696941229857E+03    0.20700E-06   -0.66692E-08  1445   0.269E-03    0.700E-03
RMM:   7    -0.696941230670E+03   -0.81259E-06   -0.20758E-07  1616   0.276E-03    0.661E-03
RMM:   8    -0.696941230809E+03   -0.13923E-06   -0.14689E-07  1390   0.273E-03
  52 F= -.69694123E+03 E0= -.69636569E+03  d E =-.184178E-03  mag=     2.6248
       N       E                     dE             d eps       ncg     rms          rms(c)
DAV:   1    -0.696941486560E+03   -0.25589E-03   -0.27577E-03 15472   0.645E-02    0.208E-02
RMM:   2    -0.696941529394E+03   -0.42835E-04   -0.55613E-05  7886   0.145E-02    0.806E-02
RMM:   3    -0.696941496927E+03    0.32467E-04   -0.13769E-05  7695   0.824E-03    0.494E-02
RMM:   4    -0.696941488847E+03    0.80808E-05   -0.38576E-06  6103   0.435E-03    0.129E-02
RMM:   5    -0.696941493353E+03   -0.45060E-05   -0.77284E-07  3115   0.307E-03    0.218E-02
RMM:   6    -0.696941493256E+03    0.97003E-07   -0.10892E-06  3570   0.320E-03    0.211E-02
RMM:   7    -0.696941491054E+03    0.22019E-05   -0.36000E-07  2275   0.290E-03    0.119E-02
RMM:   8    -0.696941491692E+03   -0.63801E-06   -0.22742E-07  1500   0.280E-03
  53 F= -.69694149E+03 E0= -.69636592E+03  d E =-.445061E-03  mag=     2.6249
       N       E                     dE             d eps       ncg     rms          rms(c)
DAV:   1    -0.696942083155E+03   -0.59210E-03   -0.10941E-02 15392   0.129E-01    0.395E-02
RMM:   2    -0.696942144728E+03   -0.61573E-04   -0.20924E-04  8835   0.281E-02    0.101E-01
RMM:   3    -0.696942152524E+03   -0.77957E-05   -0.47768E-05  7916   0.151E-02    0.102E-01
RMM:   4    -0.696942091480E+03    0.61044E-04   -0.15092E-05  7423   0.818E-03    0.347E-02
RMM:   5    -0.696942106598E+03   -0.15118E-04   -0.84368E-06  7075   0.570E-03    0.411E-02
RMM:   6    -0.696942100716E+03    0.58820E-05   -0.60106E-06  7074   0.492E-03    0.347E-02
RMM:   7    -0.696942096437E+03    0.42790E-05   -0.34295E-06  5867   0.416E-03    0.207E-02
RMM:   8    -0.696942097009E+03   -0.57174E-06   -0.84869E-07  3117   0.297E-03
  54 F= -.69694210E+03 E0= -.69636646E+03  d E =-.105038E-02  mag=     2.6249
       N       E                     dE             d eps       ncg     rms          rms(c)
DAV:   1    -0.696943705608E+03   -0.16092E-02   -0.43506E-02 15328   0.256E-01    0.780E-02
RMM:   2    -0.696943868458E+03   -0.16285E-03   -0.79687E-04 13776   0.556E-02    0.170E-01
RMM:   3    -0.696943870903E+03   -0.24444E-05   -0.18288E-04  8939   0.248E-02    0.143E-01
RMM:   4    -0.696943808330E+03    0.62573E-04   -0.63512E-05  8168   0.173E-02    0.113E-01
RMM:   5    -0.696943779331E+03    0.28999E-04   -0.32856E-05  7952   0.107E-02    0.741E-02
RMM:   6    -0.696943768750E+03    0.10580E-04   -0.24179E-05  7871   0.951E-03    0.638E-02
RMM:   7    -0.696943757345E+03    0.11405E-04   -0.16155E-05  7234   0.804E-03    0.426E-02
RMM:   8    -0.696943748703E+03    0.86425E-05   -0.68516E-06  6701   0.518E-03
  55 F= -.69694375E+03 E0= -.69636798E+03  d E =-.270207E-02  mag=     2.6248
       N       E                     dE             d eps       ncg     rms          rms(c)
DAV:   1    -0.696948523310E+03   -0.47660E-02   -0.17310E-01 15376   0.511E-01    0.158E-01
RMM:   2    -0.696949187701E+03   -0.66439E-03   -0.31556E-03 14789   0.111E-01    0.340E-01
RMM:   3    -0.696949229454E+03   -0.41753E-04   -0.73931E-04 13654   0.487E-02    0.292E-01
RMM:   4    -0.696948969044E+03    0.26041E-03   -0.25626E-04  9909   0.269E-02    0.218E-01
RMM:   5    -0.696948819189E+03    0.14986E-03   -0.14146E-04  8814   0.234E-02    0.156E-01
RMM:   6    -0.696948761989E+03    0.57200E-04   -0.92269E-05  8441   0.186E-02    0.111E-01
RMM:   7    -0.696948751921E+03    0.10068E-04   -0.68919E-05  8194   0.159E-02    0.983E-02
RMM:   8    -0.696948694185E+03    0.57736E-04   -0.30151E-05  7882   0.107E-02
  56 F= -.69694869E+03 E0= -.69637266E+03  d E =-.764755E-02  mag=     2.6242
       N       E                     dE             d eps       ncg     rms          rms(c)
DAV:   1    -0.696944169316E+03    0.45826E-02   -0.69546E-01 15360   0.102E+00    0.310E-01
RMM:   2    -0.696946884368E+03   -0.27151E-02   -0.12681E-02 14850   0.222E-01    0.680E-01
RMM:   3    -0.696947111705E+03   -0.22734E-03   -0.29956E-03 15639   0.977E-02    0.592E-01
RMM:   4    -0.696946064363E+03    0.10473E-02   -0.10968E-03 14522   0.521E-02    0.443E-01
RMM:   5    -0.696945327759E+03    0.73660E-03   -0.46929E-04 13003   0.383E-02    0.279E-01
RMM:   6    -0.696945242303E+03    0.85456E-04   -0.36356E-04 11908   0.338E-02    0.232E-01
RMM:   7    -0.696945143422E+03    0.98880E-04   -0.28956E-04 10321   0.299E-02    0.189E-01
RMM:   8    -0.696944933083E+03    0.21034E-03   -0.11414E-04  8623   0.203E-02    0.804E-02
RMM:   9    -0.696944957243E+03   -0.24161E-04   -0.42696E-05  8340   0.134E-02
  57 F= -.69694496E+03 E0= -.69636837E+03  d E =-.391061E-02  mag=     2.6228
       N       E                     dE             d eps       ncg     rms          rms(c)
DAV:   1    -0.696951159914E+03   -0.62268E-02   -0.25634E-01 15360   0.623E-01    0.204E-01
RMM:   2    -0.696952542989E+03   -0.13831E-02   -0.47967E-03 14834   0.136E-01    0.486E-01
RMM:   3    -0.696953030558E+03   -0.48757E-03   -0.11001E-03 14096   0.625E-02    0.498E-01
RMM:   4    -0.696951678349E+03    0.13522E-02   -0.41963E-04 11796   0.355E-02    0.202E-01
RMM:   5    -0.696951642324E+03    0.36025E-04   -0.18630E-04  9054   0.257E-02    0.141E-01
RMM:   6    -0.696951679548E+03   -0.37224E-04   -0.14108E-04  8699   0.215E-02    0.136E-01
RMM:   7    -0.696951664111E+03    0.15438E-04   -0.10497E-04  8432   0.195E-02    0.126E-01
RMM:   8    -0.696951565851E+03    0.98259E-04   -0.47648E-05  8211   0.135E-02
  58 F= -.69695157E+03 E0= -.69637520E+03  d E =-.105192E-01  mag=     2.6232
       N       E                     dE             d eps       ncg     rms          rms(c)
DAV:   1    -0.696951584493E+03    0.79617E-04   -0.30958E-03 15392   0.699E-02    0.440E-02
RMM:   2    -0.696951769805E+03   -0.18531E-03   -0.11762E-04  8180   0.198E-02    0.177E-01
RMM:   3    -0.696951668738E+03    0.10107E-03   -0.47385E-05  7894   0.157E-02    0.114E-01
RMM:   4    -0.696951597333E+03    0.71404E-04   -0.11123E-05  7057   0.686E-03    0.394E-02
RMM:   5    -0.696951603091E+03   -0.57570E-05   -0.52359E-06  6572   0.503E-03    0.220E-02
RMM:   6    -0.696951608724E+03   -0.56339E-05   -0.24642E-06  5277   0.370E-03    0.133E-02
RMM:   7    -0.696951615804E+03   -0.70798E-05   -0.87388E-07  2984   0.304E-03    0.120E-02
RMM:   8    -0.696951625105E+03   -0.93005E-05   -0.24428E-06  4110   0.331E-03
  59 F= -.69695163E+03 E0= -.69637525E+03  d E =-.105785E-01  mag=     2.6237
       N       E                     dE             d eps       ncg     rms          rms(c)
DAV:   1    -0.696951648651E+03   -0.32847E-04   -0.67936E-04 14816   0.321E-02    0.154E-02
RMM:   2    -0.696951742915E+03   -0.94264E-04   -0.22818E-05  7749   0.847E-03    0.125E-01
RMM:   3    -0.696951647953E+03    0.94961E-04   -0.88462E-06  7128   0.653E-03    0.339E-02
RMM:   4    -0.696951654057E+03   -0.61035E-05   -0.17660E-06  4794   0.356E-03    0.773E-03
RMM:   5    -0.696951655591E+03   -0.15348E-05   -0.10661E-07  1526   0.246E-03    0.113E-02
RMM:   6    -0.696951657198E+03   -0.16065E-05   -0.52149E-08  1302   0.243E-03    0.130E-02
RMM:   7    -0.696951657034E+03    0.16348E-06   -0.17617E-07  1430   0.264E-03    0.491E-03
RMM:   8    -0.696951657139E+03   -0.10496E-06   -0.36964E-07  1711   0.280E-03
  60 F= -.69695166E+03 E0= -.69637529E+03  d E =-.106105E-01  mag=     2.6242
       N       E                     dE             d eps       ncg     rms          rms(c)
DAV:   1    -0.696951980660E+03   -0.32363E-03   -0.42278E-03 15296   0.783E-02    0.257E-02
RMM:   2    -0.696952007770E+03   -0.27110E-04   -0.77818E-05  7931   0.170E-02    0.657E-02
RMM:   3    -0.696952014361E+03   -0.65911E-05   -0.18024E-05  7777   0.934E-03    0.685E-02
RMM:   4    -0.696951988608E+03    0.25754E-04   -0.58776E-06  6604   0.506E-03    0.289E-02
RMM:   5    -0.696951992840E+03   -0.42322E-05   -0.30624E-06  5870   0.392E-03    0.201E-02
RMM:   6    -0.696951994697E+03   -0.18573E-05   -0.18833E-06  4622   0.349E-03    0.198E-02
RMM:   7    -0.696951995919E+03   -0.12216E-05   -0.66350E-07  2988   0.309E-03    0.100E-02
RMM:   8    -0.696951998584E+03   -0.26647E-05   -0.26271E-07  1631   0.292E-03
  61 F= -.69695200E+03 E0= -.69637559E+03  d E =-.341444E-03  mag=     2.6246
       N       E                     dE             d eps       ncg     rms          rms(c)
DAV:   1    -0.696952036260E+03   -0.40341E-04   -0.77818E-04 15088   0.339E-02    0.120E-02
RMM:   2    -0.696952061927E+03   -0.25667E-04   -0.17259E-05  7680   0.804E-03    0.624E-02
RMM:   3    -0.696952042737E+03    0.19190E-04   -0.49872E-06  6769   0.514E-03    0.310E-02
RMM:   4    -0.696952039813E+03    0.29240E-05   -0.55654E-07  2975   0.294E-03    0.933E-03
RMM:   5    -0.696952040351E+03   -0.53834E-06   -0.10016E-08  1262   0.257E-03    0.586E-03
RMM:   6    -0.696952043346E+03   -0.29946E-05   -0.86323E-08  1367   0.264E-03    0.166E-02
RMM:   7    -0.696952043651E+03   -0.30537E-06   -0.14311E-08  1141   0.257E-03    0.116E-02
RMM:   8    -0.696952044318E+03   -0.66687E-06   -0.98337E-09   960   0.258E-03
  62 F= -.69695204E+03 E0= -.69637561E+03  d E =-.387179E-03  mag=     2.6249
       N       E                     dE             d eps       ncg     rms          rms(c)
DAV:   1    -0.696952576690E+03   -0.53304E-03   -0.16567E-04 12816   0.202E-02    0.462E-03
RMM:   2    -0.696952578733E+03   -0.20424E-05   -0.50366E-06  5406   0.469E-03    0.149E-02
RMM:   3    -0.696952578053E+03    0.68016E-06   -0.16017E-07  1606   0.263E-03    0.648E-03
RMM:   4    -0.696952578346E+03   -0.29347E-06   -0.13166E-08   879   0.248E-03    0.871E-03
RMM:   5    -0.696952578330E+03    0.16422E-07   -0.34878E-09   848   0.246E-03    0.558E-03
RMM:   6    -0.696952578888E+03   -0.55859E-06   -0.14226E-09   789   0.245E-03    0.501E-03
RMM:   7    -0.696952579188E+03   -0.29940E-06   -0.26467E-08   891   0.250E-03    0.357E-03
RMM:   8    -0.696952579501E+03   -0.31309E-06   -0.83094E-09   819   0.247E-03
  63 F= -.69695258E+03 E0= -.69637614E+03  d E =-.535183E-03  mag=     2.6252
       N       E                     dE             d eps       ncg     rms          rms(c)
DAV:   1    -0.696954081336E+03   -0.15021E-02   -0.15038E-03 14832   0.600E-02    0.925E-03
RMM:   2    -0.696954088219E+03   -0.68833E-05   -0.33615E-05  7633   0.107E-02    0.295E-02
RMM:   3    -0.696954085433E+03    0.27861E-05   -0.42347E-06  6179   0.498E-03    0.121E-02
RMM:   4    -0.696954089279E+03   -0.38464E-05   -0.21328E-07  1856   0.257E-03    0.241E-02
RMM:   5    -0.696954086956E+03    0.23234E-05   -0.42509E-08  1529   0.239E-03    0.109E-02
RMM:   6    -0.696954087799E+03   -0.84355E-06   -0.21179E-08  1328   0.238E-03    0.858E-03
RMM:   7    -0.696954088781E+03   -0.98140E-06   -0.29987E-08  1122   0.241E-03    0.803E-03
RMM:   8    -0.696954089816E+03   -0.10354E-05   -0.28834E-08  1046   0.246E-03
  64 F= -.69695409E+03 E0= -.69637764E+03  d E =-.204550E-02  mag=     2.6255
       N       E                     dE             d eps       ncg     rms          rms(c)
DAV:   1    -0.696956660261E+03   -0.25715E-02   -0.59447E-03 15344   0.119E-01    0.194E-02
RMM:   2    -0.696956681590E+03   -0.21328E-04   -0.13269E-04  8171   0.214E-02    0.525E-02
RMM:   3    -0.696956675255E+03    0.63342E-05   -0.18568E-05  7511   0.963E-03    0.272E-02
RMM:   4    -0.696956701397E+03   -0.26141E-04   -0.55254E-06  6396   0.474E-03    0.674E-02
RMM:   5    -0.696956672375E+03    0.29022E-04   -0.23106E-06  5287   0.378E-03    0.181E-02
RMM:   6    -0.696956678436E+03   -0.60611E-05   -0.16735E-07  2145   0.258E-03    0.183E-02
RMM:   7    -0.696956680607E+03   -0.21707E-05   -0.10568E-07  1778   0.259E-03    0.212E-02
RMM:   8    -0.696956682081E+03   -0.14742E-05   -0.19177E-07  1790   0.279E-03
  65 F= -.69695668E+03 E0= -.69638023E+03  d E =-.463776E-02  mag=     2.6257
       N       E                     dE             d eps       ncg     rms          rms(c)
DAV:   1    -0.696960100619E+03   -0.34200E-02   -0.23811E-02 15360   0.238E-01    0.409E-02
RMM:   2    -0.696960167692E+03   -0.67074E-04   -0.51649E-04 10733   0.425E-02    0.920E-02
RMM:   3    -0.696960158680E+03    0.90120E-05   -0.81887E-05  8052   0.179E-02    0.581E-02
RMM:   4    -0.696960227001E+03   -0.68320E-04   -0.23470E-05  7724   0.984E-03    0.117E-01
RMM:   5    -0.696960142829E+03    0.84171E-04   -0.94657E-06  7235   0.659E-03    0.408E-02
RMM:   6    -0.696960156751E+03   -0.13922E-04   -0.27921E-06  5424   0.379E-03    0.454E-02
RMM:   7    -0.696960170076E+03   -0.13325E-04   -0.34274E-06  5322   0.376E-03    0.585E-02
RMM:   8    -0.696960155880E+03    0.14196E-04   -0.11546E-06  3932   0.331E-03
  66 F= -.69696016E+03 E0= -.69638371E+03  d E =-.811156E-02  mag=     2.6257
       N       E                     dE             d eps       ncg     rms          rms(c)
DAV:   1    -0.696960308864E+03   -0.13879E-03   -0.95539E-02 15312   0.477E-01    0.889E-02
RMM:   2    -0.696960537859E+03   -0.22900E-03   -0.20526E-03 14127   0.849E-02    0.166E-01
RMM:   3    -0.696960542821E+03   -0.49611E-05   -0.35186E-04 10441   0.333E-02    0.124E-01
RMM:   4    -0.696961131629E+03   -0.58881E-03   -0.10751E-04  8456   0.195E-02    0.322E-01
RMM:   5    -0.696960458650E+03    0.67298E-03   -0.39909E-05  8164   0.145E-02    0.913E-02
RMM:   6    -0.696960502502E+03   -0.43853E-04   -0.18243E-05  7577   0.739E-03    0.102E-01
RMM:   7    -0.696960542941E+03   -0.40439E-04   -0.15689E-05  7763   0.749E-03    0.117E-01
RMM:   8    -0.696960523347E+03    0.19594E-04   -0.15393E-05  7373   0.741E-03
  67 F= -.69696052E+03 E0= -.69638402E+03  d E =-.847903E-02  mag=     2.6253
       N       E                     dE             d eps       ncg     rms          rms(c)
DAV:   1    -0.696961332121E+03   -0.78918E-03   -0.19399E-02 15568   0.215E-01    0.768E-02
RMM:   2    -0.696963152112E+03   -0.18200E-02   -0.52157E-04 12075   0.413E-02    0.536E-01
RMM:   3    -0.696961285708E+03    0.18664E-02   -0.13908E-04  8128   0.260E-02    0.783E-02
RMM:   4    -0.696961397540E+03   -0.11183E-03   -0.50313E-05  7949   0.157E-02    0.866E-02
RMM:   5    -0.696961362931E+03    0.34609E-04   -0.16590E-05  7618   0.927E-03    0.380E-02
RMM:   6    -0.696961361221E+03    0.17102E-05   -0.74574E-06  6639   0.535E-03    0.309E-02
RMM:   7    -0.696961362406E+03   -0.11851E-05   -0.36186E-06  5932   0.429E-03    0.297E-02
RMM:   8    -0.696961361829E+03    0.57653E-06   -0.64617E-07  3111   0.303E-03
  68 F= -.69696136E+03 E0= -.69638498E+03  d E =-.931751E-02  mag=     2.6248
       N       E                     dE             d eps       ncg     rms          rms(c)
DAV:   1    -0.696962781417E+03   -0.14190E-02   -0.27164E-03 15424   0.762E-02    0.246E-02
RMM:   2    -0.696963178422E+03   -0.39701E-03   -0.87300E-05  7940   0.168E-02    0.255E-01
RMM:   3    -0.696962750509E+03    0.42791E-03   -0.27866E-05  7909   0.122E-02    0.296E-02
RMM:   4    -0.696962784003E+03   -0.33494E-04   -0.56511E-06  6715   0.535E-03    0.230E-02
RMM:   5    -0.696962793537E+03   -0.95338E-05   -0.90788E-07  3728   0.314E-03    0.360E-02
RMM:   6    -0.696962792572E+03    0.96438E-06   -0.90756E-07  3525   0.310E-03    0.282E-02
RMM:   7    -0.696962792228E+03    0.34400E-06   -0.17614E-06  4134   0.333E-03    0.195E-02
RMM:   8    -0.696962794569E+03   -0.23406E-05   -0.12959E-06  3452   0.318E-03
  69 F= -.69696279E+03 E0= -.69638639E+03  d E =-.143274E-02  mag=     2.6244
       N       E                     dE             d eps       ncg     rms          rms(c)
DAV:   1    -0.696966321141E+03   -0.35289E-02   -0.24465E-02 15392   0.228E-01    0.534E-02
RMM:   2    -0.696966585467E+03   -0.26433E-03   -0.51989E-04 12168   0.458E-02    0.211E-01
RMM:   3    -0.696966358042E+03    0.22743E-03   -0.10919E-04  8258   0.201E-02    0.695E-02
RMM:   4    -0.696966408641E+03   -0.50599E-04   -0.27907E-05  7969   0.119E-02    0.974E-02
RMM:   5    -0.696966381571E+03    0.27070E-04   -0.15319E-05  7600   0.759E-03    0.702E-02
RMM:   6    -0.696966376657E+03    0.49140E-05   -0.12253E-05  7081   0.688E-03    0.498E-02
RMM:   7    -0.696966378291E+03   -0.16335E-05   -0.68850E-06  6708   0.560E-03    0.328E-02
RMM:   8    -0.696966379414E+03   -0.11233E-05   -0.31831E-06  5334   0.388E-03
  70 F= -.69696638E+03 E0= -.69638991E+03  d E =-.501758E-02  mag=     2.6241
       N       E                     dE             d eps       ncg     rms          rms(c)
DAV:   1    -0.696970035821E+03   -0.36575E-02   -0.97691E-02 15344   0.456E-01    0.105E-01
RMM:   2    -0.696970369335E+03   -0.33351E-03   -0.20111E-03 14785   0.910E-02    0.242E-01
RMM:   3    -0.696970261644E+03    0.10769E-03   -0.46187E-04 12034   0.362E-02    0.155E-01
RMM:   4    -0.696970738048E+03   -0.47640E-03   -0.10074E-04  8505   0.202E-02    0.308E-01
RMM:   5    -0.696970299799E+03    0.43825E-03   -0.74995E-05  8385   0.173E-02    0.180E-01
RMM:   6    -0.696970238089E+03    0.61709E-04   -0.55639E-05  8215   0.144E-02    0.108E-01
RMM:   7    -0.696970250950E+03   -0.12861E-04   -0.47846E-05  8085   0.129E-02    0.742E-02
RMM:   8    -0.696970237255E+03    0.13695E-04   -0.19405E-05  7359   0.906E-03
  71 F= -.69697024E+03 E0= -.69639375E+03  d E =-.887543E-02  mag=     2.6240
       N       E                     dE             d eps       ncg     rms          rms(c)
DAV:   1    -0.696970580803E+03   -0.32985E-03   -0.17387E-02 15632   0.193E-01    0.591E-02
RMM:   2    -0.696971310090E+03   -0.72929E-03   -0.41597E-04 11296   0.395E-02    0.336E-01
RMM:   3    -0.696970573807E+03    0.73628E-03   -0.96682E-05  8249   0.205E-02    0.683E-02
RMM:   4    -0.696970638550E+03   -0.64743E-04   -0.34323E-05  7964   0.124E-02    0.872E-02
RMM:   5    -0.696970619899E+03    0.18652E-04   -0.14880E-05  7357   0.810E-03    0.342E-02
RMM:   6    -0.696970637773E+03   -0.17874E-04   -0.12257E-05  7190   0.638E-03    0.541E-02
RMM:   7    -0.696970627941E+03    0.98315E-05   -0.57919E-06  6800   0.549E-03    0.320E-02
RMM:   8    -0.696970628352E+03   -0.41099E-06   -0.26476E-06  4928   0.371E-03
  72 F= -.69697063E+03 E0= -.69639407E+03  d E =-.926652E-02  mag=     2.6237
       N       E                     dE             d eps       ncg     rms          rms(c)
DAV:   1    -0.696972841491E+03   -0.22135E-02   -0.11531E-02 15536   0.154E-01    0.379E-02
RMM:   2    -0.696973011356E+03   -0.16987E-03   -0.24210E-04  9115   0.301E-02    0.160E-01
RMM:   3    -0.696972868958E+03    0.14240E-03   -0.52023E-05  7963   0.162E-02    0.691E-02
RMM:   4    -0.696972860522E+03    0.84361E-05   -0.12953E-05  7598   0.779E-03    0.286E-02
RMM:   5    -0.696972872273E+03   -0.11751E-04   -0.54393E-06  6593   0.486E-03    0.481E-02
RMM:   6    -0.696972869843E+03    0.24294E-05   -0.61740E-06  6922   0.492E-03    0.468E-02
RMM:   7    -0.696972859512E+03    0.10331E-04   -0.43420E-06  6268   0.461E-03    0.255E-02
RMM:   8    -0.696972859384E+03    0.12869E-06   -0.17796E-06  4403   0.341E-03
  73 F= -.69697286E+03 E0= -.69639628E+03  d E =-.223103E-02  mag=     2.6234
       N       E                     dE             d eps       ncg     rms          rms(c)
DAV:   1    -0.696975343909E+03   -0.24844E-02   -0.90003E-02 15360   0.430E-01    0.948E-02
RMM:   2    -0.696976061905E+03   -0.71800E-03   -0.17783E-03 14723   0.828E-02    0.314E-01
RMM:   3    -0.696975540480E+03    0.52143E-03   -0.39920E-04 11310   0.356E-02    0.140E-01
RMM:   4    -0.696975521745E+03    0.18735E-04   -0.82892E-05  8421   0.201E-02    0.874E-02
RMM:   5    -0.696975663453E+03   -0.14171E-03   -0.58698E-05  8283   0.139E-02    0.168E-01
RMM:   6    -0.696975536847E+03    0.12661E-03   -0.46202E-05  8094   0.138E-02    0.995E-02
RMM:   7    -0.696975512136E+03    0.24711E-04   -0.40265E-05  7983   0.116E-02    0.571E-02
RMM:   8    -0.696975507594E+03    0.45423E-05   -0.14956E-05  7126   0.794E-03
  74 F= -.69697551E+03 E0= -.69639886E+03  d E =-.487924E-02  mag=     2.6230
       N       E                     dE             d eps       ncg     rms          rms(c)
DAV:   1    -0.696977435073E+03   -0.19229E-02   -0.11280E-02 15440   0.150E-01    0.429E-02
RMM:   2    -0.696978024022E+03   -0.58895E-03   -0.29183E-04  9577   0.332E-02    0.311E-01
RMM:   3    -0.696977425225E+03    0.59880E-03   -0.70196E-05  8050   0.188E-02    0.645E-02
RMM:   4    -0.696977477052E+03   -0.51827E-04   -0.24097E-05  7790   0.103E-02    0.765E-02
RMM:   5    -0.696977466621E+03    0.10431E-04   -0.78107E-06  6789   0.617E-03    0.567E-02
RMM:   6    -0.696977453315E+03    0.13306E-04   -0.40424E-06  6093   0.429E-03    0.405E-02
RMM:   7    -0.696977451140E+03    0.21750E-05   -0.23954E-06  5145   0.371E-03    0.201E-02
RMM:   8    -0.696977448400E+03    0.27401E-05   -0.12002E-06  3740   0.321E-03
  75 F= -.69697745E+03 E0= -.69640079E+03  d E =-.194081E-02  mag=     2.6226
       N       E                     dE             d eps       ncg     rms          rms(c)
DAV:   1    -0.696979967829E+03   -0.25167E-02   -0.10039E-01 15360   0.445E-01    0.978E-02
RMM:   2    -0.696981561468E+03   -0.15936E-02   -0.21191E-03 14849   0.940E-02    0.507E-01
RMM:   3    -0.696980140922E+03    0.14205E-02   -0.49427E-04 13190   0.394E-02    0.151E-01
RMM:   4    -0.696980571800E+03   -0.43088E-03   -0.14079E-04  8746   0.223E-02    0.288E-01
RMM:   5    -0.696980334809E+03    0.23699E-03   -0.67376E-05  8294   0.176E-02    0.202E-01
RMM:   6    -0.696980145950E+03    0.18886E-03   -0.32141E-05  8158   0.112E-02    0.115E-01
RMM:   7    -0.696980122832E+03    0.23118E-04   -0.28244E-05  7999   0.943E-03    0.541E-02
RMM:   8    -0.696980121273E+03    0.15584E-05   -0.17638E-05  7191   0.739E-03
  76 F= -.69698012E+03 E0= -.69640347E+03  d E =-.461368E-02  mag=     2.6220
       N       E                     dE             d eps       ncg     rms          rms(c)
DAV:   1    -0.696981937982E+03   -0.18152E-02   -0.22652E-02 15616   0.221E-01    0.433E-02
RMM:   2    -0.696982245007E+03   -0.30702E-03   -0.47404E-04 12278   0.447E-02    0.223E-01
RMM:   3    -0.696981992709E+03    0.25230E-03   -0.97683E-05  8227   0.195E-02    0.804E-02
RMM:   4    -0.696982043240E+03   -0.50530E-04   -0.31445E-05  7912   0.123E-02    0.119E-01
RMM:   5    -0.696982005906E+03    0.37334E-04   -0.11917E-05  7468   0.737E-03    0.768E-02
RMM:   6    -0.696982005192E+03    0.71371E-06   -0.61684E-06  6794   0.523E-03    0.710E-02
RMM:   7    -0.696982008241E+03   -0.30482E-05   -0.34366E-06  5782   0.404E-03    0.634E-02
RMM:   8    -0.696982005803E+03    0.24377E-05   -0.17391E-06  4277   0.342E-03
  77 F= -.69698201E+03 E0= -.69640524E+03  d E =-.188453E-02  mag=     2.6216
       N       E                     dE             d eps       ncg     rms          rms(c)
DAV:   1    -0.696982471380E+03   -0.46314E-03   -0.17207E-02 15520   0.192E-01    0.524E-02
RMM:   2    -0.696982579400E+03   -0.10802E-03   -0.36774E-04 10517   0.389E-02    0.114E-01
RMM:   3    -0.696982745963E+03   -0.16656E-03   -0.90099E-05  8045   0.195E-02    0.209E-01
RMM:   4    -0.696982583681E+03    0.16228E-03   -0.23111E-05  7927   0.117E-02    0.129E-01
RMM:   5    -0.696982546732E+03    0.36948E-04   -0.81914E-06  7103   0.566E-03    0.988E-02
RMM:   6    -0.696982523551E+03    0.23181E-04   -0.98216E-06  7083   0.603E-03    0.598E-02
RMM:   7    -0.696982530815E+03   -0.72640E-05   -0.66669E-06  7022   0.558E-03    0.455E-02
RMM:   8    -0.696982529570E+03    0.12453E-05   -0.25209E-06  5254   0.370E-03
  78 F= -.69698253E+03 E0= -.69640566E+03  d E =-.240830E-02  mag=     2.6213
       N       E                     dE             d eps       ncg     rms          rms(c)
DAV:   1    -0.696983704812E+03   -0.11740E-02   -0.15425E-02 15408   0.172E-01    0.562E-02
RMM:   2    -0.696983928533E+03   -0.22372E-03   -0.34688E-04 10241   0.351E-02    0.192E-01
RMM:   3    -0.696983885513E+03    0.43020E-04   -0.87411E-05  8019   0.193E-02    0.174E-01
RMM:   4    -0.696983728361E+03    0.15715E-03   -0.23665E-05  7829   0.113E-02    0.486E-02
RMM:   5    -0.696983734423E+03   -0.60617E-05   -0.96813E-06  7135   0.611E-03    0.386E-02
RMM:   6    -0.696983750479E+03   -0.16056E-04   -0.11333E-05  7486   0.653E-03    0.570E-02
RMM:   7    -0.696983745541E+03    0.49383E-05   -0.55424E-06  6620   0.525E-03    0.433E-02
RMM:   8    -0.696983742081E+03    0.34601E-05   -0.19936E-06  4463   0.351E-03
  79 F= -.69698374E+03 E0= -.69640680E+03  d E =-.121251E-02  mag=     2.6212
       N       E                     dE             d eps       ncg     rms          rms(c)
DAV:   1    -0.696983938349E+03   -0.19281E-03   -0.79699E-03 15536   0.124E-01    0.393E-02
RMM:   2    -0.696983993941E+03   -0.55592E-04   -0.17945E-04  8393   0.254E-02    0.103E-01
RMM:   3    -0.696983973559E+03    0.20382E-04   -0.37052E-05  7862   0.141E-02    0.651E-02
RMM:   4    -0.696983958261E+03    0.15299E-04   -0.97780E-06  7208   0.625E-03    0.351E-02
RMM:   5    -0.696983967425E+03   -0.91646E-05   -0.62617E-06  6829   0.517E-03    0.428E-02
RMM:   6    -0.696983963934E+03    0.34913E-05   -0.50290E-06  6648   0.480E-03    0.323E-02
RMM:   7    -0.696983963969E+03   -0.35470E-07   -0.22807E-06  5190   0.371E-03    0.201E-02
RMM:   8    -0.696983965359E+03   -0.13901E-05   -0.53015E-07  2825   0.293E-03
  80 F= -.69698397E+03 E0= -.69640693E+03  d E =-.143579E-02  mag=     2.6212
       N       E                     dE             d eps       ncg     rms          rms(c)
DAV:   1    -0.696984682695E+03   -0.71873E-03   -0.16949E-02 15360   0.201E-01    0.435E-02
RMM:   2    -0.696985210749E+03   -0.52805E-03   -0.44099E-04 11017   0.406E-02    0.289E-01
RMM:   3    -0.696984700422E+03    0.51033E-03   -0.82308E-05  8082   0.195E-02    0.816E-02
RMM:   4    -0.696984749193E+03   -0.48771E-04   -0.22270E-05  7799   0.104E-02    0.959E-02
RMM:   5    -0.696984745129E+03    0.40638E-05   -0.93463E-06  7050   0.614E-03    0.792E-02
RMM:   6    -0.696984729078E+03    0.16052E-04   -0.64576E-06  6735   0.515E-03    0.563E-02
RMM:   7    -0.696984726312E+03    0.27658E-05   -0.50593E-06  6289   0.468E-03    0.290E-02
RMM:   8    -0.696984727388E+03   -0.10767E-05   -0.31313E-06  5602   0.405E-03
  81 F= -.69698473E+03 E0= -.69640772E+03  d E =-.762029E-03  mag=     2.6215
       N       E                     dE             d eps       ncg     rms          rms(c)
DAV:   1    -0.696984737618E+03   -0.11306E-04   -0.31658E-04 14592   0.278E-02    0.133E-02
RMM:   2    -0.696984750368E+03   -0.12750E-04   -0.11540E-05  7722   0.655E-03    0.398E-02
RMM:   3    -0.696984756741E+03   -0.63728E-05   -0.39336E-06  6262   0.458E-03    0.549E-02
RMM:   4    -0.696984737752E+03    0.18989E-04   -0.38220E-07  2634   0.292E-03    0.173E-02
RMM:   5    -0.696984740679E+03   -0.29275E-05   -0.14514E-08  1475   0.252E-03    0.131E-02
RMM:   6    -0.696984742032E+03   -0.13528E-05   -0.24298E-08  1378   0.255E-03    0.119E-02
RMM:   7    -0.696984741111E+03    0.92067E-06   -0.50016E-09  1245   0.250E-03    0.586E-03
RMM:   8    -0.696984740943E+03    0.16839E-06   -0.27758E-09  1205   0.250E-03
  82 F= -.69698474E+03 E0= -.69640772E+03  d E =-.775584E-03  mag=     2.6217
       N       E                     dE             d eps       ncg     rms          rms(c)
DAV:   1    -0.696984975712E+03   -0.23460E-03   -0.79306E-03 15504   0.135E-01    0.259E-02
RMM:   2    -0.696985084103E+03   -0.10839E-03   -0.17565E-04  8355   0.274E-02    0.132E-01
RMM:   3    -0.696984993180E+03    0.90923E-04   -0.29739E-05  7882   0.127E-02    0.618E-02
RMM:   4    -0.696985008932E+03   -0.15751E-04   -0.89768E-06  7322   0.615E-03    0.717E-02
RMM:   5    -0.696984988366E+03    0.20566E-04   -0.44480E-06  6403   0.454E-03    0.343E-02
RMM:   6    -0.696984990658E+03   -0.22921E-05   -0.26094E-06  5365   0.372E-03    0.307E-02
RMM:   7    -0.696984990841E+03   -0.18256E-06   -0.75420E-07  3435   0.319E-03    0.207E-02
RMM:   8    -0.696984991178E+03   -0.33702E-06   -0.33261E-07  2203   0.290E-03
  83 F= -.69698499E+03 E0= -.69640794E+03  d E =-.250235E-03  mag=     2.6220
       N       E                     dE             d eps       ncg     rms          rms(c)
DAV:   1    -0.696984990956E+03   -0.11528E-06   -0.40682E-05  8656   0.114E-02    0.170E-02
RMM:   2    -0.696985037093E+03   -0.46137E-04   -0.15272E-05  7286   0.870E-03    0.836E-02
RMM:   3    -0.696985009982E+03    0.27111E-04   -0.63982E-06  6850   0.574E-03    0.647E-02
RMM:   4    -0.696984987325E+03    0.22657E-04   -0.12437E-06  4150   0.323E-03    0.100E-02
RMM:   5    -0.696984989772E+03   -0.24471E-05   -0.42366E-08  1462   0.242E-03    0.699E-03
RMM:   6    -0.696984990086E+03   -0.31455E-06   -0.11890E-09  1133   0.233E-03    0.816E-03
RMM:   7    -0.696984989984E+03    0.10240E-06   -0.20434E-09  1067   0.234E-03    0.891E-03
RMM:   8    -0.696984989093E+03    0.89111E-06   -0.65679E-10   940   0.238E-03
  84 F= -.69698499E+03 E0= -.69640794E+03  d E =-.248150E-03  mag=     2.6222
       N       E                     dE             d eps       ncg     rms          rms(c)
DAV:   1    -0.696985102972E+03   -0.11299E-03   -0.32595E-03 15360   0.839E-02    0.154E-02
RMM:   2    -0.696985133038E+03   -0.30066E-04   -0.73215E-05  7984   0.165E-02    0.724E-02
RMM:   3    -0.696985107652E+03    0.25386E-04   -0.12398E-05  7598   0.811E-03    0.245E-02
RMM:   4    -0.696985117536E+03   -0.98834E-05   -0.31405E-06  5379   0.388E-03    0.458E-02
RMM:   5    -0.696985114138E+03    0.33978E-05   -0.80403E-07  3299   0.313E-03    0.359E-02
RMM:   6    -0.696985108749E+03    0.53885E-05   -0.33263E-07  2363   0.293E-03    0.200E-02
RMM:   7    -0.696985110328E+03   -0.15785E-05   -0.53137E-07  2500   0.296E-03    0.154E-02
RMM:   8    -0.696985111187E+03   -0.85909E-06   -0.75358E-07  2334   0.295E-03
  85 F= -.69698511E+03 E0= -.69640806E+03  d E =-.122094E-03  mag=     2.6224
       N       E                     dE             d eps       ncg     rms          rms(c)
DAV:   1    -0.696985122250E+03   -0.11922E-04   -0.76633E-04 14688   0.408E-02    0.136E-02
RMM:   2    -0.696985187625E+03   -0.65375E-04   -0.23610E-05  7848   0.881E-03    0.948E-02
RMM:   3    -0.696985121328E+03    0.66297E-04   -0.76862E-06  7376   0.629E-03    0.395E-02
RMM:   4    -0.696985129547E+03   -0.82189E-05   -0.11096E-06  4051   0.321E-03    0.309E-02
RMM:   5    -0.696985124750E+03    0.47968E-05   -0.21269E-07  1929   0.257E-03    0.184E-02
RMM:   6    -0.696985124853E+03   -0.10251E-06   -0.56706E-08  1297   0.232E-03    0.108E-02
RMM:   7    -0.696985125599E+03   -0.74611E-06   -0.55262E-09  1240   0.218E-03    0.784E-03
RMM:   8    -0.696985126158E+03   -0.55882E-06   -0.84726E-09   984   0.221E-03
  86 F= -.69698513E+03 E0= -.69640808E+03  d E =-.137065E-03  mag=     2.6225
       N       E                     dE             d eps       ncg     rms          rms(c)
DAV:   1    -0.696985205699E+03   -0.80100E-04   -0.29485E-03 15328   0.776E-02    0.160E-02
RMM:   2    -0.696985223029E+03   -0.17330E-04   -0.61322E-05  7853   0.146E-02    0.472E-02
RMM:   3    -0.696985213010E+03    0.10019E-04   -0.10283E-05  7457   0.714E-03    0.289E-02
RMM:   4    -0.696985211980E+03    0.10307E-05   -0.19028E-06  4554   0.351E-03    0.119E-02
RMM:   5    -0.696985213733E+03   -0.17531E-05   -0.32283E-07  2283   0.289E-03    0.170E-02
RMM:   6    -0.696985214123E+03   -0.38971E-06   -0.30736E-07  2246   0.290E-03    0.158E-02
RMM:   7    -0.696985214129E+03   -0.61627E-08   -0.53473E-07  2438   0.298E-03    0.969E-03
RMM:   8    -0.696985213963E+03    0.16570E-06   -0.19015E-07  1645   0.284E-03
  87 F= -.69698521E+03 E0= -.69640817E+03  d E =-.878054E-04  mag=     2.6225
