 ----------------------------------------------------
    OOO  PPPP  EEEEE N   N M   M PPPP
   O   O P   P E     NN  N MM MM P   P
   O   O PPPP  EEEEE N N N M M M PPPP   -- VERSION
   O   O P     E     N  NN M   M P
    OOO  P     EEEEE N   N M   M P
 ----------------------------------------------------
 running   16 mpi-ranks, with    4 threads/rank
 distrk:  each k-point on   16 cores,    1 groups
 distr:  one band on    1 cores,   16 groups
 vasp.6.2.1 16May21 (build Jul 28 2021 23:24:15) complex                        
  
 POSCAR found type information on POSCAR H IrO 
 POSCAR found :  3 types and     112 ions
 scaLAPACK will be used
 -----------------------------------------------------------------------------
|                                                                             |
|           W    W    AA    RRRRR   N    N  II  N    N   GGGG   !!!           |
|           W    W   A  A   R    R  NN   N  II  NN   N  G    G  !!!           |
|           W    W  A    A  R    R  N N  N  II  N N  N  G       !!!           |
|           W WW W  AAAAAA  RRRRR   N  N N  II  N  N N  G  GGG   !            |
|           WW  WW  A    A  R   R   N   NN  II  N   NN  G    G                |
|           W    W  A    A  R    R  N    N  II  N    N   GGGG   !!!           |
|                                                                             |
|     The real-space projection scheme for the treatment of the non-local     |
|     pseudopotentials has been switched on but on file POTCAR I have not     |
|     found any entries, signalling me that you have never performed a        |
|     real-space optimization of all non-local projectors! BE WARNED that     |
|     a calculation using the real-space projection scheme together with      |
|     non-local projectors which were not real-space optimized (according     |
|     to the plane-wave cutoff used in this calculation) might give more      |
|     or less inaccurate results. I hope you know what you are doing.         |
|                                                                             |
 -----------------------------------------------------------------------------

 LDA part: xc-table for Pade appr. of Perdew
 POSCAR, INCAR and KPOINTS ok, starting setup
 FFT: planning ...
 WAVECAR not read
 WARNING: random wavefunctions but no delay for mixing, default for NELMDL
 entering main loop
       N       E                     dE             d eps       ncg     rms          rms(c)
DAV:   1     0.781486858106E+04    0.78149E+04   -0.31241E+05 13648   0.127E+03
DAV:   2     0.584429924549E+03   -0.72304E+04   -0.65392E+04 14496   0.374E+02
DAV:   3    -0.807344771282E+03   -0.13918E+04   -0.13361E+04 16688   0.165E+02
DAV:   4    -0.884805754957E+03   -0.77461E+02   -0.75652E+02 18672   0.436E+01
DAV:   5    -0.886452650324E+03   -0.16469E+01   -0.16258E+01 17360   0.588E+00    0.190E+02
RMM:   6    -0.744754485492E+03    0.14170E+03   -0.66622E+02 13482   0.407E+01    0.192E+02
RMM:   7    -0.108497038220E+04   -0.34022E+03   -0.23020E+02 14280   0.229E+01    0.363E+02
RMM:   8    -0.922879011386E+03    0.16209E+03   -0.57284E+01 16382   0.861E+00    0.311E+02
RMM:   9    -0.121749959779E+04   -0.29462E+03   -0.12941E+02 16057   0.158E+01    0.389E+02
RMM:  10    -0.810191721159E+03    0.40731E+03   -0.22028E+02 17646   0.197E+01    0.143E+02
RMM:  11    -0.682424973014E+03    0.12777E+03   -0.89585E+01 14654   0.160E+01    0.103E+02
RMM:  12    -0.648569640634E+03    0.33855E+02   -0.31145E+01 13497   0.867E+00    0.768E+01
RMM:  13    -0.647206294826E+03    0.13633E+01   -0.14379E+01 14096   0.639E+00    0.554E+01
RMM:  14    -0.664703206433E+03   -0.17497E+02   -0.12702E+01 13559   0.536E+00    0.535E+01
RMM:  15    -0.667312485391E+03   -0.26093E+01   -0.89005E+00 13966   0.459E+00    0.345E+01
RMM:  16    -0.674471454749E+03   -0.71590E+01   -0.92824E+00 14517   0.408E+00    0.291E+01
RMM:  17    -0.688694302783E+03   -0.14223E+02   -0.89210E+00 14994   0.424E+00    0.223E+01
RMM:  18    -0.699711858323E+03   -0.11018E+02   -0.50621E+00 13860   0.334E+00    0.197E+01
RMM:  19    -0.707867268350E+03   -0.81554E+01   -0.57152E+00 14641   0.318E+00    0.215E+01
RMM:  20    -0.712457658461E+03   -0.45904E+01   -0.29618E+00 13949   0.249E+00    0.205E+01
RMM:  21    -0.716599984708E+03   -0.41423E+01   -0.21852E+00 14231   0.214E+00    0.166E+01
RMM:  22    -0.717736336791E+03   -0.11364E+01   -0.58257E-01 13903   0.111E+00    0.139E+01
RMM:  23    -0.718065356591E+03   -0.32902E+00   -0.24032E-01 13861   0.729E-01    0.127E+01
RMM:  24    -0.720506320259E+03   -0.24410E+01   -0.77948E-01 15642   0.116E+00    0.108E+01
RMM:  25    -0.723788727468E+03   -0.32824E+01   -0.88937E-01 16731   0.123E+00    0.967E+00
RMM:  26    -0.728425632257E+03   -0.46369E+01   -0.16464E+00 17888   0.153E+00    0.109E+01
RMM:  27    -0.731515125327E+03   -0.30895E+01   -0.11789E+00 16328   0.127E+00    0.814E+00
RMM:  28    -0.734079696952E+03   -0.25646E+01   -0.37892E-01 14824   0.793E-01    0.621E+00
RMM:  29    -0.735665460546E+03   -0.15858E+01   -0.17635E-01 14062   0.544E-01    0.575E+00
RMM:  30    -0.736446720784E+03   -0.78126E+00   -0.10745E-01 14064   0.417E-01    0.509E+00
RMM:  31    -0.737142799011E+03   -0.69608E+00   -0.14027E-01 15067   0.440E-01    0.411E+00
RMM:  32    -0.737454683525E+03   -0.31188E+00   -0.74581E-02 14179   0.343E-01    0.366E+00
RMM:  33    -0.737659216432E+03   -0.20453E+00   -0.34519E-02 13795   0.257E-01    0.313E+00
RMM:  34    -0.738241247695E+03   -0.58203E+00   -0.50750E-02 15085   0.272E-01    0.255E+00
RMM:  35    -0.738792973595E+03   -0.55173E+00   -0.54435E-02 15494   0.280E-01    0.210E+00
RMM:  36    -0.739079833242E+03   -0.28686E+00   -0.37304E-02 15015   0.241E-01    0.163E+00
RMM:  37    -0.739240713796E+03   -0.16088E+00   -0.52967E-02 16349   0.263E-01    0.156E+00
RMM:  38    -0.739264761015E+03   -0.24047E-01   -0.15050E-02 14188   0.158E-01    0.173E+00
RMM:  39    -0.739387232585E+03   -0.12247E+00   -0.64350E-03 13744   0.110E-01    0.163E+00
RMM:  40    -0.739510360400E+03   -0.12313E+00   -0.53491E-03 14077   0.904E-02    0.148E+00
RMM:  41    -0.739572088245E+03   -0.61728E-01   -0.39377E-03 14132   0.782E-02    0.128E+00
RMM:  42    -0.739611528960E+03   -0.39441E-01   -0.24992E-03 13733   0.656E-02    0.103E+00
RMM:  43    -0.739664260410E+03   -0.52731E-01   -0.20046E-03 13862   0.592E-02    0.833E-01
RMM:  44    -0.739719383337E+03   -0.55123E-01   -0.11294E-03 12980   0.454E-02    0.707E-01
RMM:  45    -0.739775547208E+03   -0.56164E-01   -0.10887E-03 12741   0.405E-02    0.572E-01
RMM:  46    -0.739826579030E+03   -0.51032E-01   -0.96966E-04 12489   0.372E-02    0.421E-01
RMM:  47    -0.739864259304E+03   -0.37680E-01   -0.76091E-04 12179   0.335E-02    0.312E-01
RMM:  48    -0.739898982266E+03   -0.34723E-01   -0.70145E-04 12114   0.316E-02    0.222E-01
RMM:  49    -0.739924037559E+03   -0.25055E-01   -0.42472E-04 10660   0.256E-02    0.162E-01
RMM:  50    -0.739936661103E+03   -0.12624E-01   -0.18002E-04  8651   0.186E-02    0.123E-01
RMM:  51    -0.739921829026E+03    0.14832E-01   -0.41379E-04 10176   0.223E-02    0.109E-01
RMM:  52    -0.739933067672E+03   -0.11239E-01   -0.49500E-05  8134   0.138E-02    0.938E-02
RMM:  53    -0.739944398663E+03   -0.11331E-01   -0.34770E-05  8019   0.878E-03    0.703E-02
RMM:  54    -0.739948853391E+03   -0.44547E-02   -0.17377E-05  7340   0.705E-03    0.602E-02
RMM:  55    -0.739950713679E+03   -0.18603E-02   -0.98865E-06  6608   0.505E-03    0.489E-02
RMM:  56    -0.739951495421E+03   -0.78174E-03   -0.17887E-05  7698   0.590E-03    0.352E-02
RMM:  57    -0.739953197538E+03   -0.17021E-02   -0.73067E-06  6364   0.463E-03    0.213E-02
RMM:  58    -0.739953647791E+03   -0.45025E-03   -0.25887E-06  3961   0.297E-03    0.146E-02
RMM:  59    -0.739953884778E+03   -0.23699E-03   -0.15167E-06  3490   0.283E-03    0.116E-02
RMM:  60    -0.739954121471E+03   -0.23669E-03   -0.19530E-06  3506   0.294E-03    0.106E-02
RMM:  61    -0.739954166940E+03   -0.45469E-04   -0.16103E-06  3469   0.302E-03
   1 F= -.73995417E+03 E0= -.73932120E+03  d E =-.739954E+03  mag=     0.0004
 curvature:   0.00 expect dE= 0.000E+00 dE for cont linesearch  0.000E+00
 trial: gam= 0.00000 g(F)=  0.134E+02 g(S)=  0.000E+00 ort = 0.000E+00 (trialstep = 0.100E+01)
 search vector abs. value=  0.134E+02
 bond charge predicted
       N       E                     dE             d eps       ncg     rms          rms(c)
DAV:   1    -0.713397736794E+03    0.26556E+02   -0.29991E+03 13456   0.841E+01    0.151E+01
RMM:   2    -0.727192287053E+03   -0.13795E+02   -0.12370E+02 13440   0.174E+01    0.348E+01
RMM:   3    -0.726581434359E+03    0.61085E+00   -0.18494E+01 13895   0.651E+00    0.204E+01
RMM:   4    -0.725243197922E+03    0.13382E+01   -0.28161E+00 13843   0.311E+00    0.177E+01
RMM:   5    -0.723690328895E+03    0.15529E+01   -0.10969E+00 13445   0.197E+00    0.121E+01
RMM:   6    -0.724403832737E+03   -0.71350E+00   -0.10509E+00 13884   0.153E+00    0.158E+01
RMM:   7    -0.723720715873E+03    0.68312E+00   -0.70261E-01 13874   0.132E+00    0.102E+01
RMM:   8    -0.723124694936E+03    0.59602E+00   -0.35237E-01 13532   0.959E-01    0.292E+00
RMM:   9    -0.723078315364E+03    0.46380E-01   -0.88611E-02 13500   0.559E-01    0.169E+00
RMM:  10    -0.723066490490E+03    0.11825E-01   -0.37690E-02 15168   0.271E-01    0.110E+00
RMM:  11    -0.723072442726E+03   -0.59522E-02   -0.11335E-02 13637   0.148E-01    0.152E+00
RMM:  12    -0.723061403954E+03    0.11039E-01   -0.19223E-02 13896   0.192E-01    0.907E-01
RMM:  13    -0.723057377462E+03    0.40265E-02   -0.51548E-03 13411   0.124E-01    0.287E-01
RMM:  14    -0.723057562823E+03   -0.18536E-03   -0.21696E-03 14301   0.684E-02    0.248E-01
RMM:  15    -0.723057792760E+03   -0.22994E-03   -0.40932E-04 10159   0.292E-02    0.235E-01
RMM:  16    -0.723058126365E+03   -0.33361E-03   -0.14390E-04  8302   0.210E-02    0.175E-01
RMM:  17    -0.723058724349E+03   -0.59798E-03   -0.19907E-04  8529   0.201E-02    0.905E-02
RMM:  18    -0.723059197425E+03   -0.47308E-03   -0.93468E-05  8227   0.159E-02    0.588E-02
RMM:  19    -0.723059420209E+03   -0.22278E-03   -0.41941E-05  7818   0.110E-02    0.470E-02
RMM:  20    -0.723059627428E+03   -0.20722E-03   -0.33128E-05  7747   0.781E-03    0.434E-02
RMM:  21    -0.723059833478E+03   -0.20605E-03   -0.25446E-05  7419   0.663E-03    0.354E-02
RMM:  22    -0.723060159543E+03   -0.32606E-03   -0.42039E-05  7377   0.750E-03    0.264E-02
RMM:  23    -0.723060368655E+03   -0.20911E-03   -0.27197E-05  6943   0.690E-03    0.224E-02
RMM:  24    -0.723060456536E+03   -0.87881E-04   -0.11668E-05  5814   0.515E-03
   2 F= -.72306046E+03 E0= -.72245468E+03  d E =0.168937E+02  mag=     0.0004
 trial-energy change:   16.893710  1 .order   30.339450  -13.434791   74.113692
 step:   0.1535(harm=  0.1535)  dis= 0.02120  next Energy=  -740.984988 (dE=-0.103E+01)
 bond charge predicted
       N       E                     dE             d eps       ncg     rms          rms(c)
DAV:   1    -0.738476323476E+03   -0.15416E+02   -0.21739E+03 13760   0.728E+01    0.300E+01
RMM:   2    -0.835273790389E+03   -0.96797E+02   -0.21298E+02 13651   0.162E+01    0.132E+02
RMM:   3    -0.779720782552E+03    0.55553E+02   -0.33363E+01 14122   0.867E+00    0.460E+01
RMM:   4    -0.757644224946E+03    0.22077E+02   -0.13527E+01 13453   0.548E+00    0.344E+01
RMM:   5    -0.746484640967E+03    0.11160E+02   -0.65805E+00 13590   0.460E+00    0.182E+01
RMM:   6    -0.745803593214E+03    0.68105E+00   -0.36851E+00 14046   0.260E+00    0.182E+01
RMM:   7    -0.742647198792E+03    0.31564E+01   -0.34042E+00 15371   0.217E+00    0.103E+01
RMM:   8    -0.741966794700E+03    0.68040E+00   -0.11124E+00 15333   0.132E+00    0.801E+00
RMM:   9    -0.741591893219E+03    0.37490E+00   -0.51380E-01 13756   0.107E+00    0.574E+00
RMM:  10    -0.741437924930E+03    0.15397E+00   -0.60329E-01 14362   0.938E-01    0.324E+00
RMM:  11    -0.741461721235E+03   -0.23796E-01   -0.21577E-01 16477   0.601E-01    0.339E+00
RMM:  12    -0.741436946414E+03    0.24775E-01   -0.26648E-02 13853   0.247E-01    0.271E+00
RMM:  13    -0.741426078270E+03    0.10868E-01   -0.20152E-02 13505   0.203E-01    0.231E+00
RMM:  14    -0.741423697862E+03    0.23804E-02   -0.81270E-03 13286   0.134E-01    0.205E+00
RMM:  15    -0.741420906393E+03    0.27915E-02   -0.33380E-03 13199   0.911E-02    0.190E+00
RMM:  16    -0.741420057502E+03    0.84889E-03   -0.18391E-03 12882   0.652E-02    0.170E+00
RMM:  17    -0.741419997349E+03    0.60154E-04   -0.67807E-04 11761   0.379E-02
   3 F= -.74142000E+03 E0= -.74079028E+03  d E =-.146583E+01  mag=     0.0001
 curvature:  -0.08 expect dE=-0.368E+00 dE for cont linesearch -0.248E+00
 ZBRENT: interpolating
 opt :   0.2226  next Energy=  -741.648069 (dE=-0.169E+01)
 bond charge predicted
       N       E                     dE             d eps       ncg     rms          rms(c)
DAV:   1    -0.741821496164E+03   -0.40144E+00   -0.14551E+01 13904   0.591E+00    0.161E+00
RMM:   2    -0.741887958371E+03   -0.66462E-01   -0.38577E-01 13440   0.106E+00    0.265E+00
RMM:   3    -0.741970712283E+03   -0.82754E-01   -0.62001E-02 13485   0.458E-01    0.446E+00
RMM:   4    -0.741851779859E+03    0.11893E+00   -0.19824E-02 13591   0.269E-01    0.994E-01
RMM:   5    -0.741849887111E+03    0.18927E-02   -0.97038E-03 13431   0.170E-01    0.101E+00
RMM:   6    -0.741845986392E+03    0.39007E-02   -0.47251E-03 13446   0.132E-01    0.649E-01
RMM:   7    -0.741844343095E+03    0.16433E-02   -0.27990E-03 13249   0.871E-02    0.402E-01
RMM:   8    -0.741844132314E+03    0.21078E-03   -0.11835E-03 12692   0.614E-02    0.362E-01
RMM:   9    -0.741843588407E+03    0.54391E-03   -0.47611E-04 10955   0.326E-02    0.167E-01
RMM:  10    -0.741843466594E+03    0.12181E-03   -0.12420E-04  8210   0.199E-02    0.457E-02
RMM:  11    -0.741843500856E+03   -0.34262E-04   -0.47459E-05  7872   0.123E-02
   4 F= -.74184350E+03 E0= -.74121823E+03  d E =-.188933E+01  mag=     0.0001
 curvature:  -0.07 expect dE=-0.193E+00 dE for cont linesearch -0.108E+00
 ZBRENT: interpolating
 opt :   0.3667  next Energy=  -742.189338 (dE=-0.224E+01)
 bond charge predicted
       N       E                     dE             d eps       ncg     rms          rms(c)
DAV:   1    -0.741981043196E+03   -0.13758E+00   -0.63787E+01 13712   0.124E+01    0.269E+00
RMM:   2    -0.743120665037E+03   -0.11396E+01   -0.17811E+00 13440   0.222E+00    0.142E+01
RMM:   3    -0.742127497770E+03    0.99317E+00   -0.24046E-01 13483   0.970E-01    0.298E+00
RMM:   4    -0.742146093002E+03   -0.18595E-01   -0.86656E-02 13556   0.544E-01    0.391E+00
RMM:   5    -0.742109093425E+03    0.37000E-01   -0.28183E-02 13576   0.322E-01    0.326E+00
RMM:   6    -0.742110483890E+03   -0.13905E-02   -0.13823E-02 13511   0.190E-01    0.300E+00
RMM:   7    -0.742075991439E+03    0.34492E-01   -0.20377E-02 14646   0.207E-01    0.154E+00
RMM:   8    -0.742060279439E+03    0.15712E-01   -0.75303E-03 13462   0.157E-01    0.620E-01
RMM:   9    -0.742060028988E+03    0.25045E-03   -0.31269E-03 14754   0.751E-02    0.486E-01
RMM:  10    -0.742059997416E+03    0.31571E-04   -0.41884E-04 10050   0.277E-02
   5 F= -.74206000E+03 E0= -.74143418E+03  d E =-.210583E+01  mag=     0.0001
 curvature:  -0.23 expect dE=-0.703E+00 dE for cont linesearch -0.137E+00
 ZBRENT: interpolating
 opt :   0.3111  next Energy=  -742.139381 (dE=-0.219E+01)
 bond charge predicted
       N       E                     dE             d eps       ncg     rms          rms(c)
DAV:   1    -0.742081779932E+03   -0.21751E-01   -0.95025E+00 14048   0.482E+00    0.143E+00
RMM:   2    -0.742603720928E+03   -0.52194E+00   -0.37376E-01 13444   0.985E-01    0.856E+00
RMM:   3    -0.742120782190E+03    0.48294E+00   -0.56416E-02 13456   0.496E-01    0.186E+00
RMM:   4    -0.742104632938E+03    0.16149E-01   -0.20844E-02 13442   0.254E-01    0.189E+00
RMM:   5    -0.742087579903E+03    0.17053E-01   -0.11325E-02 13670   0.175E-01    0.111E+00
RMM:   6    -0.742083963313E+03    0.36166E-02   -0.85059E-03 13775   0.127E-01    0.633E-01
RMM:   7    -0.742083081207E+03    0.88211E-03   -0.33356E-03 13219   0.945E-02    0.381E-01
RMM:   8    -0.742082740518E+03    0.34069E-03   -0.10389E-03 12533   0.569E-02    0.236E-01
RMM:   9    -0.742082593407E+03    0.14711E-03   -0.35999E-04 10057   0.282E-02    0.165E-01
RMM:  10    -0.742082532681E+03    0.60726E-04   -0.90346E-05  8035   0.182E-02
   6 F= -.74208253E+03 E0= -.74146058E+03  d E =-.212837E+01  mag=     0.0000
 curvature:  -0.13 expect dE=-0.312E+00 dE for cont linesearch -0.273E-01
 ZBRENT: interpolating
 opt :   0.3316  next Energy=  -742.099750 (dE=-0.215E+01)
 bond charge predicted
       N       E                     dE             d eps       ncg     rms          rms(c)
DAV:   1    -0.742105601735E+03   -0.23008E-01   -0.12964E+00 13968   0.178E+00    0.426E-01
RMM:   2    -0.742145785647E+03   -0.40184E-01   -0.40003E-02 13442   0.332E-01    0.251E+00
RMM:   3    -0.742108706477E+03    0.37079E-01   -0.55714E-03 13426   0.155E-01    0.501E-01
RMM:   4    -0.742108440787E+03    0.26569E-03   -0.18914E-03 13172   0.808E-02    0.538E-01
RMM:   5    -0.742107461058E+03    0.97973E-03   -0.88005E-04 12569   0.515E-02    0.388E-01
RMM:   6    -0.742107338270E+03    0.12279E-03   -0.39977E-04 10879   0.327E-02    0.316E-01
RMM:   7    -0.742107047621E+03    0.29065E-03   -0.38678E-04 10851   0.319E-02    0.189E-01
RMM:   8    -0.742106835301E+03    0.21232E-03   -0.15829E-04  7798   0.233E-02    0.522E-02
RMM:   9    -0.742106847080E+03   -0.11779E-04   -0.41745E-05  7247   0.135E-02
   7 F= -.74210685E+03 E0= -.74148497E+03  d E =-.215268E+01  mag=     0.0000
 curvature:  -0.08 expect dE=-0.173E+00 dE for cont linesearch -0.126E-02
 ZBRENT: interpolating
 opt :   0.3382  next Energy=  -742.108541 (dE=-0.215E+01)
 bond charge predicted
       N       E                     dE             d eps       ncg     rms          rms(c)
DAV:   1    -0.742107368500E+03   -0.53320E-03   -0.13371E-01 14048   0.572E-01    0.132E-01
RMM:   2    -0.742108577638E+03   -0.12091E-02   -0.40688E-03 13174   0.107E-01    0.407E-01
RMM:   3    -0.742107765553E+03    0.81208E-03   -0.50704E-04 11216   0.432E-02    0.180E-01
RMM:   4    -0.742107851538E+03   -0.85985E-04   -0.21320E-04  8221   0.273E-02    0.237E-01
RMM:   5    -0.742107664743E+03    0.18680E-03   -0.87233E-05  7555   0.192E-02    0.164E-01
RMM:   6    -0.742107588079E+03    0.76664E-04   -0.36712E-05  7255   0.116E-02    0.102E-01
RMM:   7    -0.742107569805E+03    0.18274E-04   -0.33123E-05  7030   0.101E-02    0.632E-02
RMM:   8    -0.742107553045E+03    0.16760E-04   -0.16074E-05  6608   0.839E-03
   8 F= -.74210755E+03 E0= -.74148605E+03  d E =-.215339E+01  mag=     0.0000
 curvature:  -0.11 expect dE=-0.223E+00 dE for cont linesearch -0.601E-03
 trial: gam= 0.16947 g(F)=  0.201E+01 g(S)=  0.000E+00 ort =-0.270E+00 (trialstep = 0.868E+00)
 search vector abs. value=  0.230E+01
 bond charge predicted
       N       E                     dE             d eps       ncg     rms          rms(c)
DAV:   1    -0.741118563844E+03    0.98901E+00   -0.35836E+02 13440   0.298E+01    0.514E+00
RMM:   2    -0.742624642162E+03   -0.15061E+01   -0.79429E+00 13440   0.564E+00    0.123E+01
RMM:   3    -0.742495807111E+03    0.12884E+00   -0.16948E+00 14233   0.235E+00    0.102E+01
RMM:   4    -0.741969754676E+03    0.52605E+00   -0.39630E-01 14198   0.115E+00    0.423E+00
RMM:   5    -0.741890002872E+03    0.79752E-01   -0.11647E-01 13508   0.653E-01    0.230E+00
RMM:   6    -0.741920454419E+03   -0.30452E-01   -0.87008E-02 13451   0.494E-01    0.335E+00
RMM:   7    -0.741881684471E+03    0.38770E-01   -0.52319E-02 13565   0.402E-01    0.196E+00
RMM:   8    -0.741869630825E+03    0.12054E-01   -0.33001E-02 13745   0.287E-01    0.107E+00
RMM:   9    -0.741862811782E+03    0.68190E-02   -0.95182E-03 13852   0.176E-01    0.399E-01
RMM:  10    -0.741862235614E+03    0.57617E-03   -0.38375E-03 15045   0.765E-02    0.249E-01
RMM:  11    -0.741861720847E+03    0.51477E-03   -0.14634E-03 12825   0.523E-02    0.173E-01
RMM:  12    -0.741861747605E+03   -0.26758E-04   -0.10058E-03 12763   0.445E-02    0.127E-01
RMM:  13    -0.741861756058E+03   -0.84533E-05   -0.28079E-04  9426   0.287E-02
   9 F= -.74186176E+03 E0= -.74123971E+03  d E =0.245797E+00  mag=     0.0000
 trial-energy change:    0.245797  1 .order   -0.579805   -1.701529    0.541918
 step:   0.6581(harm=  0.6581)  dis= 0.04329  next Energy=  -742.752810 (dE=-0.645E+00)
 bond charge predicted
       N       E                     dE             d eps       ncg     rms          rms(c)
DAV:   1    -0.741993649453E+03   -0.13190E+00   -0.20961E+01 13664   0.722E+00    0.110E+00
RMM:   2    -0.742082995926E+03   -0.89346E-01   -0.42429E-01 13440   0.130E+00    0.299E+00
RMM:   3    -0.742046283489E+03    0.36712E-01   -0.91231E-02 14700   0.530E-01    0.140E+00
RMM:   4    -0.742041697915E+03    0.45856E-02   -0.18358E-02 14065   0.246E-01    0.110E+00
RMM:   5    -0.742036025213E+03    0.56727E-02   -0.53778E-03 13496   0.146E-01    0.603E-01
RMM:   6    -0.742036346071E+03   -0.32086E-03   -0.41757E-03 13456   0.106E-01    0.623E-01
RMM:   7    -0.742035387403E+03    0.95867E-03   -0.41504E-03 13990   0.104E-01    0.365E-01
RMM:   8    -0.742034669394E+03    0.71801E-03   -0.14901E-03 12836   0.685E-02    0.170E-01
RMM:   9    -0.742034556413E+03    0.11298E-03   -0.52043E-04 11090   0.360E-02    0.791E-02
RMM:  10    -0.742034514966E+03    0.41446E-04   -0.99327E-05  8186   0.175E-02
  10 F= -.74203451E+03 E0= -.74141421E+03  d E =0.730381E-01  mag=     0.0000
 curvature:  -0.39 expect dE=-0.301E+01 dE for cont linesearch -0.166E+00
 ZBRENT: interpolating
 opt :   0.4365  next Energy=  -742.144826 (dE=-0.373E-01)
 bond charge predicted
       N       E                     dE             d eps       ncg     rms          rms(c)
DAV:   1    -0.742168884538E+03   -0.13433E+00   -0.23490E+01 13632   0.764E+00    0.125E+00
RMM:   2    -0.742266874336E+03   -0.97990E-01   -0.47517E-01 13440   0.137E+00    0.309E+00
RMM:   3    -0.742243917979E+03    0.22956E-01   -0.10027E-01 14278   0.568E-01    0.222E+00
RMM:   4    -0.742219397693E+03    0.24520E-01   -0.22756E-02 14290   0.273E-01    0.998E-01
RMM:   5    -0.742217431792E+03    0.19659E-02   -0.63202E-03 13538   0.153E-01    0.780E-01
RMM:   6    -0.742217315346E+03    0.11645E-03   -0.56370E-03 13488   0.121E-01    0.742E-01
RMM:   7    -0.742215478307E+03    0.18370E-02   -0.44886E-03 13832   0.113E-01    0.412E-01
RMM:   8    -0.742214567130E+03    0.91118E-03   -0.16203E-03 12853   0.719E-02    0.181E-01
RMM:   9    -0.742214431302E+03    0.13583E-03   -0.59489E-04 11565   0.382E-02    0.917E-02
RMM:  10    -0.742214409398E+03    0.21904E-04   -0.11509E-04  8317   0.183E-02
  11 F= -.74221441E+03 E0= -.74159500E+03  d E =-.106856E+00  mag=     0.0000
 curvature:  -0.26 expect dE=-0.146E+01 dE for cont linesearch -0.594E-01
 ZBRENT: bisectioning
 opt :   0.2182  next Energy=  -742.345284 (dE=-0.238E+00)
 bond charge predicted
       N       E                     dE             d eps       ncg     rms          rms(c)
DAV:   1    -0.742219511386E+03   -0.50801E-02   -0.22770E+01 13664   0.752E+00    0.129E+00
RMM:   2    -0.742307032815E+03   -0.87521E-01   -0.45762E-01 13440   0.134E+00    0.284E+00
RMM:   3    -0.742311386763E+03   -0.43539E-02   -0.96093E-02 14064   0.564E-01    0.283E+00
RMM:   4    -0.742269314821E+03    0.42072E-01   -0.23729E-02 14402   0.277E-01    0.109E+00
RMM:   5    -0.742268891345E+03    0.42348E-03   -0.66451E-03 13503   0.154E-01    0.994E-01
RMM:   6    -0.742266406058E+03    0.24853E-02   -0.59614E-03 13525   0.124E-01    0.747E-01
RMM:   7    -0.742264590398E+03    0.18157E-02   -0.42385E-03 13751   0.111E-01    0.429E-01
RMM:   8    -0.742263599451E+03    0.99095E-03   -0.15249E-03 12811   0.708E-02    0.175E-01
RMM:   9    -0.742263501983E+03    0.97468E-04   -0.59688E-04 11557   0.373E-02
  12 F= -.74226350E+03 E0= -.74164375E+03  d E =-.155949E+00  mag=     0.0000
 curvature:  -0.56 expect dE=-0.179E+01 dE for cont linesearch -0.591E-02
 trial: gam= 1.40067 g(F)=  0.317E+01 g(S)=  0.000E+00 ort = 0.155E+00 (trialstep = 0.209E+00)
 search vector abs. value=  0.812E+01
 bond charge predicted
       N       E                     dE             d eps       ncg     rms          rms(c)
DAV:   1    -0.742392231592E+03   -0.12863E+00   -0.67073E+01 13504   0.126E+01    0.259E+00
RMM:   2    -0.743080139943E+03   -0.68791E+00   -0.15257E+00 13440   0.237E+00    0.982E+00
RMM:   3    -0.742586395916E+03    0.49374E+00   -0.31643E-01 13983   0.102E+00    0.351E+00
RMM:   4    -0.742526809685E+03    0.59586E-01   -0.89132E-02 14236   0.519E-01    0.204E+00
RMM:   5    -0.742517886413E+03    0.89233E-02   -0.40186E-02 13569   0.344E-01    0.190E+00
RMM:   6    -0.742507645506E+03    0.10241E-01   -0.19030E-02 13446   0.245E-01    0.136E+00
RMM:   7    -0.742503170697E+03    0.44748E-02   -0.12665E-02 13596   0.190E-01    0.756E-01
RMM:   8    -0.742501263557E+03    0.19071E-02   -0.48299E-03 13623   0.117E-01    0.432E-01
RMM:   9    -0.742500784698E+03    0.47886E-03   -0.18297E-03 14019   0.623E-02    0.203E-01
RMM:  10    -0.742500850530E+03   -0.65832E-04   -0.40816E-04 10605   0.294E-02
  13 F= -.74250085E+03 E0= -.74188526E+03  d E =-.237349E+00  mag=     0.0000
 trial-energy change:   -0.237349  1 .order   -0.262781   -0.708725    0.183163
 step:   0.1596(harm=  0.1661)  dis= 0.02131  next Energy=  -742.522821 (dE=-0.259E+00)
 bond charge predicted
       N       E                     dE             d eps       ncg     rms          rms(c)
DAV:   1    -0.742537178372E+03   -0.36394E-01   -0.37370E+00 13776   0.297E+00    0.612E-01
RMM:   2    -0.742591762229E+03   -0.54584E-01   -0.80866E-02 13440   0.540E-01    0.291E+00
RMM:   3    -0.742546958723E+03    0.44804E-01   -0.16017E-02 13677   0.241E-01    0.818E-01
RMM:   4    -0.742543998248E+03    0.29605E-02   -0.54702E-03 14477   0.125E-01    0.477E-01
RMM:   5    -0.742543275452E+03    0.72280E-03   -0.17480E-03 13167   0.735E-02    0.380E-01
RMM:   6    -0.742543333247E+03   -0.57795E-04   -0.86078E-04 12582   0.506E-02    0.354E-01
RMM:   7    -0.742543136553E+03    0.19669E-03   -0.83813E-04 12985   0.478E-02    0.245E-01
RMM:   8    -0.742542750703E+03    0.38585E-03   -0.27248E-04  9600   0.306E-02    0.735E-02
RMM:   9    -0.742542757149E+03   -0.64460E-05   -0.86878E-05  7962   0.173E-02
  14 F= -.74254276E+03 E0= -.74192536E+03  d E =-.279255E+00  mag=     0.0000
 curvature:  -0.19 expect dE=-0.437E+00 dE for cont linesearch -0.126E-01
 ZBRENT: interpolating
 opt :   0.1315  next Energy=  -742.552948 (dE=-0.289E+00)
 bond charge predicted
       N       E                     dE             d eps       ncg     rms          rms(c)
DAV:   1    -0.742555720829E+03   -0.12970E-01   -0.12163E+00 13888   0.170E+00    0.336E-01
RMM:   2    -0.742565375394E+03   -0.96546E-02   -0.26236E-02 13440   0.309E-01    0.117E+00
RMM:   3    -0.742558795338E+03    0.65801E-02   -0.55427E-03 14218   0.131E-01    0.427E-01
RMM:   4    -0.742558371556E+03    0.42378E-03   -0.15091E-03 13709   0.673E-02    0.327E-01
RMM:   5    -0.742558079133E+03    0.29242E-03   -0.63159E-04 12381   0.456E-02    0.273E-01
RMM:   6    -0.742557908332E+03    0.17080E-03   -0.29134E-04  9681   0.309E-02    0.176E-01
RMM:   7    -0.742557886944E+03    0.21389E-04   -0.24952E-04  9208   0.282E-02    0.124E-01
RMM:   8    -0.742557801101E+03    0.85843E-04   -0.86824E-05  7969   0.193E-02
  15 F= -.74255780E+03 E0= -.74194008E+03  d E =-.294299E+00  mag=     0.0000
 curvature:  -0.16 expect dE=-0.337E+00 dE for cont linesearch -0.160E-02
 trial: gam= 0.42780 g(F)=  0.214E+01 g(S)=  0.000E+00 ort =-0.287E+00 (trialstep = 0.193E+00)
 search vector abs. value=  0.338E+01
 bond charge predicted
       N       E                     dE             d eps       ncg     rms          rms(c)
DAV:   1    -0.742701528070E+03   -0.14364E+00   -0.18176E+01 13536   0.665E+00    0.152E+00
RMM:   2    -0.742959957398E+03   -0.25843E+00   -0.49129E-01 13444   0.129E+00    0.612E+00
RMM:   3    -0.742759591876E+03    0.20037E+00   -0.88353E-02 13624   0.586E-01    0.217E+00
RMM:   4    -0.742739049176E+03    0.20543E-01   -0.28941E-02 13561   0.313E-01    0.172E+00
RMM:   5    -0.742726541715E+03    0.12507E-01   -0.14213E-02 14196   0.202E-01    0.104E+00
RMM:   6    -0.742724605284E+03    0.19364E-02   -0.70040E-03 13625   0.133E-01    0.765E-01
RMM:   7    -0.742722813825E+03    0.17915E-02   -0.40833E-03 13577   0.112E-01    0.482E-01
RMM:   8    -0.742722657162E+03    0.15666E-03   -0.19869E-03 13130   0.733E-02    0.358E-01
RMM:   9    -0.742722286481E+03    0.37068E-03   -0.66682E-04 12121   0.425E-02    0.231E-01
RMM:  10    -0.742722079914E+03    0.20657E-03   -0.22916E-04  9003   0.228E-02    0.129E-01
RMM:  11    -0.742722031339E+03    0.48575E-04   -0.10291E-04  8100   0.181E-02
  16 F= -.74272203E+03 E0= -.74210790E+03  d E =-.164230E+00  mag=     0.0000
 trial-energy change:   -0.164230  1 .order   -0.134066   -0.389842    0.121710
 step:   0.1578(harm=  0.1475)  dis= 0.01017  next Energy=  -742.733079 (dE=-0.175E+00)
 bond charge predicted
       N       E                     dE             d eps       ncg     rms          rms(c)
DAV:   1    -0.742731615680E+03   -0.95358E-02   -0.61751E-01 14080   0.122E+00    0.273E-01
RMM:   2    -0.742744945225E+03   -0.13330E-01   -0.15842E-02 13440   0.232E-01    0.143E+00
RMM:   3    -0.742733029819E+03    0.11915E-01   -0.28667E-03 13442   0.109E-01    0.326E-01
RMM:   4    -0.742732682495E+03    0.34732E-03   -0.98896E-04 13127   0.573E-02    0.252E-01
RMM:   5    -0.742732447793E+03    0.23470E-03   -0.40917E-04 10889   0.356E-02    0.151E-01
RMM:   6    -0.742732466082E+03   -0.18289E-04   -0.15164E-04  8088   0.232E-02    0.142E-01
RMM:   7    -0.742732428506E+03    0.37576E-04   -0.11675E-04  7728   0.202E-02    0.106E-01
RMM:   8    -0.742732392333E+03    0.36174E-04   -0.60816E-05  7423   0.153E-02
  17 F= -.74273239E+03 E0= -.74211763E+03  d E =-.174591E+00  mag=     0.0000
 curvature:  -0.12 expect dE=-0.230E+00 dE for cont linesearch -0.275E-04
 trial: gam= 0.62927 g(F)=  0.196E+01 g(S)=  0.000E+00 ort = 0.281E-01 (trialstep = 0.186E+00)
 search vector abs. value=  0.333E+01
 bond charge predicted
       N       E                     dE             d eps       ncg     rms          rms(c)
DAV:   1    -0.742677729758E+03    0.54699E-01   -0.18311E+01 13520   0.690E+00    0.961E-01
RMM:   2    -0.742713101231E+03   -0.35371E-01   -0.36039E-01 13440   0.116E+00    0.140E+00
RMM:   3    -0.742717510037E+03   -0.44088E-02   -0.63395E-02 14730   0.454E-01    0.976E-01
RMM:   4    -0.742742196444E+03   -0.24686E-01   -0.13139E-02 14018   0.207E-01    0.205E+00
RMM:   5    -0.742717404036E+03    0.24792E-01   -0.53968E-03 13448   0.139E-01    0.106E+00
RMM:   6    -0.742715114198E+03    0.22898E-02   -0.37293E-03 13292   0.107E-01    0.427E-01
RMM:   7    -0.742715542152E+03   -0.42795E-03   -0.35880E-03 13592   0.916E-02    0.387E-01
RMM:   8    -0.742715274747E+03    0.26741E-03   -0.96061E-04 12740   0.569E-02    0.309E-01
RMM:   9    -0.742715111512E+03    0.16323E-03   -0.28399E-04  9448   0.260E-02    0.219E-01
RMM:  10    -0.742714953272E+03    0.15824E-03   -0.17452E-04  8532   0.231E-02    0.171E-01
RMM:  11    -0.742714918152E+03    0.35120E-04   -0.15065E-04  8308   0.189E-02
  18 F= -.74271492E+03 E0= -.74210194E+03  d E =0.174742E-01  mag=     0.0000
 trial-energy change:    0.017474  1 .order   -0.039887   -0.367743    0.287969
 step:   0.0805(harm=  0.1045)  dis= 0.00492  next Energy=  -742.807206 (dE=-0.748E-01)
 bond charge predicted
       N       E                     dE             d eps       ncg     rms          rms(c)
DAV:   1    -0.742805152683E+03   -0.90199E-01   -0.58939E+00 13504   0.391E+00    0.530E-01
RMM:   2    -0.742816961293E+03   -0.11809E-01   -0.11555E-01 13440   0.658E-01    0.905E-01
RMM:   3    -0.742817754839E+03   -0.79355E-03   -0.20337E-02 14654   0.259E-01    0.560E-01
RMM:   4    -0.742825014754E+03   -0.72599E-02   -0.42477E-03 14085   0.117E-01    0.113E+00
RMM:   5    -0.742817942694E+03    0.70721E-02   -0.17369E-03 13101   0.772E-02    0.642E-01
RMM:   6    -0.742817111593E+03    0.83110E-03   -0.10453E-03 12636   0.579E-02    0.302E-01
RMM:   7    -0.742817471590E+03   -0.36000E-03   -0.11562E-03 13080   0.509E-02    0.288E-01
RMM:   8    -0.742817110958E+03    0.36063E-03   -0.40344E-04 11162   0.379E-02    0.184E-01
RMM:   9    -0.742817074787E+03    0.36171E-04   -0.13513E-04  8063   0.206E-02
  19 F= -.74281707E+03 E0= -.74220305E+03  d E =-.846825E-01  mag=     0.0000
 curvature:  -0.08 expect dE=-0.123E+00 dE for cont linesearch -0.231E-05
 trial: gam= 0.60314 g(F)=  0.153E+01 g(S)=  0.000E+00 ort = 0.978E-02 (trialstep = 0.165E+00)
 search vector abs. value=  0.275E+01
 bond charge predicted
       N       E                     dE             d eps       ncg     rms          rms(c)
DAV:   1    -0.742817662393E+03   -0.55144E-03   -0.12932E+01 13504   0.584E+00    0.869E-01
RMM:   2    -0.742846363578E+03   -0.28701E-01   -0.25565E-01 13440   0.972E-01    0.196E+00
RMM:   3    -0.742847896715E+03   -0.15331E-02   -0.47802E-02 15098   0.387E-01    0.142E+00
RMM:   4    -0.742866477755E+03   -0.18581E-01   -0.97293E-03 13487   0.182E-01    0.212E+00
RMM:   5    -0.742844429143E+03    0.22049E-01   -0.26389E-03 13581   0.104E-01    0.962E-01
RMM:   6    -0.742845302168E+03   -0.87303E-03   -0.27621E-03 13254   0.773E-02    0.113E+00
RMM:   7    -0.742845618544E+03   -0.31638E-03   -0.46980E-03 15469   0.100E-01    0.733E-01
RMM:   8    -0.742844274511E+03    0.13440E-02   -0.88832E-04 12598   0.518E-02    0.561E-01
RMM:   9    -0.742844218096E+03    0.56416E-04   -0.25422E-04  9205   0.260E-02
  20 F= -.74284422E+03 E0= -.74223104E+03  d E =-.271433E-01  mag=    -0.0000
 trial-energy change:   -0.027143  1 .order   -0.069128   -0.253589    0.115333
 step:   0.0854(harm=  0.1135)  dis= 0.00421  next Energy=  -742.876813 (dE=-0.597E-01)
 bond charge predicted
       N       E                     dE             d eps       ncg     rms          rms(c)
DAV:   1    -0.742874454408E+03   -0.30180E-01   -0.30113E+00 13536   0.282E+00    0.476E-01
RMM:   2    -0.742891160418E+03   -0.16706E-01   -0.57434E-02 13440   0.462E-01    0.156E+00
RMM:   3    -0.742883598510E+03    0.75619E-02   -0.98869E-03 13625   0.196E-01    0.815E-01
RMM:   4    -0.742880143165E+03    0.34553E-02   -0.25523E-03 13727   0.994E-02    0.463E-01
RMM:   5    -0.742879556049E+03    0.58712E-03   -0.83538E-04 12614   0.551E-02    0.360E-01
RMM:   6    -0.742879369075E+03    0.18697E-03   -0.15174E-03 13361   0.543E-02    0.243E-01
RMM:   7    -0.742879275912E+03    0.93163E-04   -0.36763E-04 11036   0.352E-02    0.182E-01
RMM:   8    -0.742879018321E+03    0.25759E-03   -0.13659E-04  8033   0.219E-02    0.495E-02
RMM:   9    -0.742879016949E+03    0.13720E-05   -0.36840E-05  7507   0.130E-02
  21 F= -.74287902E+03 E0= -.74226504E+03  d E =-.619422E-01  mag=    -0.0000
 curvature:  -0.07 expect dE=-0.880E-01 dE for cont linesearch -0.674E-05
 trial: gam= 0.72605 g(F)=  0.123E+01 g(S)=  0.000E+00 ort = 0.161E-01 (trialstep = 0.149E+00)
 search vector abs. value=  0.270E+01
 bond charge predicted
       N       E                     dE             d eps       ncg     rms          rms(c)
DAV:   1    -0.742964981909E+03   -0.85964E-01   -0.94452E+00 13552   0.495E+00    0.960E-01
RMM:   2    -0.743018316997E+03   -0.53335E-01   -0.22407E-01 13440   0.941E-01    0.247E+00
RMM:   3    -0.743007747415E+03    0.10570E-01   -0.42720E-02 13818   0.383E-01    0.205E+00
RMM:   4    -0.742985841354E+03    0.21906E-01   -0.11584E-02 13735   0.208E-01    0.726E-01
RMM:   5    -0.742984754419E+03    0.10869E-02   -0.43581E-03 14465   0.116E-01    0.524E-01
RMM:   6    -0.742984852219E+03   -0.97800E-04   -0.21577E-03 13376   0.805E-02    0.526E-01
RMM:   7    -0.742984039170E+03    0.81305E-03   -0.16472E-03 13015   0.726E-02    0.314E-01
RMM:   8    -0.742983495758E+03    0.54341E-03   -0.71051E-04 12473   0.470E-02    0.144E-01
RMM:   9    -0.742983430470E+03    0.65288E-04   -0.23301E-04  9063   0.267E-02
  22 F= -.74298343E+03 E0= -.74236868E+03  d E =-.104414E+00  mag=    -0.0000
 trial-energy change:   -0.104414  1 .order   -0.075104   -0.185339    0.035130
 step:   0.1354(harm=  0.1254)  dis= 0.00946  next Energy=  -742.985031 (dE=-0.106E+00)
 bond charge predicted
       N       E                     dE             d eps       ncg     rms          rms(c)
DAV:   1    -0.742984964784E+03   -0.14690E-02   -0.81055E-02 14032   0.459E-01    0.887E-02
RMM:   2    -0.742985338915E+03   -0.37413E-03   -0.18925E-03 13432   0.872E-02    0.206E-01
RMM:   3    -0.742985307605E+03    0.31310E-04   -0.35242E-04  9904   0.354E-02    0.190E-01
RMM:   4    -0.742985115751E+03    0.19185E-03   -0.96717E-05  7621   0.212E-02    0.677E-02
RMM:   5    -0.742985105789E+03    0.99623E-05   -0.34403E-05  7515   0.122E-02    0.420E-02
RMM:   6    -0.742985110230E+03   -0.44415E-05   -0.25293E-05  7170   0.899E-03    0.384E-02
RMM:   7    -0.742985108871E+03    0.13590E-05   -0.14822E-05  6897   0.780E-03    0.266E-02
RMM:   8    -0.742985106974E+03    0.18973E-05   -0.60845E-06  6440   0.523E-03
  23 F= -.74298511E+03 E0= -.74237021E+03  d E =-.106090E+00  mag=    -0.0000
 curvature:  -0.11 expect dE=-0.140E+00 dE for cont linesearch -0.629E-05
 trial: gam= 1.04846 g(F)=  0.124E+01 g(S)=  0.000E+00 ort =-0.123E-01 (trialstep = 0.945E-01)
 search vector abs. value=  0.419E+01
 bond charge predicted
       N       E                     dE             d eps       ncg     rms          rms(c)
DAV:   1    -0.743012767080E+03   -0.27658E-01   -0.63416E+00 13536   0.398E+00    0.674E-01
RMM:   2    -0.743027938672E+03   -0.15172E-01   -0.13280E-01 13440   0.695E-01    0.943E-01
RMM:   3    -0.743037556349E+03   -0.96177E-02   -0.23550E-02 14088   0.282E-01    0.164E+00
RMM:   4    -0.743026166943E+03    0.11389E-01   -0.62385E-03 15449   0.136E-01    0.724E-01
RMM:   5    -0.743029750692E+03   -0.35837E-02   -0.16667E-03 13219   0.713E-02    0.101E+00
RMM:   6    -0.743024796312E+03    0.49544E-02   -0.12776E-03 12896   0.668E-02    0.452E-01
RMM:   7    -0.743024545089E+03    0.25122E-03   -0.12445E-03 13110   0.591E-02    0.287E-01
RMM:   8    -0.743024146953E+03    0.39814E-03   -0.58765E-04 12179   0.438E-02    0.152E-01
RMM:   9    -0.743024135782E+03    0.11171E-04   -0.17001E-04  8281   0.224E-02
  24 F= -.74302414E+03 E0= -.74240922E+03  d E =-.390288E-01  mag=    -0.0000
 trial-energy change:   -0.039029  1 .order   -0.015253   -0.116283    0.085777
 step:   0.0679(harm=  0.0544)  dis= 0.00594  next Energy=  -743.035685 (dE=-0.506E-01)
 bond charge predicted
       N       E                     dE             d eps       ncg     rms          rms(c)
DAV:   1    -0.743035263085E+03   -0.11116E-01   -0.50308E-01 13824   0.112E+00    0.186E-01
RMM:   2    -0.743038278204E+03   -0.30151E-02   -0.10460E-02 13440   0.195E-01    0.672E-01
RMM:   3    -0.743036277283E+03    0.20009E-02   -0.18751E-03 13731   0.821E-02    0.191E-01
RMM:   4    -0.743036358334E+03   -0.81051E-04   -0.51430E-04 11633   0.405E-02    0.268E-01
RMM:   5    -0.743036191290E+03    0.16704E-03   -0.16618E-04  8131   0.255E-02    0.203E-01
RMM:   6    -0.743036052051E+03    0.13924E-03   -0.12709E-04  7795   0.216E-02    0.104E-01
RMM:   7    -0.743036070879E+03   -0.18828E-04   -0.83729E-05  7508   0.167E-02    0.879E-02
RMM:   8    -0.743036040826E+03    0.30054E-04   -0.38046E-05  7314   0.130E-02
  25 F= -.74303604E+03 E0= -.74242055E+03  d E =-.509339E-01  mag=    -0.0000
 curvature:  -0.08 expect dE=-0.152E+00 dE for cont linesearch -0.587E-05
 trial: gam= 0.86519 g(F)=  0.185E+01 g(S)=  0.000E+00 ort =-0.173E-01 (trialstep = 0.754E-01)
 search vector abs. value=  0.496E+01
 bond charge predicted
       N       E                     dE             d eps       ncg     rms          rms(c)
DAV:   1    -0.743054859775E+03   -0.18789E-01   -0.49449E+00 13536   0.351E+00    0.514E-01
RMM:   2    -0.743064466449E+03   -0.96067E-02   -0.94091E-02 13440   0.588E-01    0.815E-01
RMM:   3    -0.743064912336E+03   -0.44589E-03   -0.16118E-02 14569   0.231E-01    0.392E-01
RMM:   4    -0.743077845484E+03   -0.12933E-01   -0.44466E-03 13894   0.113E-01    0.154E+00
RMM:   5    -0.743066523908E+03    0.11322E-01   -0.12445E-03 12821   0.707E-02    0.666E-01
RMM:   6    -0.743064307492E+03    0.22164E-02   -0.83615E-04 12636   0.506E-02    0.337E-01
RMM:   7    -0.743064241055E+03    0.66438E-04   -0.64547E-04 12144   0.411E-02    0.177E-01
RMM:   8    -0.743064115880E+03    0.12517E-03   -0.30635E-04 10030   0.310E-02    0.129E-01
RMM:   9    -0.743064086989E+03    0.28891E-04   -0.89498E-05  8020   0.191E-02
  26 F= -.74306409E+03 E0= -.74244918E+03  d E =-.280462E-01  mag=    -0.0000
 trial-energy change:   -0.028046  1 .order   -0.041353   -0.138566    0.055860
 step:   0.0464(harm=  0.0537)  dis= 0.00494  next Energy=  -743.075582 (dE=-0.395E-01)
 bond charge predicted
       N       E                     dE             d eps       ncg     rms          rms(c)
DAV:   1    -0.743077112858E+03   -0.12997E-01   -0.72934E-01 13840   0.135E+00    0.197E-01
RMM:   2    -0.743079465335E+03   -0.23525E-02   -0.13868E-02 13440   0.225E-01    0.521E-01
RMM:   3    -0.743078748627E+03    0.71671E-03   -0.24500E-03 14124   0.906E-02    0.239E-01
RMM:   4    -0.743078979244E+03   -0.23062E-03   -0.59195E-04 12148   0.439E-02    0.358E-01
RMM:   5    -0.743078662119E+03    0.31713E-03   -0.19497E-04  8456   0.278E-02    0.240E-01
RMM:   6    -0.743078400164E+03    0.26195E-03   -0.12417E-04  7940   0.214E-02    0.136E-01
RMM:   7    -0.743078377811E+03    0.22354E-04   -0.96765E-05  7650   0.177E-02    0.659E-02
RMM:   8    -0.743078366430E+03    0.11381E-04   -0.47173E-05  7404   0.134E-02
  27 F= -.74307837E+03 E0= -.74246323E+03  d E =-.423256E-01  mag=    -0.0000
 curvature:  -0.06 expect dE=-0.691E-01 dE for cont linesearch -0.717E-04
 trial: gam= 0.31979 g(F)=  0.108E+01 g(S)=  0.000E+00 ort =-0.744E-01 (trialstep = 0.696E-01)
 search vector abs. value=  0.154E+01
 bond charge predicted
       N       E                     dE             d eps       ncg     rms          rms(c)
DAV:   1    -0.743126530309E+03   -0.48152E-01   -0.12301E+00 13696   0.181E+00    0.306E-01
RMM:   2    -0.743129695115E+03   -0.31648E-02   -0.26875E-02 13440   0.307E-01    0.500E-01
RMM:   3    -0.743131250674E+03   -0.15556E-02   -0.42446E-03 13934   0.126E-01    0.678E-01
RMM:   4    -0.743128727206E+03    0.25235E-02   -0.95944E-04 13438   0.613E-02    0.197E-01
RMM:   5    -0.743129099914E+03   -0.37271E-03   -0.42967E-04 11547   0.371E-02    0.292E-01
RMM:   6    -0.743128735940E+03    0.36397E-03   -0.30214E-04  9942   0.326E-02    0.154E-01
RMM:   7    -0.743128708871E+03    0.27068E-04   -0.24135E-04  9017   0.281E-02    0.113E-01
RMM:   8    -0.743128667173E+03    0.41698E-04   -0.11984E-04  7976   0.220E-02
  28 F= -.74312867E+03 E0= -.74251377E+03  d E =-.503007E-01  mag=    -0.0000
 trial-energy change:   -0.050301  1 .order   -0.050689   -0.073224   -0.028154
 step:   0.1130(harm=  0.1130)  dis= 0.00691  next Energy=  -743.137849 (dE=-0.595E-01)
 bond charge predicted
       N       E                     dE             d eps       ncg     rms          rms(c)
DAV:   1    -0.743136539683E+03   -0.78308E-02   -0.47896E-01 13984   0.113E+00    0.201E-01
RMM:   2    -0.743138861177E+03   -0.23215E-02   -0.10797E-02 13440   0.194E-01    0.495E-01
RMM:   3    -0.743138355378E+03    0.50580E-03   -0.18220E-03 13728   0.822E-02    0.418E-01
RMM:   4    -0.743137424137E+03    0.93124E-03   -0.41838E-04 11084   0.411E-02    0.142E-01
RMM:   5    -0.743137474590E+03   -0.50453E-04   -0.14467E-04  8130   0.231E-02    0.146E-01
RMM:   6    -0.743137435062E+03    0.39528E-04   -0.10247E-04  7938   0.200E-02    0.871E-02
RMM:   7    -0.743137451283E+03   -0.16221E-04   -0.94122E-05  7843   0.171E-02    0.883E-02
RMM:   8    -0.743137416296E+03    0.34988E-04   -0.40358E-05  7556   0.140E-02
  29 F= -.74313742E+03 E0= -.74252303E+03  d E =-.590499E-01  mag=     0.0000
 curvature:  -0.08 expect dE=-0.852E-01 dE for cont linesearch -0.661E-05
 trial: gam= 1.08174 g(F)=  0.103E+01 g(S)=  0.000E+00 ort =-0.111E-01 (trialstep = 0.428E-01)
 search vector abs. value=  0.281E+01
 bond charge predicted
       N       E                     dE             d eps       ncg     rms          rms(c)
DAV:   1    -0.743170210875E+03   -0.32760E-01   -0.65232E-01 13744   0.131E+00    0.230E-01
RMM:   2    -0.743172218397E+03   -0.20075E-02   -0.13652E-02 13440   0.224E-01    0.394E-01
RMM:   3    -0.743173274708E+03   -0.10563E-02   -0.25413E-03 13856   0.954E-02    0.572E-01
RMM:   4    -0.743171626401E+03    0.16483E-02   -0.61474E-04 12592   0.467E-02    0.206E-01
RMM:   5    -0.743171939890E+03   -0.31349E-03   -0.24059E-04  8771   0.285E-02    0.286E-01
RMM:   6    -0.743171561993E+03    0.37790E-03   -0.14857E-04  8062   0.246E-02    0.149E-01
RMM:   7    -0.743171521649E+03    0.40343E-04   -0.11981E-04  7970   0.196E-02    0.902E-02
RMM:   8    -0.743171492896E+03    0.28753E-04   -0.66469E-05  7758   0.163E-02
  30 F= -.74317149E+03 E0= -.74255775E+03  d E =-.340766E-01  mag=     0.0000
 trial-energy change:   -0.034077  1 .order   -0.034060   -0.043747   -0.024373
 step:   0.0967(harm=  0.0967)  dis= 0.00889  next Energy=  -743.186808 (dE=-0.494E-01)
 bond charge predicted
       N       E                     dE             d eps       ncg     rms          rms(c)
DAV:   1    -0.743184527758E+03   -0.13006E-01   -0.10317E+00 13808   0.164E+00    0.290E-01
RMM:   2    -0.743187591217E+03   -0.30635E-02   -0.21662E-02 13440   0.282E-01    0.480E-01
RMM:   3    -0.743189267836E+03   -0.16766E-02   -0.40151E-03 13902   0.120E-01    0.706E-01
RMM:   4    -0.743186766603E+03    0.25012E-02   -0.99621E-04 13543   0.584E-02    0.244E-01
RMM:   5    -0.743187267469E+03   -0.50087E-03   -0.37730E-04 11075   0.353E-02    0.355E-01
RMM:   6    -0.743186679758E+03    0.58771E-03   -0.21898E-04  8592   0.281E-02    0.187E-01
RMM:   7    -0.743186616202E+03    0.63556E-04   -0.18927E-04  8472   0.251E-02    0.115E-01
RMM:   8    -0.743186567349E+03    0.48853E-04   -0.10539E-04  7941   0.199E-02
  31 F= -.74318657E+03 E0= -.74257339E+03  d E =-.491511E-01  mag=     0.0000
 curvature:  -0.13 expect dE=-0.196E+00 dE for cont linesearch -0.183E-05
 trial: gam= 1.41433 g(F)=  0.147E+01 g(S)=  0.000E+00 ort = 0.621E-02 (trialstep = 0.212E-01)
 search vector abs. value=  0.711E+01
 bond charge predicted
       N       E                     dE             d eps       ncg     rms          rms(c)
DAV:   1    -0.743214071018E+03   -0.27455E-01   -0.37382E-01 13888   0.984E-01    0.171E-01
RMM:   2    -0.743215147074E+03   -0.10761E-02   -0.73489E-03 13440   0.164E-01    0.322E-01
RMM:   3    -0.743215467466E+03   -0.32039E-03   -0.13589E-03 13676   0.710E-02    0.360E-01
RMM:   4    -0.743214922121E+03    0.54534E-03   -0.35960E-04  9854   0.335E-02    0.183E-01
RMM:   5    -0.743215361133E+03   -0.43901E-03   -0.13869E-04  8108   0.240E-02    0.312E-01
RMM:   6    -0.743215068169E+03    0.29296E-03   -0.95948E-05  7863   0.182E-02    0.210E-01
RMM:   7    -0.743214900410E+03    0.16776E-03   -0.11250E-04  7785   0.182E-02    0.106E-01
RMM:   8    -0.743214846129E+03    0.54282E-04   -0.72203E-05  7607   0.165E-02
  32 F= -.74321485E+03 E0= -.74260195E+03  d E =-.282788E-01  mag=     0.0000
 ZBRENT: can't locate minimum, use default step
 trial-energy change:   -0.028279  1 .order   -0.028168   -0.031399   -0.024936
 step:   0.0847(harm=  0.1028)  dis= 0.01244  next Energy=  -743.262837 (dE=-0.763E-01)
 bond charge predicted
       N       E                     dE             d eps       ncg     rms          rms(c)
DAV:   1    -0.743254638298E+03   -0.39738E-01   -0.33658E+00 13536   0.295E+00    0.462E-01
RMM:   2    -0.743261784631E+03   -0.71463E-02   -0.65343E-02 13440   0.489E-01    0.787E-01
RMM:   3    -0.743261618231E+03    0.16640E-03   -0.11582E-02 14618   0.201E-01    0.312E-01
RMM:   4    -0.743265451512E+03   -0.38333E-02   -0.27479E-03 13841   0.932E-02    0.878E-01
RMM:   5    -0.743262188928E+03    0.32626E-02   -0.75728E-04 12985   0.506E-02    0.458E-01
RMM:   6    -0.743262383393E+03   -0.19446E-03   -0.67877E-04 12520   0.405E-02    0.462E-01
RMM:   7    -0.743261646079E+03    0.73731E-03   -0.44565E-04 11093   0.370E-02    0.191E-01
RMM:   8    -0.743261498775E+03    0.14730E-03   -0.25192E-04  9262   0.280E-02    0.126E-01
RMM:   9    -0.743261500769E+03   -0.19933E-05   -0.68809E-05  8050   0.177E-02
  33 F= -.74326150E+03 E0= -.74264902E+03  d E =-.749334E-01  mag=     0.0000
 curvature:  -0.23 expect dE=-0.284E+00 dE for cont linesearch -0.387E-02
 ZBRENT: extrapolating
 opt :   0.1107  next Energy=  -743.265965 (dE=-0.794E-01)
 bond charge predicted
       N       E                     dE             d eps       ncg     rms          rms(c)
DAV:   1    -0.743263619991E+03   -0.21212E-02   -0.56590E-01 13824   0.121E+00    0.211E-01
RMM:   2    -0.743264815335E+03   -0.11953E-02   -0.11111E-02 13440   0.202E-01    0.243E-01
RMM:   3    -0.743265787338E+03   -0.97200E-03   -0.21287E-03 14572   0.844E-02    0.429E-01
RMM:   4    -0.743264907721E+03    0.87962E-03   -0.42299E-04 10760   0.379E-02    0.175E-01
RMM:   5    -0.743265174231E+03   -0.26651E-03   -0.22467E-04  8700   0.282E-02    0.276E-01
RMM:   6    -0.743264953278E+03    0.22095E-03   -0.17814E-04  8249   0.276E-02    0.134E-01
RMM:   7    -0.743264893563E+03    0.59715E-04   -0.11948E-04  7944   0.189E-02    0.948E-02
RMM:   8    -0.743264874476E+03    0.19087E-04   -0.43418E-05  7690   0.144E-02
  34 F= -.74326487E+03 E0= -.74265234E+03  d E =-.783071E-01  mag=     0.0000
 curvature:  -0.27 expect dE=-0.437E+00 dE for cont linesearch -0.242E-03
 trial: gam= 0.97314 g(F)=  0.162E+01 g(S)=  0.000E+00 ort =-0.797E-01 (trialstep = 0.339E-01)
 search vector abs. value=  0.819E+01
 bond charge predicted
       N       E                     dE             d eps       ncg     rms          rms(c)
DAV:   1    -0.743303434577E+03   -0.38541E-01   -0.12847E+00 13504   0.182E+00    0.259E-01
RMM:   2    -0.743308252042E+03   -0.48175E-02   -0.24056E-02 13440   0.288E-01    0.752E-01
RMM:   3    -0.743306772087E+03    0.14800E-02   -0.37631E-03 13542   0.123E-01    0.400E-01
RMM:   4    -0.743306119435E+03    0.65265E-03   -0.11694E-03 13982   0.603E-02    0.190E-01
RMM:   5    -0.743306139979E+03   -0.20545E-04   -0.32211E-04 10104   0.339E-02    0.220E-01
RMM:   6    -0.743306070184E+03    0.69795E-04   -0.19263E-04  8413   0.268E-02    0.176E-01
RMM:   7    -0.743305968369E+03    0.10182E-03   -0.14000E-04  8137   0.227E-02    0.684E-02
RMM:   8    -0.743305951946E+03    0.16423E-04   -0.64950E-05  7866   0.157E-02
  35 F= -.74330595E+03 E0= -.74269377E+03  d E =-.410775E-01  mag=     0.0000
 trial-energy change:   -0.041077  1 .order   -0.039271   -0.052237   -0.026304
 step:   0.0545(harm=  0.0683)  dis= 0.00856  next Energy=  -743.314336 (dE=-0.495E-01)
 bond charge predicted
       N       E                     dE             d eps       ncg     rms          rms(c)
DAV:   1    -0.743314166636E+03   -0.81983E-02   -0.47233E-01 13952   0.110E+00    0.152E-01
RMM:   2    -0.743315143587E+03   -0.97695E-03   -0.88032E-03 13440   0.174E-01    0.269E-01
RMM:   3    -0.743315123146E+03    0.20441E-04   -0.13324E-03 13555   0.722E-02    0.115E-01
RMM:   4    -0.743315819396E+03   -0.69625E-03   -0.41841E-04 10456   0.352E-02    0.332E-01
RMM:   5    -0.743315193312E+03    0.62608E-03   -0.13842E-04  8131   0.236E-02    0.155E-01
RMM:   6    -0.743315151398E+03    0.41915E-04   -0.76144E-05  7892   0.167E-02    0.989E-02
RMM:   7    -0.743315130253E+03    0.21145E-04   -0.47638E-05  7682   0.130E-02    0.603E-02
RMM:   8    -0.743315118115E+03    0.12138E-04   -0.24229E-05  7265   0.998E-03
  36 F= -.74331512E+03 E0= -.74270298E+03  d E =-.502436E-01  mag=     0.0000
 curvature:  -0.15 expect dE=-0.176E+00 dE for cont linesearch -0.119E-03
 trial: gam= 0.25670 g(F)=  0.115E+01 g(S)=  0.000E+00 ort = 0.802E-01 (trialstep = 0.380E-01)
 search vector abs. value=  0.174E+01
 bond charge predicted
       N       E                     dE             d eps       ncg     rms          rms(c)
DAV:   1    -0.743351549139E+03   -0.36419E-01   -0.42762E-01 14048   0.109E+00    0.186E-01
RMM:   2    -0.743353291545E+03   -0.17424E-02   -0.92370E-03 13440   0.190E-01    0.565E-01
RMM:   3    -0.743352622178E+03    0.66937E-03   -0.14701E-03 13917   0.752E-02    0.299E-01
RMM:   4    -0.743354545733E+03   -0.19236E-02   -0.51141E-04 12224   0.399E-02    0.641E-01
RMM:   5    -0.743352554889E+03    0.19908E-02   -0.20789E-04  8589   0.288E-02    0.260E-01
RMM:   6    -0.743352544405E+03    0.10484E-04   -0.10160E-04  7858   0.187E-02    0.235E-01
RMM:   7    -0.743352533302E+03    0.11103E-04   -0.68959E-05  7746   0.159E-02    0.205E-01
RMM:   8    -0.743352464579E+03    0.68723E-04   -0.40822E-05  7500   0.119E-02
  37 F= -.74335246E+03 E0= -.74274086E+03  d E =-.373465E-01  mag=     0.0000
 trial-energy change:   -0.037346  1 .order   -0.037127   -0.044662   -0.029591
 step:   0.1126(harm=  0.1126)  dis= 0.00511  next Energy=  -743.381294 (dE=-0.662E-01)
 bond charge predicted
       N       E                     dE             d eps       ncg     rms          rms(c)
DAV:   1    -0.743378814507E+03   -0.26281E-01   -0.16486E+00 13824   0.213E+00    0.382E-01
RMM:   2    -0.743385739948E+03   -0.69254E-02   -0.35770E-02 13440   0.374E-01    0.113E+00
RMM:   3    -0.743383789218E+03    0.19507E-02   -0.60046E-03 14446   0.148E-01    0.736E-01
RMM:   4    -0.743389888293E+03   -0.60991E-02   -0.19454E-03 13491   0.786E-02    0.123E+00
RMM:   5    -0.743382605673E+03    0.72826E-02   -0.77648E-04 12544   0.559E-02    0.505E-01
RMM:   6    -0.743382786744E+03   -0.18107E-03   -0.35790E-04 10531   0.303E-02    0.512E-01
RMM:   7    -0.743382811106E+03   -0.24362E-04   -0.24262E-04  9317   0.278E-02    0.476E-01
RMM:   8    -0.743382430131E+03    0.38097E-03   -0.19268E-04  8558   0.244E-02    0.321E-01
RMM:   9    -0.743382262400E+03    0.16773E-03   -0.68522E-05  7928   0.160E-02    0.251E-01
RMM:  10    -0.743382210439E+03    0.51961E-04   -0.27558E-05  7428   0.957E-03
  38 F= -.74338221E+03 E0= -.74277064E+03  d E =-.670923E-01  mag=     0.0000
 curvature:  -0.08 expect dE=-0.934E-01 dE for cont linesearch -0.166E-04
 trial: gam= 0.91961 g(F)=  0.112E+01 g(S)=  0.000E+00 ort = 0.186E-01 (trialstep = 0.350E-01)
 search vector abs. value=  0.262E+01
 bond charge predicted
       N       E                     dE             d eps       ncg     rms          rms(c)
DAV:   1    -0.743409460047E+03   -0.27198E-01   -0.52163E-01 13984   0.117E+00    0.291E-01
RMM:   2    -0.743411760466E+03   -0.23004E-02   -0.12530E-02 13440   0.216E-01    0.679E-01
RMM:   3    -0.743410801047E+03    0.95942E-03   -0.21137E-03 14028   0.878E-02    0.407E-01
RMM:   4    -0.743410732471E+03    0.68576E-04   -0.57185E-04 11307   0.391E-02    0.358E-01
RMM:   5    -0.743411942685E+03   -0.12102E-02   -0.48083E-04 11833   0.348E-02    0.588E-01
RMM:   6    -0.743411173303E+03    0.76938E-03   -0.17121E-04  8136   0.244E-02    0.365E-01
RMM:   7    -0.743410766886E+03    0.40642E-03   -0.30705E-04  9608   0.251E-02    0.194E-01
RMM:   8    -0.743410596296E+03    0.17059E-03   -0.11920E-04  7800   0.213E-02    0.101E-01
RMM:   9    -0.743410568880E+03    0.27416E-04   -0.30100E-05  7434   0.115E-02
  39 F= -.74341057E+03 E0= -.74279865E+03  d E =-.283584E-01  mag=     0.0000
 trial-energy change:   -0.028358  1 .order   -0.027390   -0.039900   -0.014881
 step:   0.0506(harm=  0.0558)  dis= 0.00345  next Energy=  -743.413968 (dE=-0.318E-01)
 bond charge predicted
       N       E                     dE             d eps       ncg     rms          rms(c)
DAV:   1    -0.743414259305E+03   -0.36630E-02   -0.10342E-01 13920   0.523E-01    0.119E-01
RMM:   2    -0.743415155411E+03   -0.89611E-03   -0.26397E-03 13440   0.980E-02    0.421E-01
RMM:   3    -0.743414546859E+03    0.60855E-03   -0.46141E-04 11216   0.408E-02    0.190E-01
RMM:   4    -0.743414844136E+03   -0.29728E-03   -0.12670E-04  7900   0.226E-02    0.274E-01
RMM:   5    -0.743414541149E+03    0.30299E-03   -0.96132E-05  7648   0.197E-02    0.166E-01
RMM:   6    -0.743414514163E+03    0.26986E-04   -0.26812E-05  7298   0.111E-02    0.111E-01
RMM:   7    -0.743414525513E+03   -0.11350E-04   -0.13849E-05  6801   0.661E-03    0.104E-01
RMM:   8    -0.743414512906E+03    0.12607E-04   -0.10068E-05  6558   0.661E-03
  40 F= -.74341451E+03 E0= -.74280298E+03  d E =-.323025E-01  mag=     0.0000
 curvature:  -0.06 expect dE=-0.361E-01 dE for cont linesearch -0.144E-03
 trial: gam= 0.39435 g(F)=  0.599E+00 g(S)=  0.000E+00 ort = 0.793E-01 (trialstep = 0.381E-01)
 search vector abs. value=  0.107E+01
 bond charge predicted
       N       E                     dE             d eps       ncg     rms          rms(c)
DAV:   1    -0.743433867520E+03   -0.19342E-01   -0.22666E-01 13824   0.774E-01    0.128E-01
RMM:   2    -0.743435260556E+03   -0.13930E-02   -0.52074E-03 13440   0.144E-01    0.440E-01
RMM:   3    -0.743434392955E+03    0.86760E-03   -0.10083E-03 13799   0.594E-02    0.136E-01
RMM:   4    -0.743434482778E+03   -0.89823E-04   -0.23819E-04  8478   0.294E-02    0.193E-01
RMM:   5    -0.743434448831E+03    0.33947E-04   -0.94671E-05  7866   0.224E-02    0.171E-01
RMM:   6    -0.743434364454E+03    0.84376E-04   -0.49399E-05  7564   0.129E-02    0.860E-02
RMM:   7    -0.743434349926E+03    0.14528E-04   -0.41738E-05  7438   0.109E-02    0.484E-02
RMM:   8    -0.743434346436E+03    0.34907E-05   -0.16291E-05  6846   0.903E-03
  41 F= -.74343435E+03 E0= -.74282291E+03  d E =-.198335E-01  mag=     0.0000
 trial-energy change:   -0.019834  1 .order   -0.019868   -0.024020   -0.015717
 step:   0.1103(harm=  0.1103)  dis= 0.00510  next Energy=  -743.449258 (dE=-0.347E-01)
 bond charge predicted
       N       E                     dE             d eps       ncg     rms          rms(c)
DAV:   1    -0.743447638638E+03   -0.13289E-01   -0.81145E-01 13840   0.146E+00    0.239E-01
RMM:   2    -0.743450251056E+03   -0.26124E-02   -0.18386E-02 13440   0.272E-01    0.546E-01
RMM:   3    -0.743449811472E+03    0.43958E-03   -0.35966E-03 14778   0.110E-01    0.292E-01
RMM:   4    -0.743450618573E+03   -0.80710E-03   -0.87099E-04 13314   0.538E-02    0.506E-01
RMM:   5    -0.743449803635E+03    0.81494E-03   -0.33612E-04 10156   0.352E-02    0.325E-01
RMM:   6    -0.743449402235E+03    0.40140E-03   -0.16860E-04  8252   0.246E-02    0.156E-01
RMM:   7    -0.743449413626E+03   -0.11392E-04   -0.11958E-04  8058   0.192E-02    0.135E-01
RMM:   8    -0.743449345022E+03    0.68605E-04   -0.63501E-05  7792   0.166E-02
  42 F= -.74344935E+03 E0= -.74283858E+03  d E =-.348321E-01  mag=     0.0000
 curvature:  -0.09 expect dE=-0.579E-01 dE for cont linesearch -0.478E-05
 trial: gam= 1.07122 g(F)=  0.618E+00 g(S)=  0.000E+00 ort =-0.739E-02 (trialstep = 0.307E-01)
 search vector abs. value=  0.183E+01
 bond charge predicted
       N       E                     dE             d eps       ncg     rms          rms(c)
DAV:   1    -0.743464929475E+03   -0.15516E-01   -0.22276E-01 14048   0.766E-01    0.122E-01
RMM:   2    -0.743465393299E+03   -0.46382E-03   -0.44110E-03 13440   0.131E-01    0.142E-01
RMM:   3    -0.743465601940E+03   -0.20864E-03   -0.79558E-04 13340   0.538E-02    0.223E-01
RMM:   4    -0.743465480903E+03    0.12104E-03   -0.16826E-04  8140   0.248E-02    0.166E-01
RMM:   5    -0.743465748086E+03   -0.26718E-03   -0.63820E-05  7811   0.182E-02    0.272E-01
RMM:   6    -0.743465670466E+03    0.77620E-04   -0.24674E-05  7622   0.949E-03    0.227E-01
RMM:   7    -0.743465491636E+03    0.17883E-03   -0.10744E-04  7692   0.162E-02    0.126E-01
RMM:   8    -0.743465430830E+03    0.60806E-04   -0.72113E-05  7530   0.178E-02
  43 F= -.74346543E+03 E0= -.74285504E+03  d E =-.160858E-01  mag=     0.0000
 trial-energy change:   -0.016086  1 .order   -0.015745   -0.018746   -0.012744
 step:   0.0960(harm=  0.0960)  dis= 0.00447  next Energy=  -743.478619 (dE=-0.293E-01)
 bond charge predicted
       N       E                     dE             d eps       ncg     rms          rms(c)
DAV:   1    -0.743472926842E+03   -0.74352E-02   -0.10044E+00 13632   0.163E+00    0.243E-01
RMM:   2    -0.743475336598E+03   -0.24098E-02   -0.19955E-02 13440   0.277E-01    0.489E-01
RMM:   3    -0.743475149324E+03    0.18727E-03   -0.37876E-03 14966   0.113E-01    0.236E-01
RMM:   4    -0.743478366386E+03   -0.32171E-02   -0.93163E-04 13229   0.539E-02    0.801E-01
RMM:   5    -0.743475704586E+03    0.26618E-02   -0.34361E-04 10289   0.391E-02    0.408E-01
RMM:   6    -0.743475122978E+03    0.58161E-03   -0.18272E-04  8360   0.242E-02    0.210E-01
RMM:   7    -0.743475124862E+03   -0.18842E-05   -0.12955E-04  8136   0.203E-02    0.162E-01
RMM:   8    -0.743475142305E+03   -0.17443E-04   -0.67133E-05  7856   0.171E-02
  44 F= -.74347514E+03 E0= -.74286526E+03  d E =-.257973E-01  mag=     0.0000
 curvature:  -0.14 expect dE=-0.171E+00 dE for cont linesearch -0.132E-02
 trial: gam= 1.74677 g(F)=  0.119E+01 g(S)=  0.000E+00 ort =-0.130E+00 (trialstep = 0.127E-01)
 search vector abs. value=  0.632E+01
 bond charge predicted
       N       E                     dE             d eps       ncg     rms          rms(c)
DAV:   1    -0.743485564602E+03   -0.10440E-01   -0.12080E-01 14144   0.564E-01    0.161E-01
RMM:   2    -0.743487701989E+03   -0.21374E-02   -0.27215E-03 13440   0.984E-02    0.507E-01
RMM:   3    -0.743486910157E+03    0.79183E-03   -0.67811E-04 12828   0.520E-02    0.463E-01
RMM:   4    -0.743486247849E+03    0.66231E-03   -0.19212E-04  8474   0.267E-02    0.290E-01
RMM:   5    -0.743485989291E+03    0.25856E-03   -0.68304E-05  7706   0.185E-02    0.202E-01
RMM:   6    -0.743485832624E+03    0.15667E-03   -0.40160E-05  7614   0.112E-02    0.974E-02
RMM:   7    -0.743485826701E+03    0.59230E-05   -0.25183E-05  7422   0.102E-02    0.722E-02
RMM:   8    -0.743485811767E+03    0.14934E-04   -0.77820E-06  6517   0.602E-03
  45 F= -.74348581E+03 E0= -.74287653E+03  d E =-.106695E-01  mag=     0.0000
 ZBRENT: can't locate minimum, use default step
 trial-energy change:   -0.010669  1 .order   -0.010695   -0.012220   -0.009170
 step:   0.0507(harm=  0.0508)  dis= 0.00481  next Energy=  -743.499624 (dE=-0.245E-01)
 bond charge predicted
       N       E                     dE             d eps       ncg     rms          rms(c)
DAV:   1    -0.743496167858E+03   -0.10341E-01   -0.10886E+00 13504   0.169E+00    0.251E-01
RMM:   2    -0.743498341999E+03   -0.21741E-02   -0.20736E-02 13440   0.277E-01    0.346E-01
RMM:   3    -0.743498654724E+03   -0.31273E-03   -0.33810E-03 14120   0.113E-01    0.341E-01
RMM:   4    -0.743498353705E+03    0.30102E-03   -0.89394E-04 12734   0.506E-02    0.165E-01
RMM:   5    -0.743499945620E+03   -0.15919E-02   -0.36477E-04 10584   0.335E-02    0.557E-01
RMM:   6    -0.743498635200E+03    0.13104E-02   -0.17252E-04  8282   0.266E-02    0.270E-01
RMM:   7    -0.743498437643E+03    0.19756E-03   -0.23007E-04  8684   0.247E-02    0.144E-01
RMM:   8    -0.743498346011E+03    0.91632E-04   -0.11504E-04  7916   0.216E-02
  46 F= -.74349835E+03 E0= -.74289018E+03  d E =-.232037E-01  mag=     0.0000
 curvature:  -0.17 expect dE=-0.170E+00 dE for cont linesearch -0.130E-03
 trial: gam= 0.40922 g(F)=  0.102E+01 g(S)=  0.000E+00 ort =-0.702E-01 (trialstep = 0.203E-01)
 search vector abs. value=  0.202E+01
 bond charge predicted
       N       E                     dE             d eps       ncg     rms          rms(c)
DAV:   1    -0.743516852249E+03   -0.18415E-01   -0.87560E-02 13968   0.493E-01    0.950E-02
RMM:   2    -0.743517567593E+03   -0.71534E-03   -0.20045E-03 13440   0.888E-02    0.309E-01
RMM:   3    -0.743517165697E+03    0.40190E-03   -0.36683E-04 10697   0.388E-02    0.177E-01
RMM:   4    -0.743517028813E+03    0.13688E-03   -0.99121E-05  7754   0.213E-02    0.577E-02
RMM:   5    -0.743517040328E+03   -0.11515E-04   -0.36915E-05  7510   0.127E-02    0.672E-02
RMM:   6    -0.743517050786E+03   -0.10458E-04   -0.21559E-05  7316   0.863E-03    0.606E-02
RMM:   7    -0.743517050401E+03    0.38515E-06   -0.15438E-05  6790   0.783E-03    0.415E-02
RMM:   8    -0.743517044567E+03    0.58340E-05   -0.79051E-06  6627   0.566E-03
  47 F= -.74351704E+03 E0= -.74290882E+03  d E =-.186986E-01  mag=     0.0000
 ZBRENT: can't locate minimum, use default step
 trial-energy change:   -0.018699  1 .order   -0.018689   -0.020143   -0.017236
 step:   0.0811(harm=  0.1405)  dis= 0.00485  next Energy=  -743.568135 (dE=-0.698E-01)
 bond charge predicted
       N       E                     dE             d eps       ncg     rms          rms(c)
DAV:   1    -0.743551761472E+03   -0.34711E-01   -0.78820E-01 13728   0.148E+00    0.239E-01
RMM:   2    -0.743556299452E+03   -0.45380E-02   -0.17124E-02 13440   0.261E-01    0.767E-01
RMM:   3    -0.743554205997E+03    0.20935E-02   -0.29168E-03 13500   0.110E-01    0.433E-01
RMM:   4    -0.743553394523E+03    0.81147E-03   -0.87588E-04 13412   0.537E-02    0.168E-01
RMM:   5    -0.743553599195E+03   -0.20467E-03   -0.23178E-04  8506   0.278E-02    0.247E-01
RMM:   6    -0.743553536891E+03    0.62304E-04   -0.16698E-04  8202   0.258E-02    0.185E-01
RMM:   7    -0.743553490007E+03    0.46884E-04   -0.14149E-04  8102   0.226E-02    0.118E-01
RMM:   8    -0.743553410841E+03    0.79166E-04   -0.76636E-05  7920   0.168E-02
  48 F= -.74355341E+03 E0= -.74294568E+03  d E =-.550648E-01  mag=     0.0000
 curvature:  -0.11 expect dE=-0.667E-01 dE for cont linesearch -0.587E-02
 ZBRENT: increasing intervall
 opt :   0.2027  next Energy=  -743.530645 (dE=-0.323E-01)
 bond charge predicted
       N       E                     dE             d eps       ncg     rms          rms(c)
DAV:   1    -0.743537020030E+03    0.16470E-01   -0.31535E+00 13600   0.296E+00    0.473E-01
RMM:   2    -0.743550821482E+03   -0.13801E-01   -0.68421E-02 13440   0.522E-01    0.132E+00
RMM:   3    -0.743546826106E+03    0.39954E-02   -0.11523E-02 13519   0.218E-01    0.835E-01
RMM:   4    -0.743543823245E+03    0.30029E-02   -0.36292E-03 15539   0.106E-01    0.349E-01
RMM:   5    -0.743544303420E+03   -0.48017E-03   -0.90884E-04 13096   0.532E-02    0.463E-01
RMM:   6    -0.743544203631E+03    0.99789E-04   -0.59051E-04 12452   0.449E-02    0.380E-01
RMM:   7    -0.743543881429E+03    0.32220E-03   -0.52699E-04 11936   0.420E-02    0.179E-01
RMM:   8    -0.743543691085E+03    0.19034E-03   -0.29082E-04  9849   0.292E-02    0.882E-02
RMM:   9    -0.743543669699E+03    0.21386E-04   -0.86155E-05  8050   0.192E-02
  49 F= -.74354367E+03 E0= -.74293637E+03  d E =-.453237E-01  mag=     0.0000
 curvature:   0.42 expect dE= 0.869E+00 dE for cont linesearch  0.296E-01
 ZBRENT: bracketing found
 ZBRENT: interpolating
 opt :   0.1379  next Energy=  -743.562833 (dE=-0.645E-01)
 bond charge predicted
       N       E                     dE             d eps       ncg     rms          rms(c)
DAV:   1    -0.743556771321E+03   -0.13080E-01   -0.89518E-01 13808   0.157E+00    0.248E-01
RMM:   2    -0.743561583934E+03   -0.48126E-02   -0.19037E-02 13440   0.276E-01    0.804E-01
RMM:   3    -0.743559493633E+03    0.20903E-02   -0.32233E-03 13486   0.116E-01    0.465E-01
RMM:   4    -0.743558531040E+03    0.96259E-03   -0.95900E-04 13620   0.560E-02    0.189E-01
RMM:   5    -0.743558686708E+03   -0.15567E-03   -0.21949E-04  8362   0.273E-02    0.248E-01
RMM:   6    -0.743558712741E+03   -0.26033E-04   -0.20046E-04  8320   0.269E-02    0.210E-01
RMM:   7    -0.743558627349E+03    0.85392E-04   -0.18500E-04  8276   0.259E-02    0.137E-01
RMM:   8    -0.743558521070E+03    0.10628E-03   -0.91229E-05  7852   0.184E-02    0.573E-02
RMM:   9    -0.743558513756E+03    0.73137E-05   -0.27950E-05  7382   0.112E-02
  50 F= -.74355851E+03 E0= -.74295090E+03  d E =-.601677E-01  mag=     0.0000
 curvature:  -0.13 expect dE=-0.146E+00 dE for cont linesearch -0.551E-03
 trial: gam= 1.14149 g(F)=  0.109E+01 g(S)=  0.000E+00 ort =-0.914E-01 (trialstep = 0.252E-01)
 search vector abs. value=  0.352E+01
 bond charge predicted
       N       E                     dE             d eps       ncg     rms          rms(c)
DAV:   1    -0.743579321193E+03   -0.20800E-01   -0.19721E-01 13920   0.726E-01    0.106E-01
RMM:   2    -0.743579746189E+03   -0.42500E-03   -0.38429E-03 13440   0.126E-01    0.164E-01
RMM:   3    -0.743579827881E+03   -0.81692E-04   -0.70117E-04 13004   0.497E-02    0.150E-01
RMM:   4    -0.743579770137E+03    0.57744E-04   -0.15224E-04  7942   0.242E-02    0.114E-01
RMM:   5    -0.743579758249E+03    0.11888E-04   -0.62736E-05  7700   0.182E-02    0.940E-02
RMM:   6    -0.743579756909E+03    0.13398E-05   -0.48094E-05  7453   0.121E-02    0.712E-02
RMM:   7    -0.743579750921E+03    0.59881E-05   -0.29063E-05  7324   0.107E-02    0.516E-02
RMM:   8    -0.743579741106E+03    0.98151E-05   -0.11855E-05  6569   0.716E-03
  51 F= -.74357974E+03 E0= -.74297208E+03  d E =-.212274E-01  mag=     0.0000
 trial-energy change:   -0.021227  1 .order   -0.020879   -0.024845   -0.016913
 step:   0.0789(harm=  0.0789)  dis= 0.00654  next Energy=  -743.597423 (dE=-0.389E-01)
 bond charge predicted
       N       E                     dE             d eps       ncg     rms          rms(c)
DAV:   1    -0.743586479544E+03   -0.67286E-02   -0.89466E-01 13536   0.155E+00    0.236E-01
RMM:   2    -0.743588496203E+03   -0.20167E-02   -0.17675E-02 13440   0.269E-01    0.347E-01
RMM:   3    -0.743589070970E+03   -0.57477E-03   -0.33479E-03 14400   0.107E-01    0.365E-01
RMM:   4    -0.743588600000E+03    0.47097E-03   -0.73844E-04 12986   0.508E-02    0.212E-01
RMM:   5    -0.743588637568E+03   -0.37568E-04   -0.27902E-04  9418   0.316E-02    0.212E-01
RMM:   6    -0.743588540949E+03    0.96619E-04   -0.21324E-04  8564   0.295E-02    0.131E-01
RMM:   7    -0.743588526778E+03    0.14171E-04   -0.10912E-04  8056   0.199E-02    0.914E-02
RMM:   8    -0.743588487959E+03    0.38819E-04   -0.48013E-05  7860   0.145E-02
  52 F= -.74358849E+03 E0= -.74298083E+03  d E =-.299742E-01  mag=     0.0000
 curvature:  -0.14 expect dE=-0.261E+00 dE for cont linesearch -0.599E-02
 ZBRENT: interpolating
 opt :   0.0593  next Energy=  -743.592290 (dE=-0.338E-01)
 bond charge predicted
       N       E                     dE             d eps       ncg     rms          rms(c)
DAV:   1    -0.743591855391E+03   -0.33286E-02   -0.12002E-01 14080   0.566E-01    0.824E-02
RMM:   2    -0.743592081768E+03   -0.22638E-03   -0.23059E-03 13440   0.979E-02    0.113E-01
RMM:   3    -0.743592108973E+03   -0.27205E-04   -0.40978E-04 11216   0.386E-02    0.768E-02
RMM:   4    -0.743592249830E+03   -0.14086E-03   -0.10023E-04  7438   0.204E-02    0.169E-01
RMM:   5    -0.743592103722E+03    0.14611E-03   -0.36655E-05  7250   0.133E-02    0.620E-02
RMM:   6    -0.743592111211E+03   -0.74892E-05   -0.27461E-05  7178   0.903E-03    0.639E-02
RMM:   7    -0.743592101405E+03    0.98064E-05   -0.18069E-05  6812   0.862E-03    0.295E-02
RMM:   8    -0.743592099157E+03    0.22475E-05   -0.69714E-06  6484   0.551E-03
  53 F= -.74359210E+03 E0= -.74298453E+03  d E =-.335854E-01  mag=     0.0000
 curvature:  -0.09 expect dE=-0.931E-01 dE for cont linesearch -0.171E-04
 trial: gam= 0.83802 g(F)=  0.104E+01 g(S)=  0.000E+00 ort = 0.260E-01 (trialstep = 0.317E-01)
 search vector abs. value=  0.356E+01
 bond charge predicted
       N       E                     dE             d eps       ncg     rms          rms(c)
DAV:   1    -0.743616874677E+03   -0.24773E-01   -0.30583E-01 13536   0.906E-01    0.129E-01
RMM:   2    -0.743617615389E+03   -0.74071E-03   -0.59117E-03 13440   0.153E-01    0.256E-01
RMM:   3    -0.743617605860E+03    0.95291E-05   -0.10478E-03 13590   0.623E-02    0.153E-01
RMM:   4    -0.743617835490E+03   -0.22963E-03   -0.29228E-04  8952   0.307E-02    0.245E-01
RMM:   5    -0.743617530434E+03    0.30506E-03   -0.94989E-05  7867   0.223E-02    0.115E-01
RMM:   6    -0.743617520855E+03    0.95792E-05   -0.55817E-05  7636   0.129E-02    0.688E-02
RMM:   7    -0.743617521678E+03   -0.82293E-06   -0.34396E-05  7494   0.114E-02    0.578E-02
RMM:   8    -0.743617511100E+03    0.10578E-04   -0.15810E-05  6838   0.817E-03
  54 F= -.74361751E+03 E0= -.74301015E+03  d E =-.254119E-01  mag=     0.0000
 trial-energy change:   -0.025412  1 .order   -0.025690   -0.033695   -0.017686
 step:   0.0666(harm=  0.0666)  dis= 0.00579  next Energy=  -743.627559 (dE=-0.355E-01)
 bond charge predicted
       N       E                     dE             d eps       ncg     rms          rms(c)
DAV:   1    -0.743628499569E+03   -0.10978E-01   -0.37245E-01 13824   0.100E+00    0.148E-01
RMM:   2    -0.743629297803E+03   -0.79823E-03   -0.72745E-03 13440   0.169E-01    0.235E-01
RMM:   3    -0.743629370348E+03   -0.72545E-04   -0.12939E-03 13794   0.691E-02    0.142E-01
RMM:   4    -0.743630023897E+03   -0.65355E-03   -0.38628E-04 10377   0.345E-02    0.349E-01
RMM:   5    -0.743629340160E+03    0.68374E-03   -0.11722E-04  8002   0.233E-02    0.129E-01
RMM:   6    -0.743629317892E+03    0.22268E-04   -0.66916E-05  7786   0.148E-02    0.699E-02
RMM:   7    -0.743629327616E+03   -0.97245E-05   -0.36318E-05  7564   0.113E-02    0.655E-02
RMM:   8    -0.743629312976E+03    0.14641E-04   -0.18144E-05  7006   0.879E-03
  55 F= -.74362931E+03 E0= -.74302218E+03  d E =-.372138E-01  mag=     0.0000
 curvature:  -0.11 expect dE=-0.538E-01 dE for cont linesearch -0.457E-03
 ZBRENT: extrapolating
 opt :   0.0763  next Energy=  -743.629896 (dE=-0.378E-01)
 bond charge predicted
       N       E                     dE             d eps       ncg     rms          rms(c)
DAV:   1    -0.743629827254E+03   -0.49964E-03   -0.28312E-02 14144   0.276E-01    0.460E-02
RMM:   2    -0.743629899630E+03   -0.72376E-04   -0.57153E-04 11884   0.472E-02    0.737E-02
RMM:   3    -0.743629928100E+03   -0.28470E-04   -0.10602E-04  7552   0.208E-02    0.901E-02
RMM:   4    -0.743629889477E+03    0.38623E-04   -0.26020E-05  7362   0.121E-02    0.315E-02
RMM:   5    -0.743629895883E+03   -0.64063E-05   -0.10665E-05  7000   0.621E-03    0.409E-02
RMM:   6    -0.743629896992E+03   -0.11093E-05   -0.56411E-06  6056   0.495E-03    0.289E-02
RMM:   7    -0.743629894818E+03    0.21745E-05   -0.27632E-06  4680   0.380E-03    0.201E-02
RMM:   8    -0.743629893946E+03    0.87156E-06   -0.72197E-07  2888   0.306E-03
  56 F= -.74362989E+03 E0= -.74302287E+03  d E =-.377948E-01  mag=     0.0000
 curvature:  -0.14 expect dE=-0.820E-01 dE for cont linesearch -0.232E-05
 trial: gam= 0.42381 g(F)=  0.578E+00 g(S)=  0.000E+00 ort = 0.762E-02 (trialstep = 0.406E-01)
 search vector abs. value=  0.122E+01
 bond charge predicted
       N       E                     dE             d eps       ncg     rms          rms(c)
DAV:   1    -0.743648038007E+03   -0.18143E-01   -0.20843E-01 13856   0.759E-01    0.122E-01
RMM:   2    -0.743648634740E+03   -0.59673E-03   -0.46075E-03 13440   0.136E-01    0.292E-01
RMM:   3    -0.743648473407E+03    0.16133E-03   -0.75559E-04 13248   0.551E-02    0.119E-01
RMM:   4    -0.743648941020E+03   -0.46761E-03   -0.23613E-04  8512   0.273E-02    0.295E-01
RMM:   5    -0.743648518834E+03    0.42219E-03   -0.99264E-05  7808   0.217E-02    0.145E-01
RMM:   6    -0.743648497614E+03    0.21221E-04   -0.49793E-05  7642   0.126E-02    0.983E-02
RMM:   7    -0.743648485814E+03    0.11799E-04   -0.30766E-05  7478   0.109E-02    0.621E-02
RMM:   8    -0.743648484980E+03    0.83427E-06   -0.16733E-05  6982   0.797E-03
  57 F= -.74364848E+03 E0= -.74304191E+03  d E =-.185910E-01  mag=     0.0000
 trial-energy change:   -0.018591  1 .order   -0.018434   -0.023569   -0.013299
 step:   0.0931(harm=  0.0931)  dis= 0.00523  next Energy=  -743.656939 (dE=-0.270E-01)
 bond charge predicted
       N       E                     dE             d eps       ncg     rms          rms(c)
DAV:   1    -0.743655437309E+03   -0.69515E-02   -0.34969E-01 13472   0.983E-01    0.158E-01
RMM:   2    -0.743656373909E+03   -0.93660E-03   -0.77180E-03 13440   0.177E-01    0.338E-01
RMM:   3    -0.743656242488E+03    0.13142E-03   -0.13500E-03 13918   0.704E-02    0.180E-01
RMM:   4    -0.743656804304E+03   -0.56182E-03   -0.34553E-04  9700   0.340E-02    0.327E-01
RMM:   5    -0.743656283818E+03    0.52049E-03   -0.15922E-04  8112   0.255E-02    0.199E-01
RMM:   6    -0.743656229858E+03    0.53960E-04   -0.83469E-05  7870   0.182E-02    0.113E-01
RMM:   7    -0.743656222267E+03    0.75902E-05   -0.50229E-05  7764   0.132E-02    0.763E-02
RMM:   8    -0.743656214091E+03    0.81770E-05   -0.29738E-05  7526   0.109E-02
  58 F= -.74365621E+03 E0= -.74304994E+03  d E =-.263201E-01  mag=    -0.0000
 curvature:  -0.10 expect dE=-0.464E-01 dE for cont linesearch -0.104E-03
 trial: gam= 0.75388 g(F)=  0.473E+00 g(S)=  0.000E+00 ort =-0.360E-01 (trialstep = 0.511E-01)
 search vector abs. value=  0.111E+01
 bond charge predicted
       N       E                     dE             d eps       ncg     rms          rms(c)
DAV:   1    -0.743666168143E+03   -0.99459E-02   -0.39180E-01 13760   0.103E+00    0.161E-01
RMM:   2    -0.743667266893E+03   -0.10987E-02   -0.86921E-03 13440   0.188E-01    0.366E-01
RMM:   3    -0.743667139901E+03    0.12699E-03   -0.15456E-03 13988   0.734E-02    0.205E-01
RMM:   4    -0.743667837843E+03   -0.69794E-03   -0.35916E-04  9942   0.353E-02    0.379E-01
RMM:   5    -0.743667177010E+03    0.66083E-03   -0.15232E-04  8052   0.253E-02    0.202E-01
RMM:   6    -0.743667143073E+03    0.33937E-04   -0.96237E-05  7906   0.190E-02    0.160E-01
RMM:   7    -0.743667111219E+03    0.31855E-04   -0.66853E-05  7788   0.155E-02    0.744E-02
RMM:   8    -0.743667109404E+03    0.18144E-05   -0.29038E-05  7515   0.106E-02
  59 F= -.74366711E+03 E0= -.74306104E+03  d E =-.108953E-01  mag=    -0.0000
 trial-energy change:   -0.010895  1 .order   -0.010414   -0.022783    0.001956
 step:   0.0474(harm=  0.0470)  dis= 0.00226  next Energy=  -743.667179 (dE=-0.110E-01)
 bond charge predicted
       N       E                     dE             d eps       ncg     rms          rms(c)
DAV:   1    -0.743667181554E+03   -0.70335E-04   -0.20391E-03 13696   0.754E-02    0.621E-02
RMM:   2    -0.743667363290E+03   -0.18174E-03   -0.11216E-04  7502   0.191E-02    0.173E-01
RMM:   3    -0.743667344176E+03    0.19114E-04   -0.66708E-05  7270   0.176E-02    0.164E-01
RMM:   4    -0.743667175345E+03    0.16883E-03   -0.17588E-05  7048   0.832E-03    0.442E-02
RMM:   5    -0.743667173883E+03    0.14616E-05   -0.57010E-06  6176   0.518E-03    0.202E-02
RMM:   6    -0.743667173105E+03    0.77787E-06   -0.10606E-06  3456   0.316E-03    0.131E-02
RMM:   7    -0.743667173761E+03   -0.65536E-06   -0.26640E-07  1952   0.280E-03    0.928E-03
RMM:   8    -0.743667173961E+03   -0.20066E-06   -0.94902E-08  1643   0.269E-03
  60 F= -.74366717E+03 E0= -.74306112E+03  d E =-.109599E-01  mag=    -0.0000
 curvature:  -0.06 expect dE=-0.178E-01 dE for cont linesearch -0.468E-06
 trial: gam= 0.49466 g(F)=  0.305E+00 g(S)=  0.000E+00 ort =-0.299E-02 (trialstep = 0.504E-01)
 search vector abs. value=  0.575E+00
 bond charge predicted
       N       E                     dE             d eps       ncg     rms          rms(c)
DAV:   1    -0.743677514903E+03   -0.10341E-01   -0.25157E-01 13760   0.828E-01    0.121E-01
RMM:   2    -0.743678311120E+03   -0.79622E-03   -0.54807E-03 13440   0.149E-01    0.312E-01
[...]
DAV:   1    -0.744145362371E+03   -0.29107E-03   -0.20425E-02 13952   0.221E-01    0.391E-02
RMM:   2    -0.744145463003E+03   -0.10063E-03   -0.44103E-04 10464   0.406E-02    0.130E-01
RMM:   3    -0.744145404060E+03    0.58943E-04   -0.77916E-05  7318   0.187E-02    0.513E-02
RMM:   4    -0.744145420687E+03   -0.16627E-04   -0.20402E-05  7128   0.990E-03    0.734E-02
RMM:   5    -0.744145399147E+03    0.21540E-04   -0.10404E-05  6762   0.629E-03    0.399E-02
RMM:   6    -0.744145399405E+03   -0.25723E-06   -0.55528E-06  6198   0.475E-03    0.349E-02
RMM:   7    -0.744145396755E+03    0.26498E-05   -0.31659E-06  5402   0.394E-03    0.172E-02
RMM:   8    -0.744145397554E+03   -0.79898E-06   -0.11684E-06  3184   0.303E-03
 190 F= -.74414540E+03 E0= -.74355431E+03  d E =-.696761E-03  mag=    -0.0000
 curvature:  -0.11 expect dE=-0.113E-02 dE for cont linesearch -0.340E-05
 trial: gam= 1.02685 g(F)=  0.103E-01 g(S)=  0.000E+00 ort =-0.791E-03 (trialstep = 0.370E-01)
 search vector abs. value=  0.301E-01
 bond charge predicted
       N       E                     dE             d eps       ncg     rms          rms(c)
DAV:   1    -0.744145648680E+03   -0.25193E-03   -0.46596E-03 13856   0.976E-02    0.212E-02
RMM:   2    -0.744145670374E+03   -0.21693E-04   -0.93273E-05  7250   0.185E-02    0.562E-02
RMM:   3    -0.744145659586E+03    0.10788E-04   -0.17091E-05  7106   0.963E-03    0.326E-02
RMM:   4    -0.744145655759E+03    0.38270E-05   -0.39770E-06  5850   0.417E-03    0.138E-02
RMM:   5    -0.744145657096E+03   -0.13374E-05   -0.12994E-06  3452   0.331E-03    0.193E-02
RMM:   6    -0.744145656293E+03    0.80364E-06   -0.16384E-06  3735   0.333E-03    0.729E-03
RMM:   7    -0.744145656560E+03   -0.26701E-06   -0.93879E-07  2875   0.297E-03    0.586E-03
RMM:   8    -0.744145656435E+03    0.12488E-06   -0.39327E-08  1401   0.259E-03
 191 F= -.74414566E+03 E0= -.74355455E+03  d E =-.258881E-03  mag=    -0.0000
 trial-energy change:   -0.000259  1 .order   -0.000258   -0.000353   -0.000163
 step:   0.0689(harm=  0.0689)  dis= 0.00104  next Energy=  -744.145726 (dE=-0.328E-03)
 bond charge predicted
       N       E                     dE             d eps       ncg     rms          rms(c)
DAV:   1    -0.744145717281E+03   -0.60721E-04   -0.34667E-03 13792   0.841E-02    0.169E-02
RMM:   2    -0.744145730989E+03   -0.13709E-04   -0.72548E-05  7196   0.163E-02    0.523E-02
RMM:   3    -0.744145722802E+03    0.81870E-05   -0.12818E-05  7044   0.861E-03    0.196E-02
RMM:   4    -0.744145731211E+03   -0.84086E-05   -0.31904E-06  5058   0.368E-03    0.432E-02
RMM:   5    -0.744145721325E+03    0.98854E-05   -0.13829E-06  3946   0.336E-03    0.134E-02
RMM:   6    -0.744145722500E+03   -0.11746E-05   -0.67363E-07  2543   0.287E-03    0.107E-02
RMM:   7    -0.744145722582E+03   -0.81585E-07   -0.28422E-07  1893   0.260E-03    0.909E-03
RMM:   8    -0.744145722549E+03    0.32785E-07   -0.32436E-07  1590   0.269E-03
 192 F= -.74414572E+03 E0= -.74355463E+03  d E =-.324995E-03  mag=    -0.0000
 curvature:  -0.11 expect dE=-0.130E-02 dE for cont linesearch -0.701E-06
 trial: gam= 0.97405 g(F)=  0.119E-01 g(S)=  0.000E+00 ort =-0.440E-03 (trialstep = 0.329E-01)
 search vector abs. value=  0.396E-01
 bond charge predicted
       N       E                     dE             d eps       ncg     rms          rms(c)
DAV:   1    -0.744146003539E+03   -0.28096E-03   -0.49230E-03 13728   0.940E-02    0.212E-02
RMM:   2    -0.744146022578E+03   -0.19038E-04   -0.98342E-05  7294   0.186E-02    0.672E-02
RMM:   3    -0.744146011691E+03    0.10887E-04   -0.17268E-05  7042   0.974E-03    0.315E-02
RMM:   4    -0.744146029610E+03   -0.17919E-04   -0.60921E-06  6140   0.448E-03    0.645E-02
RMM:   5    -0.744146007719E+03    0.21891E-04   -0.33857E-06  5646   0.423E-03    0.186E-02
RMM:   6    -0.744146009210E+03   -0.14910E-05   -0.10067E-06  2683   0.294E-03    0.113E-02
RMM:   7    -0.744146009331E+03   -0.12171E-06   -0.28864E-07  2003   0.277E-03    0.116E-02
RMM:   8    -0.744146009785E+03   -0.45341E-06   -0.39671E-07  1769   0.284E-03
 193 F= -.74414601E+03 E0= -.74355494E+03  d E =-.287236E-03  mag=    -0.0000
 trial-energy change:   -0.000287  1 .order   -0.000286   -0.000379   -0.000194
 step:   0.0673(harm=  0.0673)  dis= 0.00134  next Energy=  -744.146110 (dE=-0.387E-03)
 bond charge predicted
       N       E                     dE             d eps       ncg     rms          rms(c)
DAV:   1    -0.744146098072E+03   -0.88741E-04   -0.53477E-03 13664   0.981E-02    0.227E-02
RMM:   2    -0.744146117723E+03   -0.19650E-04   -0.10790E-04  7354   0.194E-02    0.693E-02
RMM:   3    -0.744146108371E+03    0.93522E-05   -0.18620E-05  7060   0.100E-02    0.378E-02
RMM:   4    -0.744146109110E+03   -0.73952E-06   -0.66448E-06  5934   0.462E-03    0.394E-02
RMM:   5    -0.744146104736E+03    0.43743E-05   -0.17335E-06  4518   0.357E-03    0.222E-02
RMM:   6    -0.744146104845E+03   -0.10875E-06   -0.88754E-07  2840   0.294E-03    0.145E-02
RMM:   7    -0.744146105075E+03   -0.23053E-06   -0.44383E-07  2134   0.271E-03    0.158E-02
RMM:   8    -0.744146105008E+03    0.66881E-07   -0.43545E-07  1780   0.276E-03
 194 F= -.74414611E+03 E0= -.74355503E+03  d E =-.382459E-03  mag=    -0.0000
 curvature:  -0.12 expect dE=-0.782E-03 dE for cont linesearch -0.114E-05
 trial: gam= 0.61411 g(F)=  0.675E-02 g(S)=  0.000E+00 ort =-0.624E-03 (trialstep = 0.398E-01)
 search vector abs. value=  0.209E-01
 bond charge predicted
       N       E                     dE             d eps       ncg     rms          rms(c)
DAV:   1    -0.744146315807E+03   -0.21073E-03   -0.46631E-03 13696   0.892E-02    0.212E-02
RMM:   2    -0.744146342249E+03   -0.26442E-04   -0.93958E-05  7258   0.182E-02    0.747E-02
RMM:   3    -0.744146325378E+03    0.16871E-04   -0.16602E-05  7106   0.946E-03    0.403E-02
RMM:   4    -0.744146336231E+03   -0.10853E-04   -0.45268E-06  5833   0.418E-03    0.580E-02
RMM:   5    -0.744146320099E+03    0.16132E-04   -0.41062E-06  5720   0.414E-03    0.269E-02
RMM:   6    -0.744146320735E+03   -0.63633E-06   -0.27961E-06  4476   0.356E-03    0.119E-02
RMM:   7    -0.744146321219E+03   -0.48331E-06   -0.43310E-07  2158   0.284E-03    0.142E-02
RMM:   8    -0.744146321328E+03   -0.10926E-06   -0.15224E-07  1454   0.267E-03
 195 F= -.74414632E+03 E0= -.74355529E+03  d E =-.216320E-03  mag=    -0.0000
 trial-energy change:   -0.000216  1 .order   -0.000210   -0.000254   -0.000166
 step:   0.1151(harm=  0.1151)  dis= 0.00194  next Energy=  -744.146472 (dE=-0.367E-03)
 bond charge predicted
       N       E                     dE             d eps       ncg     rms          rms(c)
DAV:   1    -0.744146454285E+03   -0.13307E-03   -0.16519E-02 13856   0.168E-01    0.389E-02
RMM:   2    -0.744146559720E+03   -0.10544E-03   -0.33089E-04  9542   0.344E-02    0.149E-01
RMM:   3    -0.744146488226E+03    0.71494E-04   -0.62625E-05  7312   0.169E-02    0.726E-02
RMM:   4    -0.744146532762E+03   -0.44536E-04   -0.18975E-05  7054   0.864E-03    0.113E-01
RMM:   5    -0.744146470984E+03    0.61778E-04   -0.15380E-05  6722   0.725E-03    0.490E-02
RMM:   6    -0.744146470496E+03    0.48857E-06   -0.10904E-05  6630   0.574E-03    0.314E-02
RMM:   7    -0.744146469894E+03    0.60142E-06   -0.38290E-06  5789   0.439E-03    0.239E-02
RMM:   8    -0.744146470991E+03   -0.10970E-05   -0.60651E-07  2513   0.286E-03
 196 F= -.74414647E+03 E0= -.74355547E+03  d E =-.365983E-03  mag=    -0.0000
 curvature:  -0.19 expect dE=-0.112E-02 dE for cont linesearch -0.560E-06
 trial: gam= 0.78921 g(F)=  0.595E-02 g(S)=  0.000E+00 ort =-0.249E-03 (trialstep = 0.549E-01)
 search vector abs. value=  0.186E-01
 bond charge predicted
       N       E                     dE             d eps       ncg     rms          rms(c)
DAV:   1    -0.744146657928E+03   -0.18803E-03   -0.94418E-03 13888   0.129E-01    0.345E-02
RMM:   2    -0.744146693024E+03   -0.35096E-04   -0.20930E-04  8080   0.269E-02    0.934E-02
RMM:   3    -0.744146680823E+03    0.12202E-04   -0.35873E-05  7172   0.135E-02    0.599E-02
RMM:   4    -0.744146673073E+03    0.77497E-05   -0.13294E-05  6666   0.661E-03    0.517E-02
RMM:   5    -0.744146675579E+03   -0.25061E-05   -0.46480E-06  5974   0.467E-03    0.443E-02
RMM:   6    -0.744146671565E+03    0.40143E-05   -0.44222E-06  5617   0.391E-03    0.355E-02
RMM:   7    -0.744146670764E+03    0.80107E-06   -0.12320E-06  3454   0.330E-03    0.274E-02
RMM:   8    -0.744146669892E+03    0.87149E-06   -0.22479E-07  1792   0.280E-03
 197 F= -.74414667E+03 E0= -.74355568E+03  d E =-.198901E-03  mag=    -0.0000
 trial-energy change:   -0.000199  1 .order   -0.000195   -0.000316   -0.000075
 step:   0.0719(harm=  0.0719)  dis= 0.00120  next Energy=  -744.146678 (dE=-0.207E-03)
 bond charge predicted
       N       E                     dE             d eps       ncg     rms          rms(c)
DAV:   1    -0.744146679848E+03   -0.90843E-05   -0.91582E-04 13472   0.405E-02    0.212E-02
RMM:   2    -0.744146695535E+03   -0.15687E-04   -0.24664E-05  7180   0.887E-03    0.518E-02
RMM:   3    -0.744146680723E+03    0.14812E-04   -0.45947E-06  6494   0.501E-03    0.182E-02
RMM:   4    -0.744146683997E+03   -0.32734E-05   -0.86373E-07  2752   0.292E-03    0.265E-02
RMM:   5    -0.744146682593E+03    0.14038E-05   -0.13852E-06  3254   0.317E-03    0.163E-02
RMM:   6    -0.744146681698E+03    0.89510E-06   -0.16841E-07  1926   0.262E-03    0.853E-03
RMM:   7    -0.744146681647E+03    0.51208E-07   -0.23824E-08  1158   0.248E-03    0.280E-03
RMM:   8    -0.744146681769E+03   -0.12251E-06    0.00000E+00  1008   0.241E-03
 198 F= -.74414668E+03 E0= -.74355570E+03  d E =-.210778E-03  mag=    -0.0000
 curvature:  -0.12 expect dE=-0.469E-03 dE for cont linesearch -0.227E-06
 trial: gam= 0.64712 g(F)=  0.403E-02 g(S)=  0.000E+00 ort =-0.191E-03 (trialstep = 0.583E-01)
 search vector abs. value=  0.116E-01
 bond charge predicted
       N       E                     dE             d eps       ncg     rms          rms(c)
DAV:   1    -0.744146772520E+03   -0.90873E-04   -0.77221E-03 13936   0.121E-01    0.256E-02
RMM:   2    -0.744146809592E+03   -0.37072E-04   -0.16236E-04  7618   0.245E-02    0.912E-02
RMM:   3    -0.744146786799E+03    0.22793E-04   -0.28671E-05  7158   0.126E-02    0.421E-02
RMM:   4    -0.744146808601E+03   -0.21802E-04   -0.90076E-06  6590   0.554E-03    0.759E-02
RMM:   5    -0.744146780730E+03    0.27871E-04   -0.57753E-06  6188   0.507E-03    0.270E-02
RMM:   6    -0.744146781916E+03   -0.11858E-05   -0.36236E-06  5074   0.369E-03    0.204E-02
RMM:   7    -0.744146781648E+03    0.26738E-06   -0.82063E-07  3006   0.308E-03    0.137E-02
RMM:   8    -0.744146782484E+03   -0.83553E-06   -0.40910E-07  1828   0.281E-03
 199 F= -.74414678E+03 E0= -.74355584E+03  d E =-.100714E-03  mag=    -0.0000
 trial-energy change:   -0.000101  1 .order   -0.000100   -0.000228    0.000029
 step:   0.0518(harm=  0.0518)  dis= 0.00068  next Energy=  -744.146783 (dE=-0.101E-03)
 bond charge predicted
       N       E                     dE             d eps       ncg     rms          rms(c)
DAV:   1    -0.744146782891E+03   -0.12427E-05   -0.93044E-05  8864   0.142E-02    0.135E-02
RMM:   2    -0.744146798349E+03   -0.15458E-04   -0.10848E-05  6556   0.668E-03    0.523E-02
RMM:   3    -0.744146787357E+03    0.10992E-04   -0.36466E-06  5632   0.440E-03    0.303E-02
RMM:   4    -0.744146782870E+03    0.44869E-05   -0.92231E-08  1388   0.240E-03    0.730E-03
RMM:   5    -0.744146783565E+03   -0.69525E-06    0.00000E+00   924   0.227E-03    0.968E-03
RMM:   6    -0.744146783544E+03    0.21733E-07    0.00000E+00   830   0.227E-03    0.973E-03
RMM:   7    -0.744146783276E+03    0.26723E-06   -0.66801E-08  1128   0.250E-03    0.370E-03
RMM:   8    -0.744146783363E+03   -0.86162E-07   -0.18356E-08   946   0.250E-03
 200 F= -.74414678E+03 E0= -.74355582E+03  d E =-.101593E-03  mag=    -0.0000
 curvature:  -0.08 expect dE=-0.181E-03 dE for cont linesearch -0.486E-07
 trial: gam= 0.57500 g(F)=  0.237E-02 g(S)=  0.000E+00 ort = 0.857E-04 (trialstep = 0.570E-01)
 search vector abs. value=  0.629E-02
 bond charge predicted
       N       E                     dE             d eps       ncg     rms          rms(c)
DAV:   1    -0.744146881177E+03   -0.97901E-04   -0.38654E-03 13760   0.811E-02    0.201E-02
RMM:   2    -0.744146901891E+03   -0.20714E-04   -0.82404E-05  7196   0.172E-02    0.737E-02
RMM:   3    -0.744146887867E+03    0.14024E-04   -0.15462E-05  7004   0.937E-03    0.351E-02
RMM:   4    -0.744146903100E+03   -0.15233E-04   -0.46865E-06  5538   0.393E-03    0.610E-02
RMM:   5    -0.744146883487E+03    0.19613E-04   -0.32837E-06  5472   0.406E-03    0.199E-02
RMM:   6    -0.744146884634E+03   -0.11464E-05   -0.12063E-06  2714   0.303E-03    0.147E-02
RMM:   7    -0.744146884543E+03    0.90848E-07   -0.57832E-07  2166   0.291E-03    0.116E-02
RMM:   8    -0.744146884697E+03   -0.15369E-06   -0.40938E-07  1583   0.285E-03
 201 F= -.74414688E+03 E0= -.74355596E+03  d E =-.101334E-03  mag=    -0.0000
 trial-energy change:   -0.000101  1 .order   -0.000100   -0.000138   -0.000062
 step:   0.1040(harm=  0.1040)  dis= 0.00101  next Energy=  -744.146909 (dE=-0.126E-03)
 bond charge predicted
       N       E                     dE             d eps       ncg     rms          rms(c)
DAV:   1    -0.744146910448E+03   -0.25906E-04   -0.26924E-03 13760   0.675E-02    0.176E-02
RMM:   2    -0.744146922382E+03   -0.11933E-04   -0.57689E-05  7106   0.142E-02    0.552E-02
RMM:   3    -0.744146916292E+03    0.60901E-05   -0.10339E-05  6852   0.755E-03    0.329E-02
RMM:   4    -0.744146923877E+03   -0.75859E-05   -0.24120E-06  4147   0.342E-03    0.460E-02
RMM:   5    -0.744146914939E+03    0.89388E-05   -0.19870E-06  4190   0.348E-03    0.289E-02
RMM:   6    -0.744146914194E+03    0.74510E-06   -0.10714E-06  3011   0.312E-03    0.150E-02
RMM:   7    -0.744146913771E+03    0.42279E-06   -0.39293E-07  1937   0.287E-03    0.109E-02
RMM:   8    -0.744146913924E+03   -0.15306E-06   -0.14900E-07  1328   0.271E-03
 202 F= -.74414691E+03 E0= -.74355598E+03  d E =-.130561E-03  mag=    -0.0000
 curvature:  -0.14 expect dE=-0.267E-03 dE for cont linesearch -0.751E-07
 trial: gam= 0.69861 g(F)=  0.197E-02 g(S)=  0.000E+00 ort = 0.591E-04 (trialstep = 0.664E-01)
 search vector abs. value=  0.513E-02
 bond charge predicted
       N       E                     dE             d eps       ncg     rms          rms(c)
DAV:   1    -0.744146999156E+03   -0.85385E-04   -0.39137E-03 13824   0.823E-02    0.201E-02
RMM:   2    -0.744147020981E+03   -0.21825E-04   -0.83255E-05  7212   0.176E-02    0.681E-02
RMM:   3    -0.744147005408E+03    0.15573E-04   -0.16047E-05  7092   0.946E-03    0.294E-02
RMM:   4    -0.744147010615E+03   -0.52077E-05   -0.40490E-06  5699   0.396E-03    0.414E-02
RMM:   5    -0.744147003951E+03    0.66643E-05   -0.32163E-06  5448   0.388E-03    0.228E-02
RMM:   6    -0.744147003569E+03    0.38153E-06   -0.14504E-06  3468   0.323E-03    0.106E-02
RMM:   7    -0.744147003503E+03    0.66706E-07   -0.22208E-07  1786   0.278E-03    0.636E-03
RMM:   8    -0.744147003980E+03   -0.47751E-06   -0.18809E-07  1460   0.272E-03
 203 F= -.74414700E+03 E0= -.74355613E+03  d E =-.900563E-04  mag=     0.0000
 trial-energy change:   -0.000090  1 .order   -0.000088   -0.000134   -0.000042
 step:   0.0966(harm=  0.0966)  dis= 0.00074  next Energy=  -744.147011 (dE=-0.973E-04)
 bond charge predicted
       N       E                     dE             d eps       ncg     rms          rms(c)
DAV:   1    -0.744147013945E+03   -0.10442E-04   -0.81380E-04 13280   0.376E-02    0.108E-02
RMM:   2    -0.744147022296E+03   -0.83514E-05   -0.19179E-05  7106   0.847E-03    0.397E-02
RMM:   3    -0.744147015504E+03    0.67919E-05   -0.40628E-06  6230   0.482E-03    0.183E-02
RMM:   4    -0.744147014877E+03    0.62722E-06   -0.32600E-08  1496   0.221E-03    0.931E-03
RMM:   5    -0.744147015947E+03   -0.10705E-05   -0.78769E-08  1463   0.236E-03    0.145E-02
RMM:   6    -0.744147014919E+03    0.10287E-05   -0.37541E-08  1176   0.243E-03    0.525E-03
RMM:   7    -0.744147015026E+03   -0.10758E-06   -0.40829E-08  1014   0.247E-03    0.300E-03
RMM:   8    -0.744147015107E+03   -0.80545E-07   -0.28320E-08   938   0.247E-03
 204 F= -.74414702E+03 E0= -.74355613E+03  d E =-.101183E-03  mag=     0.0000
 curvature:  -0.12 expect dE=-0.290E-03 dE for cont linesearch -0.480E-09
 trial: gam= 1.30649 g(F)=  0.236E-02 g(S)=  0.000E+00 ort =-0.448E-05 (trialstep = 0.335E-01)
 search vector abs. value=  0.111E-01
 bond charge predicted
       N       E                     dE             d eps       ncg     rms          rms(c)
DAV:   1    -0.744147070369E+03   -0.55343E-04   -0.20744E-03 13632   0.601E-02    0.152E-02
RMM:   2    -0.744147080863E+03   -0.10494E-04   -0.47294E-05  7076   0.135E-02    0.517E-02
RMM:   3    -0.744147073637E+03    0.72264E-05   -0.91632E-06  6856   0.731E-03    0.220E-02
RMM:   4    -0.744147074287E+03   -0.65018E-06   -0.14192E-06  3232   0.314E-03    0.229E-02
RMM:   5    -0.744147073298E+03    0.98935E-06   -0.33360E-07  2270   0.292E-03    0.176E-02
RMM:   6    -0.744147072645E+03    0.65315E-06   -0.39289E-07  1873   0.294E-03    0.902E-03
RMM:   7    -0.744147072845E+03   -0.20078E-06   -0.39525E-07  1679   0.283E-03    0.861E-03
RMM:   8    -0.744147072808E+03    0.37522E-07   -0.92077E-08  1094   0.269E-03
 205 F= -.74414707E+03 E0= -.74355618E+03  d E =-.577010E-04  mag=     0.0000
 trial-energy change:   -0.000058  1 .order   -0.000054   -0.000079   -0.000030
 step:   0.0536(harm=  0.0536)  dis= 0.00057  next Energy=  -744.147078 (dE=-0.629E-04)
 bond charge predicted
       N       E                     dE             d eps       ncg     rms          rms(c)
DAV:   1    -0.744147082612E+03   -0.97668E-05   -0.75392E-04 13184   0.362E-02    0.947E-03
RMM:   2    -0.744147089622E+03   -0.70101E-05   -0.17690E-05  7102   0.806E-03    0.378E-02
RMM:   3    -0.744147083521E+03    0.61014E-05   -0.31825E-06  6089   0.436E-03    0.149E-02
RMM:   4    -0.744147084313E+03   -0.79166E-06   -0.19489E-08  1452   0.212E-03    0.145E-02
RMM:   5    -0.744147084321E+03   -0.86002E-08   -0.56344E-08  1578   0.226E-03    0.140E-02
RMM:   6    -0.744147083715E+03    0.60639E-06   -0.34902E-08  1188   0.233E-03    0.632E-03
RMM:   7    -0.744147083688E+03    0.27183E-07   -0.13634E-08   912   0.233E-03    0.371E-03
RMM:   8    -0.744147083810E+03   -0.12261E-06   -0.19628E-08   904   0.239E-03
 206 F= -.74414708E+03 E0= -.74355622E+03  d E =-.687034E-04  mag=     0.0000
 curvature:  -0.13 expect dE=-0.176E-03 dE for cont linesearch -0.185E-06
 trial: gam= 0.47984 g(F)=  0.139E-02 g(S)=  0.000E+00 ort = 0.127E-03 (trialstep = 0.375E-01)
 search vector abs. value=  0.407E-02
 bond charge predicted
       N       E                     dE             d eps       ncg     rms          rms(c)
DAV:   1    -0.744147126106E+03   -0.42418E-04   -0.87516E-04 13184   0.398E-02    0.833E-03
RMM:   2    -0.744147129253E+03   -0.31473E-05   -0.18358E-05  7122   0.868E-03    0.266E-02
RMM:   3    -0.744147127493E+03    0.17604E-05   -0.32657E-06  6162   0.442E-03    0.135E-02
RMM:   4    -0.744147129342E+03   -0.18492E-05   -0.24814E-08  1542   0.224E-03    0.185E-02
RMM:   5    -0.744147127392E+03    0.19496E-05   -0.26258E-08  1510   0.229E-03    0.123E-02
RMM:   6    -0.744147127458E+03   -0.65789E-07   -0.20779E-08  1135   0.232E-03    0.675E-03
RMM:   7    -0.744147127401E+03    0.57145E-07   -0.11342E-08   897   0.240E-03    0.543E-03
RMM:   8    -0.744147127417E+03   -0.15760E-07   -0.11967E-08   865   0.246E-03
 207 F= -.74414713E+03 E0= -.74355627E+03  d E =-.436063E-04  mag=     0.0000
 trial-energy change:   -0.000044  1 .order   -0.000042   -0.000054   -0.000029
 step:   0.0805(harm=  0.0805)  dis= 0.00048  next Energy=  -744.147142 (dE=-0.584E-04)
 reached required accuracy - stopping structural energy minimisation
 writing wavefunctions
