 ----------------------------------------------------
    OOO  PPPP  EEEEE N   N M   M PPPP
   O   O P   P E     NN  N MM MM P   P
   O   O PPPP  EEEEE N N N M M M PPPP   -- VERSION
   O   O P     E     N  NN M   M P
    OOO  P     EEEEE N   N M   M P
 ----------------------------------------------------
 running   16 mpi-ranks, with    4 threads/rank
 distrk:  each k-point on   16 cores,    1 groups
 distr:  one band on    1 cores,   16 groups
 vasp.6.2.1 16May21 (build Jul 28 2021 23:24:15) complex                        
  
 POSCAR found type information on POSCAR H IrO 
 POSCAR found :  3 types and     102 ions
 scaLAPACK will be used
 -----------------------------------------------------------------------------
|                                                                             |
|           W    W    AA    RRRRR   N    N  II  N    N   GGGG   !!!           |
|           W    W   A  A   R    R  NN   N  II  NN   N  G    G  !!!           |
|           W    W  A    A  R    R  N N  N  II  N N  N  G       !!!           |
|           W WW W  AAAAAA  RRRRR   N  N N  II  N  N N  G  GGG   !            |
|           WW  WW  A    A  R   R   N   NN  II  N   NN  G    G                |
|           W    W  A    A  R    R  N    N  II  N    N   GGGG   !!!           |
|                                                                             |
|     The real-space projection scheme for the treatment of the non-local     |
|     pseudopotentials has been switched on but on file POTCAR I have not     |
|     found any entries, signalling me that you have never performed a        |
|     real-space optimization of all non-local projectors! BE WARNED that     |
|     a calculation using the real-space projection scheme together with      |
|     non-local projectors which were not real-space optimized (according     |
|     to the plane-wave cutoff used in this calculation) might give more      |
|     or less inaccurate results. I hope you know what you are doing.         |
|                                                                             |
 -----------------------------------------------------------------------------

 LDA part: xc-table for Pade appr. of Perdew
 POSCAR, INCAR and KPOINTS ok, starting setup
 FFT: planning ...
 WAVECAR not read
 WARNING: random wavefunctions but no delay for mixing, default for NELMDL
 entering main loop
       N       E                     dE             d eps       ncg     rms          rms(c)
DAV:   1     0.764883447947E+04    0.76488E+04   -0.29982E+05 15152   0.126E+03
DAV:   2     0.612989845477E+03   -0.70358E+04   -0.63580E+04 16000   0.375E+02
DAV:   3    -0.758030790701E+03   -0.13710E+04   -0.13176E+04 18752   0.166E+02
DAV:   4    -0.833327145266E+03   -0.75296E+02   -0.73373E+02 20496   0.432E+01
DAV:   5    -0.835022369214E+03   -0.16952E+01   -0.16658E+01 19264   0.600E+00    0.187E+02
RMM:   6    -0.699018581150E+03    0.13600E+03   -0.63196E+02 14896   0.403E+01    0.171E+02
RMM:   7    -0.146281451343E+04   -0.76380E+03   -0.41261E+02 16530   0.276E+01    0.385E+02
RMM:   8    -0.135315634604E+04    0.10966E+03   -0.12147E+02 19013   0.114E+01    0.370E+02
RMM:   9    -0.145141366356E+04   -0.98257E+02   -0.57149E+01 15581   0.102E+01    0.379E+02
RMM:  10    -0.102008021584E+04    0.43133E+03   -0.51562E+02 22232   0.265E+01    0.324E+02
RMM:  11    -0.115383419695E+04   -0.13375E+03   -0.80768E+01 16865   0.110E+01    0.288E+02
RMM:  12    -0.112802953776E+04    0.25805E+02   -0.21468E+02 19473   0.142E+01    0.171E+02
RMM:  13    -0.102223110489E+04    0.10580E+03   -0.26624E+02 21720   0.210E+01    0.206E+02
RMM:  14    -0.769268155904E+03    0.25296E+03   -0.37141E+01 15953   0.832E+00    0.147E+02
RMM:  15    -0.652844362600E+03    0.11642E+03   -0.62474E+01 18074   0.108E+01    0.135E+02
RMM:  16    -0.653847217570E+03   -0.10029E+01   -0.21540E+01 15757   0.695E+00    0.118E+02
RMM:  17    -0.637721808296E+03    0.16125E+02   -0.85964E+00 16179   0.434E+00    0.105E+02
RMM:  18    -0.629330015845E+03    0.83918E+01   -0.86390E+00 16006   0.434E+00    0.925E+01
RMM:  19    -0.629743215053E+03   -0.41320E+00   -0.36117E+00 15737   0.286E+00    0.872E+01
RMM:  20    -0.626186308183E+03    0.35569E+01   -0.32392E+00 15960   0.272E+00    0.761E+01
RMM:  21    -0.624323040261E+03    0.18633E+01   -0.45403E+00 17563   0.292E+00    0.603E+01
RMM:  22    -0.631733368709E+03   -0.74103E+01   -0.29367E+00 16184   0.254E+00    0.529E+01
RMM:  23    -0.635042254533E+03   -0.33089E+01   -0.12005E+00 15123   0.184E+00    0.492E+01
RMM:  24    -0.647459867978E+03   -0.12418E+02   -0.61658E+00 19209   0.350E+00    0.318E+01
RMM:  25    -0.660261163354E+03   -0.12801E+02   -0.70408E+00 19910   0.367E+00    0.178E+01
RMM:  26    -0.665300685470E+03   -0.50395E+01   -0.20249E+00 16603   0.205E+00    0.152E+01
RMM:  27    -0.669234425222E+03   -0.39337E+01   -0.15609E+00 16538   0.185E+00    0.154E+01
RMM:  28    -0.668264905434E+03    0.96952E+00   -0.44089E-01 15338   0.107E+00    0.137E+01
RMM:  29    -0.675061181918E+03   -0.67963E+01   -0.19899E+00 17745   0.185E+00    0.136E+01
RMM:  30    -0.677248398207E+03   -0.21872E+01   -0.90429E-01 17214   0.148E+00    0.124E+01
RMM:  31    -0.678028833825E+03   -0.78044E+00   -0.30763E-01 15139   0.887E-01    0.118E+01
RMM:  32    -0.678889906102E+03   -0.86107E+00   -0.17408E-01 15130   0.678E-01    0.114E+01
RMM:  33    -0.680049994515E+03   -0.11601E+01   -0.24586E-01 16182   0.786E-01    0.118E+01
RMM:  34    -0.682802259582E+03   -0.27523E+01   -0.75126E-01 19233   0.118E+00    0.169E+01
RMM:  35    -0.684565745461E+03   -0.17635E+01   -0.42480E-01 18018   0.918E-01    0.141E+01
RMM:  36    -0.685113999097E+03   -0.54825E+00   -0.19495E-01 15921   0.659E-01    0.133E+01
RMM:  37    -0.686984840080E+03   -0.18708E+01   -0.31031E-01 17460   0.758E-01    0.151E+01
RMM:  38    -0.689166334675E+03   -0.21815E+01   -0.69522E-01 19479   0.103E+00    0.135E+01
RMM:  39    -0.689451554440E+03   -0.28522E+00   -0.34900E-01 18225   0.756E-01    0.113E+01
RMM:  40    -0.691317989315E+03   -0.18664E+01   -0.22421E-01 17190   0.647E-01    0.140E+01
RMM:  41    -0.689545083050E+03    0.17729E+01   -0.48550E-02 15012   0.379E-01    0.120E+01
RMM:  42    -0.690550781172E+03   -0.10057E+01   -0.95925E-02 16601   0.392E-01    0.102E+01
RMM:  43    -0.691928675799E+03   -0.13779E+01   -0.10095E-01 17510   0.421E-01    0.957E+00
RMM:  44    -0.692165793172E+03   -0.23712E+00   -0.19877E-01 19403   0.557E-01    0.693E+00
RMM:  45    -0.692963070905E+03   -0.79728E+00   -0.14572E-01 18669   0.468E-01    0.446E+00
RMM:  46    -0.694031349683E+03   -0.10683E+01   -0.55607E-02 16514   0.310E-01    0.392E+00
RMM:  47    -0.694532708382E+03   -0.50136E+00   -0.43636E-02 16369   0.278E-01    0.357E+00
RMM:  48    -0.694416320592E+03    0.11639E+00   -0.45074E-02 17337   0.277E-01    0.433E+00
RMM:  49    -0.694651894379E+03   -0.23557E+00   -0.44209E-02 17177   0.276E-01    0.493E+00
RMM:  50    -0.694816883296E+03   -0.16499E+00   -0.35409E-02 16861   0.242E-01    0.529E+00
RMM:  51    -0.694134957497E+03    0.68193E+00   -0.24154E-01 21600   0.549E-01    0.445E+00
RMM:  52    -0.694215500554E+03   -0.80543E-01   -0.11727E-02 15050   0.199E-01    0.399E+00
RMM:  53    -0.694286500327E+03   -0.71000E-01   -0.21878E-02 16935   0.216E-01    0.328E+00
RMM:  54    -0.694750073844E+03   -0.46357E+00   -0.30567E-02 18702   0.237E-01    0.261E+00
RMM:  55    -0.695126765756E+03   -0.37669E+00   -0.11365E-02 15982   0.153E-01    0.223E+00
RMM:  56    -0.695241436716E+03   -0.11467E+00   -0.25595E-02 18901   0.230E-01    0.123E+00
RMM:  57    -0.695393873175E+03   -0.15244E+00   -0.46822E-03 15004   0.109E-01    0.934E-01
RMM:  58    -0.695650491482E+03   -0.25662E+00   -0.12489E-02 17308   0.142E-01    0.766E-01
RMM:  59    -0.695770917283E+03   -0.12043E+00   -0.81596E-03 16477   0.111E-01    0.814E-01
RMM:  60    -0.695847922697E+03   -0.77005E-01   -0.29164E-03 14729   0.711E-02    0.885E-01
RMM:  61    -0.695880922701E+03   -0.33000E-01   -0.22753E-03 15373   0.696E-02    0.755E-01
RMM:  62    -0.695966378573E+03   -0.85456E-01   -0.10542E-03 13672   0.515E-02    0.707E-01
RMM:  63    -0.696123181404E+03   -0.15680E+00   -0.18185E-03 14996   0.540E-02    0.497E-01
RMM:  64    -0.696258833862E+03   -0.13565E+00   -0.12806E-03 14129   0.455E-02    0.379E-01
RMM:  65    -0.696327444679E+03   -0.68611E-01   -0.79255E-04 13088   0.377E-02    0.238E-01
RMM:  66    -0.696352904079E+03   -0.25459E-01   -0.42374E-04 11615   0.304E-02    0.125E-01
RMM:  67    -0.696375676928E+03   -0.22773E-01   -0.26921E-04 10297   0.220E-02    0.872E-02
RMM:  68    -0.696387405643E+03   -0.11729E-01   -0.15500E-04  9334   0.163E-02    0.584E-02
RMM:  69    -0.696395710167E+03   -0.83045E-02   -0.51245E-05  8738   0.121E-02    0.374E-02
RMM:  70    -0.696402498875E+03   -0.67887E-02   -0.30162E-05  8359   0.932E-03    0.292E-02
RMM:  71    -0.696406253634E+03   -0.37548E-02   -0.14959E-05  7757   0.671E-03    0.218E-02
RMM:  72    -0.696408375103E+03   -0.21215E-02   -0.10565E-05  6368   0.480E-03    0.179E-02
RMM:  73    -0.696410219551E+03   -0.18444E-02   -0.15163E-05  6034   0.447E-03    0.137E-02
RMM:  74    -0.696412286440E+03   -0.20669E-02   -0.18633E-05  6252   0.469E-03    0.110E-02
RMM:  75    -0.696413941052E+03   -0.16546E-02   -0.15854E-05  6098   0.460E-03    0.101E-02
RMM:  76    -0.696414691130E+03   -0.75008E-03   -0.83336E-06  5283   0.415E-03    0.102E-02
RMM:  77    -0.696415197510E+03   -0.50638E-03   -0.64659E-06  4695   0.370E-03    0.705E-03
RMM:  78    -0.696415523662E+03   -0.32615E-03   -0.59466E-06  4582   0.363E-03    0.603E-03
RMM:  79    -0.696415551723E+03   -0.28061E-04   -0.39381E-06  4260   0.348E-03
   1 F= -.69641555E+03 E0= -.69585040E+03  d E =-.696416E+03  mag=     3.7768
 curvature:   0.00 expect dE= 0.000E+00 dE for cont linesearch  0.000E+00
 trial: gam= 0.00000 g(F)=  0.121E+01 g(S)=  0.000E+00 ort = 0.000E+00 (trialstep = 0.100E+01)
 search vector abs. value=  0.121E+01
 bond charge predicted
       N       E                     dE             d eps       ncg     rms          rms(c)
DAV:   1    -0.695211268766E+03    0.12043E+01   -0.26214E+02 15344   0.203E+01    0.485E+00
RMM:   2    -0.695857379931E+03   -0.64611E+00   -0.64548E+00 14848   0.372E+00    0.506E+00
RMM:   3    -0.696056960067E+03   -0.19958E+00   -0.12058E+00 15495   0.167E+00    0.556E+00
RMM:   4    -0.696518667526E+03   -0.46171E+00   -0.33270E-01 16186   0.828E-01    0.100E+01
RMM:   5    -0.695927472854E+03    0.59119E+00   -0.96607E-02 14863   0.549E-01    0.380E+00
RMM:   6    -0.695872743355E+03    0.54729E-01   -0.53733E-02 14903   0.416E-01    0.236E+00
RMM:   7    -0.695856079682E+03    0.16664E-01   -0.42739E-02 15260   0.343E-01    0.209E+00
RMM:   8    -0.695833787359E+03    0.22292E-01   -0.19690E-02 14985   0.246E-01    0.969E-01
RMM:   9    -0.695834351276E+03   -0.56392E-03   -0.70936E-03 14998   0.151E-01    0.861E-01
RMM:  10    -0.695833487421E+03    0.86386E-03   -0.28689E-03 14511   0.932E-02    0.432E-01
RMM:  11    -0.695835745519E+03   -0.22581E-02   -0.12592E-03 13984   0.572E-02    0.316E-01
RMM:  12    -0.695838020098E+03   -0.22746E-02   -0.54646E-04 12753   0.396E-02    0.220E-01
RMM:  13    -0.695840193599E+03   -0.21735E-02   -0.37095E-04 11406   0.308E-02    0.133E-01
RMM:  14    -0.695842433070E+03   -0.22395E-02   -0.21786E-04  9999   0.237E-02    0.896E-02
RMM:  15    -0.695844055023E+03   -0.16220E-02   -0.83191E-05  8894   0.163E-02    0.636E-02
RMM:  16    -0.695845286905E+03   -0.12319E-02   -0.33429E-05  8162   0.105E-02    0.481E-02
RMM:  17    -0.695846706591E+03   -0.14197E-02   -0.18926E-05  7558   0.700E-03    0.394E-02
RMM:  18    -0.695848233520E+03   -0.15269E-02   -0.15871E-05  7358   0.609E-03    0.316E-02
RMM:  19    -0.695850554602E+03   -0.23211E-02   -0.24575E-05  7666   0.605E-03    0.233E-02
RMM:  20    -0.695851919956E+03   -0.13654E-02   -0.12376E-05  6037   0.492E-03    0.242E-02
RMM:  21    -0.695853789475E+03   -0.18695E-02   -0.19196E-05  6636   0.529E-03    0.196E-02
RMM:  22    -0.695855703254E+03   -0.19138E-02   -0.23005E-05  6578   0.534E-03    0.193E-02
RMM:  23    -0.695857588811E+03   -0.18856E-02   -0.32906E-05  7098   0.604E-03    0.147E-02
RMM:  24    -0.695858824517E+03   -0.12357E-02   -0.26465E-05  6624   0.566E-03    0.144E-02
RMM:  25    -0.695859391354E+03   -0.56684E-03   -0.11633E-05  5368   0.482E-03    0.119E-02
RMM:  26    -0.695859908833E+03   -0.51748E-03   -0.80131E-06  4907   0.408E-03    0.107E-02
RMM:  27    -0.695860488194E+03   -0.57936E-03   -0.51668E-06  4591   0.384E-03    0.106E-02
RMM:  28    -0.695860953444E+03   -0.46525E-03   -0.33515E-06  4039   0.346E-03    0.849E-03
RMM:  29    -0.695861579296E+03   -0.62585E-03   -0.32442E-06  4160   0.340E-03    0.808E-03
RMM:  30    -0.695861990244E+03   -0.41095E-03   -0.16336E-06  3394   0.313E-03    0.819E-03
RMM:  31    -0.695862460765E+03   -0.47052E-03   -0.17736E-06  3254   0.306E-03    0.838E-03
RMM:  32    -0.695863023983E+03   -0.56322E-03   -0.28188E-06  3724   0.315E-03    0.631E-03
RMM:  33    -0.695863318270E+03   -0.29429E-03   -0.12530E-06  2900   0.294E-03    0.471E-03
RMM:  34    -0.695863536471E+03   -0.21820E-03   -0.88628E-07  2547   0.288E-03    0.350E-03
RMM:  35    -0.695863644734E+03   -0.10826E-03   -0.49391E-07  2276   0.285E-03    0.291E-03
RMM:  36    -0.695863717800E+03   -0.73066E-04   -0.46445E-07  2226   0.283E-03
   2 F= -.69586372E+03 E0= -.69530295E+03  d E =0.551834E+00  mag=     3.9129
 trial-energy change:    0.551834  1 .order    0.191538   -1.207913    1.590990
 step:   0.2769(harm=  0.4316)  dis= 0.00926  next Energy=  -696.575145 (dE=-0.160E+00)
 bond charge predicted
       N       E                     dE             d eps       ncg     rms          rms(c)
DAV:   1    -0.696203993929E+03   -0.34035E+00   -0.13439E+02 15024   0.144E+01    0.384E+00
RMM:   2    -0.696510314225E+03   -0.30632E+00   -0.36379E+00 14848   0.268E+00    0.293E+00
RMM:   3    -0.696784029247E+03   -0.27372E+00   -0.76737E-01 16029   0.116E+00    0.607E+00
RMM:   4    -0.696886675534E+03   -0.10265E+00   -0.13125E-01 15064   0.595E-01    0.756E+00
RMM:   5    -0.696568315054E+03    0.31836E+00   -0.55509E-02 14918   0.429E-01    0.278E+00
RMM:   6    -0.696543809593E+03    0.24505E-01   -0.27123E-02 14991   0.281E-01    0.194E+00
RMM:   7    -0.696531928540E+03    0.11881E-01   -0.17303E-02 15119   0.215E-01    0.134E+00
RMM:   8    -0.696528795461E+03    0.31331E-02   -0.93003E-03 15027   0.163E-01    0.856E-01
RMM:   9    -0.696531897677E+03   -0.31022E-02   -0.56059E-03 15009   0.124E-01    0.679E-01
RMM:  10    -0.696533477908E+03   -0.15802E-02   -0.20548E-03 14139   0.838E-02    0.425E-01
RMM:  11    -0.696535118152E+03   -0.16402E-02   -0.79438E-04 13297   0.470E-02    0.204E-01
RMM:  12    -0.696536705835E+03   -0.15877E-02   -0.30250E-04 10911   0.290E-02    0.163E-01
RMM:  13    -0.696538510305E+03   -0.18045E-02   -0.19426E-04  9668   0.238E-02    0.108E-01
RMM:  14    -0.696540173021E+03   -0.16627E-02   -0.14094E-04  9218   0.196E-02    0.771E-02
RMM:  15    -0.696540883261E+03   -0.71024E-03   -0.52714E-05  8582   0.131E-02    0.616E-02
RMM:  16    -0.696541203478E+03   -0.32022E-03   -0.19880E-05  7677   0.868E-03    0.358E-02
RMM:  17    -0.696541490742E+03   -0.28726E-03   -0.83164E-06  6718   0.512E-03    0.291E-02
RMM:  18    -0.696541819766E+03   -0.32902E-03   -0.50742E-06  5902   0.418E-03    0.236E-02
RMM:  19    -0.696542536515E+03   -0.71675E-03   -0.13605E-05  7320   0.512E-03    0.194E-02
RMM:  20    -0.696543132290E+03   -0.59577E-03   -0.92998E-06  6542   0.444E-03    0.178E-02
RMM:  21    -0.696543642804E+03   -0.51051E-03   -0.72250E-06  5897   0.427E-03    0.168E-02
RMM:  22    -0.696544183433E+03   -0.54063E-03   -0.96799E-06  6002   0.436E-03    0.156E-02
RMM:  23    -0.696544931811E+03   -0.74838E-03   -0.19023E-05  6890   0.520E-03    0.158E-02
RMM:  24    -0.696545566636E+03   -0.63482E-03   -0.18618E-05  6475   0.503E-03    0.123E-02
RMM:  25    -0.696545881335E+03   -0.31470E-03   -0.78107E-06  5329   0.432E-03    0.110E-02
RMM:  26    -0.696546133734E+03   -0.25240E-03   -0.45920E-06  4347   0.366E-03    0.991E-03
RMM:  27    -0.696546575222E+03   -0.44149E-03   -0.70442E-06  4918   0.375E-03    0.784E-03
RMM:  28    -0.696546987659E+03   -0.41244E-03   -0.48656E-06  4434   0.359E-03    0.697E-03
RMM:  29    -0.696547265526E+03   -0.27787E-03   -0.29164E-06  3779   0.333E-03    0.658E-03
RMM:  30    -0.696547529704E+03   -0.26418E-03   -0.16758E-06  3128   0.308E-03    0.660E-03
RMM:  31    -0.696547960973E+03   -0.43127E-03   -0.19804E-06  3260   0.309E-03    0.617E-03
RMM:  32    -0.696548347583E+03   -0.38661E-03   -0.17561E-06  3342   0.311E-03    0.526E-03
RMM:  33    -0.696548561721E+03   -0.21414E-03   -0.65403E-07  2543   0.294E-03    0.413E-03
RMM:  34    -0.696548787713E+03   -0.22599E-03   -0.52924E-07  2351   0.289E-03    0.298E-03
RMM:  35    -0.696548937529E+03   -0.14982E-03   -0.25461E-07  2163   0.286E-03    0.265E-03
RMM:  36    -0.696549053348E+03   -0.11582E-03   -0.26590E-07  2072   0.284E-03    0.215E-03
RMM:  37    -0.696549120959E+03   -0.67612E-04   -0.41852E-07  2212   0.286E-03
   3 F= -.69654912E+03 E0= -.69598541E+03  d E =-.133569E+00  mag=     3.8081
 curvature:  -0.20 expect dE=-0.415E+00 dE for cont linesearch -0.363E-01
 ZBRENT: interpolating
 opt :   0.1996  next Energy=  -696.567225 (dE=-0.152E+00)
 bond charge predicted
       N       E                     dE             d eps       ncg     rms          rms(c)
DAV:   1    -0.696560325466E+03   -0.11272E-01   -0.15548E+00 15344   0.156E+00    0.367E-01
RMM:   2    -0.696562869636E+03   -0.25442E-02   -0.29467E-02 14695   0.245E-01    0.387E-01
RMM:   3    -0.696566911686E+03   -0.40421E-02   -0.48560E-03 14782   0.105E-01    0.805E-01
RMM:   4    -0.696565694602E+03    0.12171E-02   -0.14532E-03 13819   0.630E-02    0.716E-01
RMM:   5    -0.696563116050E+03    0.25786E-02   -0.63322E-04 12860   0.477E-02    0.352E-01
RMM:   6    -0.696562717416E+03    0.39863E-03   -0.33047E-04 10809   0.325E-02    0.221E-01
RMM:   7    -0.696562538571E+03    0.17884E-03   -0.21650E-04  9667   0.261E-02    0.157E-01
RMM:   8    -0.696562468560E+03    0.70011E-04   -0.11400E-04  8692   0.200E-02
   4 F= -.69656247E+03 E0= -.69599828E+03  d E =-.146917E+00  mag=     3.8068
 curvature:  -0.10 expect dE=-0.116E+00 dE for cont linesearch -0.244E-02
 trial: gam= 0.81999 g(F)=  0.116E+01 g(S)=  0.000E+00 ort = 0.172E+00 (trialstep = 0.450E+00)
 search vector abs. value=  0.226E+01
 bond charge predicted
       N       E                     dE             d eps       ncg     rms          rms(c)
DAV:   1    -0.696161144445E+03    0.40139E+00   -0.92364E+01 14944   0.128E+01    0.307E+00
RMM:   2    -0.696429468108E+03   -0.26832E+00   -0.17382E+00 14848   0.241E+00    0.527E+00
RMM:   3    -0.696969300349E+03   -0.53983E+00   -0.48486E-01 15958   0.108E+00    0.966E+00
RMM:   4    -0.696402764660E+03    0.56654E+00   -0.11923E-01 15013   0.604E-01    0.386E+00
RMM:   5    -0.696384608752E+03    0.18156E-01   -0.40165E-02 14943   0.374E-01    0.296E+00
RMM:   6    -0.696342556524E+03    0.42052E-01   -0.22818E-02 14926   0.265E-01    0.187E+00
RMM:   7    -0.696334203933E+03    0.83526E-02   -0.17336E-02 15249   0.220E-01    0.130E+00
RMM:   8    -0.696329114669E+03    0.50893E-02   -0.84549E-03 14933   0.154E-01    0.733E-01
RMM:   9    -0.696327565142E+03    0.15495E-02   -0.48080E-03 14924   0.114E-01    0.685E-01
RMM:  10    -0.696325360226E+03    0.22049E-02   -0.14100E-03 13794   0.685E-02    0.397E-01
RMM:  11    -0.696324436973E+03    0.92325E-03   -0.52898E-04 12237   0.393E-02    0.235E-01
RMM:  12    -0.696324239022E+03    0.19795E-03   -0.27949E-04 10541   0.274E-02    0.182E-01
RMM:  13    -0.696324242371E+03   -0.33497E-05   -0.25904E-04 10081   0.259E-02
   5 F= -.69632424E+03 E0= -.69575949E+03  d E =0.238226E+00  mag=     3.8179
 trial-energy change:    0.238226  1 .order   -0.083989   -0.585970    0.417992
 step:   0.2625(harm=  0.2625)  dis= 0.01418  next Energy=  -696.733472 (dE=-0.171E+00)
 bond charge predicted
       N       E                     dE             d eps       ncg     rms          rms(c)
DAV:   1    -0.696468086604E+03   -0.14385E+00   -0.16021E+01 15344   0.540E+00    0.119E+00
RMM:   2    -0.696506889478E+03   -0.38803E-01   -0.28259E-01 14848   0.910E-01    0.178E+00
RMM:   3    -0.696568557647E+03   -0.61668E-01   -0.66157E-02 16221   0.405E-01    0.325E+00
RMM:   4    -0.696517056389E+03    0.51501E-01   -0.16646E-02 14879   0.227E-01    0.195E+00
RMM:   5    -0.696504364624E+03    0.12692E-01   -0.64288E-03 14857   0.158E-01    0.111E+00
RMM:   6    -0.696498554762E+03    0.58099E-02   -0.36348E-03 14827   0.105E-01    0.691E-01
RMM:   7    -0.696497435609E+03    0.11192E-02   -0.25615E-03 14745   0.855E-02    0.427E-01
RMM:   8    -0.696497872119E+03   -0.43651E-03   -0.16238E-03 14196   0.652E-02    0.387E-01
RMM:   9    -0.696497331770E+03    0.54035E-03   -0.52898E-04 12534   0.440E-02    0.197E-01
RMM:  10    -0.696497341130E+03   -0.93608E-05   -0.17753E-04  9524   0.236E-02
   6 F= -.69649734E+03 E0= -.69593343E+03  d E =0.651274E-01  mag=     3.8211
 curvature:  -0.23 expect dE=-0.750E+00 dE for cont linesearch -0.553E-01
 ZBRENT: interpolating
 opt :   0.1673  next Energy=  -696.532593 (dE= 0.299E-01)
 bond charge predicted
       N       E                     dE             d eps       ncg     rms          rms(c)
DAV:   1    -0.696564042277E+03   -0.66711E-01   -0.41246E+00 15312   0.270E+00    0.572E-01
RMM:   2    -0.696584392607E+03   -0.20350E-01   -0.71687E-02 14848   0.467E-01    0.160E+00
RMM:   3    -0.696576852201E+03    0.75404E-02   -0.17166E-02 16239   0.207E-01    0.974E-01
RMM:   4    -0.696573417677E+03    0.34345E-02   -0.36199E-03 14715   0.108E-01    0.697E-01
RMM:   5    -0.696572644494E+03    0.77318E-03   -0.16112E-03 14255   0.755E-02    0.542E-01
RMM:   6    -0.696571297511E+03    0.13470E-02   -0.93252E-04 13653   0.551E-02    0.317E-01
RMM:   7    -0.696571148344E+03    0.14917E-03   -0.69620E-04 13288   0.437E-02    0.229E-01
RMM:   8    -0.696571083411E+03    0.64933E-04   -0.31823E-04 10914   0.312E-02
   7 F= -.69657108E+03 E0= -.69600693E+03  d E =-.861485E-02  mag=     3.8208
 curvature:  -0.14 expect dE=-0.500E+00 dE for cont linesearch -0.406E-01
 ZBRENT: bisectioning
 opt :   0.0837  next Energy=  -696.639602 (dE=-0.771E-01)
 bond charge predicted
       N       E                     dE             d eps       ncg     rms          rms(c)
DAV:   1    -0.696611123443E+03   -0.39975E-01   -0.31878E+00 15344   0.237E+00    0.536E-01
RMM:   2    -0.696620455091E+03   -0.93316E-02   -0.55052E-02 14848   0.417E-01    0.991E-01
RMM:   3    -0.696629652649E+03   -0.91976E-02   -0.13565E-02 16118   0.184E-01    0.140E+00
RMM:   4    -0.696620678653E+03    0.89740E-02   -0.35437E-03 14560   0.104E-01    0.915E-01
RMM:   5    -0.696617095953E+03    0.35827E-02   -0.11345E-03 13702   0.683E-02    0.419E-01
RMM:   6    -0.696616067002E+03    0.10290E-02   -0.72722E-04 13117   0.454E-02    0.240E-01
RMM:   7    -0.696616139646E+03   -0.72644E-04   -0.52996E-04 12390   0.381E-02    0.222E-01
RMM:   8    -0.696616066228E+03    0.73418E-04   -0.26873E-04 10451   0.291E-02
   8 F= -.69661607E+03 E0= -.69605192E+03  d E =-.535977E-01  mag=     3.8186
 curvature:  -0.24 expect dE=-0.374E+00 dE for cont linesearch -0.112E-02
 trial: gam= 1.28590 g(F)=  0.153E+01 g(S)=  0.000E+00 ort =-0.102E+00 (trialstep = 0.170E+00)
 search vector abs. value=  0.500E+01
 bond charge predicted
       N       E                     dE             d eps       ncg     rms          rms(c)
DAV:   1    -0.696632424048E+03   -0.16284E-01   -0.26795E+01 15040   0.626E+00    0.182E+00
RMM:   2    -0.696711458813E+03   -0.79035E-01   -0.53543E-01 14848   0.124E+00    0.302E+00
RMM:   3    -0.696867902909E+03   -0.15644E+00   -0.12749E-01 15647   0.556E-01    0.526E+00
RMM:   4    -0.696711417214E+03    0.15649E+00   -0.36100E-02 14947   0.328E-01    0.263E+00
RMM:   5    -0.696692675564E+03    0.18742E-01   -0.13329E-02 14866   0.218E-01    0.168E+00
RMM:   6    -0.696679315610E+03    0.13360E-01   -0.89623E-03 14972   0.164E-01    0.113E+00
RMM:   7    -0.696676693113E+03    0.26225E-02   -0.64452E-03 15252   0.132E-01    0.782E-01
RMM:   8    -0.696674845888E+03    0.18472E-02   -0.40933E-03 14887   0.102E-01    0.466E-01
RMM:   9    -0.696674044076E+03    0.80181E-03   -0.19539E-03 13899   0.737E-02    0.279E-01
RMM:  10    -0.696673705071E+03    0.33900E-03   -0.49891E-04 12391   0.397E-02    0.201E-01
RMM:  11    -0.696673440220E+03    0.26485E-03   -0.16784E-04  9486   0.231E-02    0.101E-01
RMM:  12    -0.696673417837E+03    0.22383E-04   -0.11583E-04  8993   0.180E-02
   9 F= -.69667342E+03 E0= -.69610950E+03  d E =-.573516E-01  mag=     3.8212
 trial-energy change:   -0.057352  1 .order    0.008743   -0.237675    0.255161
 step:   0.1125(harm=  0.0820)  dis= 0.01205  next Energy=  -696.713962 (dE=-0.979E-01)
 bond charge predicted
       N       E                     dE             d eps       ncg     rms          rms(c)
DAV:   1    -0.696700610433E+03   -0.27170E-01   -0.30746E+00 15232   0.217E+00    0.515E-01
RMM:   2    -0.696711694629E+03   -0.11084E-01   -0.58807E-02 14848   0.383E-01    0.115E+00
RMM:   3    -0.696713373472E+03   -0.16788E-02   -0.11634E-02 16072   0.170E-01    0.107E+00
RMM:   4    -0.696708762232E+03    0.46112E-02   -0.30418E-03 14391   0.916E-02    0.757E-01
RMM:   5    -0.696707289459E+03    0.14728E-02   -0.15320E-03 13906   0.707E-02    0.522E-01
RMM:   6    -0.696706189482E+03    0.11000E-02   -0.11448E-03 13943   0.568E-02    0.299E-01
RMM:   7    -0.696706130726E+03    0.58756E-04   -0.67383E-04 13354   0.434E-02    0.224E-01
RMM:   8    -0.696706095771E+03    0.34955E-04   -0.33931E-04 11182   0.318E-02
  10 F= -.69670610E+03 E0= -.69614204E+03  d E =-.900295E-01  mag=     3.8217
 curvature:  -0.13 expect dE=-0.178E+00 dE for cont linesearch -0.167E-02
 trial: gam= 0.25417 g(F)=  0.139E+01 g(S)=  0.000E+00 ort = 0.254E+00 (trialstep = 0.158E+00)
 search vector abs. value=  0.184E+01
 bond charge predicted
       N       E                     dE             d eps       ncg     rms          rms(c)
DAV:   1    -0.696607065614E+03    0.99065E-01   -0.11012E+01 15152   0.489E+00    0.931E-01
RMM:   2    -0.696634442423E+03   -0.27377E-01   -0.25241E-01 14848   0.783E-01    0.128E+00
RMM:   3    -0.696663179293E+03   -0.28737E-01   -0.36454E-02 15157   0.331E-01    0.225E+00
RMM:   4    -0.696642771508E+03    0.20408E-01   -0.10076E-02 14967   0.184E-01    0.148E+00
RMM:   5    -0.696633546346E+03    0.92252E-02   -0.43628E-03 14754   0.130E-01    0.820E-01
RMM:   6    -0.696632117716E+03    0.14286E-02   -0.21453E-03 14237   0.818E-02    0.569E-01
RMM:   7    -0.696631293110E+03    0.82461E-03   -0.14679E-03 14108   0.659E-02    0.419E-01
RMM:   8    -0.696630522707E+03    0.77040E-03   -0.61684E-04 12731   0.451E-02    0.207E-01
RMM:   9    -0.696630488896E+03    0.33811E-04   -0.27547E-04 10566   0.302E-02
  11 F= -.69663049E+03 E0= -.69606721E+03  d E =0.756069E-01  mag=     3.8205
 trial-energy change:    0.075607  1 .order    0.014413   -0.229862    0.258687
 step:   0.0491(harm=  0.0746)  dis= 0.00459  next Energy=  -696.739882 (dE=-0.338E-01)
 bond charge predicted
       N       E                     dE             d eps       ncg     rms          rms(c)
DAV:   1    -0.696736871288E+03   -0.10635E+00   -0.52626E+00 15296   0.340E+00    0.618E-01
RMM:   2    -0.696748829964E+03   -0.11959E-01   -0.11524E-01 14848   0.534E-01    0.860E-01
RMM:   3    -0.696754338841E+03   -0.55089E-02   -0.15024E-02 15019   0.223E-01    0.104E+00
RMM:   4    -0.696765188948E+03   -0.10850E-01   -0.50860E-03 15093   0.121E-01    0.170E+00
RMM:   5    -0.696748548798E+03    0.16640E-01   -0.22403E-03 14322   0.940E-02    0.555E-01
RMM:   6    -0.696747952248E+03    0.59655E-03   -0.10162E-03 13447   0.579E-02    0.335E-01
RMM:   7    -0.696747702727E+03    0.24952E-03   -0.71663E-04 13222   0.464E-02    0.211E-01
RMM:   8    -0.696747632055E+03    0.70672E-04   -0.26617E-04 10485   0.297E-02
  12 F= -.69674763E+03 E0= -.69618390E+03  d E =-.415363E-01  mag=     3.8216
 curvature:  -0.04 expect dE=-0.217E-01 dE for cont linesearch -0.393E-03
 ZBRENT: interpolating
 opt :   0.0571  next Energy=  -696.748155 (dE=-0.421E-01)
 bond charge predicted
       N       E                     dE             d eps       ncg     rms          rms(c)
DAV:   1    -0.696747657919E+03    0.44809E-04   -0.29411E-02 15552   0.260E-01    0.908E-02
RMM:   2    -0.696748252288E+03   -0.59437E-03   -0.87669E-04 13305   0.494E-02    0.287E-01
RMM:   3    -0.696747742218E+03    0.51007E-03   -0.19933E-04  8641   0.309E-02    0.101E-01
RMM:   4    -0.696747838663E+03   -0.96445E-04   -0.49763E-05  8096   0.147E-02    0.147E-01
RMM:   5    -0.696747713399E+03    0.12526E-03   -0.17732E-05  7680   0.889E-03    0.455E-02
RMM:   6    -0.696747726290E+03   -0.12891E-04   -0.12416E-05  6904   0.648E-03    0.242E-02
RMM:   7    -0.696747738970E+03   -0.12680E-04   -0.80707E-06  6749   0.533E-03    0.307E-02
RMM:   8    -0.696747745169E+03   -0.61988E-05   -0.47811E-06  6450   0.478E-03
  13 F= -.69674775E+03 E0= -.69618413E+03  d E =-.416494E-01  mag=     3.8216
 curvature:  -0.06 expect dE=-0.359E-01 dE for cont linesearch -0.395E-03
 trial: gam= 0.44910 g(F)=  0.629E+00 g(S)=  0.000E+00 ort =-0.113E+00 (trialstep = 0.138E+00)
 search vector abs. value=  0.898E+00
 bond charge predicted
       N       E                     dE             d eps       ncg     rms          rms(c)
DAV:   1    -0.696776793438E+03   -0.29054E-01   -0.40205E+00 15232   0.269E+00    0.657E-01
RMM:   2    -0.696787950569E+03   -0.11157E-01   -0.89464E-02 14848   0.414E-01    0.108E+00
RMM:   3    -0.696796791380E+03   -0.88408E-02   -0.13391E-02 15209   0.183E-01    0.134E+00
RMM:   4    -0.696796197893E+03    0.59349E-03   -0.42711E-03 14634   0.112E-01    0.150E+00
RMM:   5    -0.696791720051E+03    0.44778E-02   -0.18164E-03 14012   0.806E-02    0.107E+00
RMM:   6    -0.696785138404E+03    0.65816E-02   -0.73805E-04 13245   0.543E-02    0.506E-01
RMM:   7    -0.696784111676E+03    0.10267E-02   -0.46386E-04 12009   0.368E-02    0.190E-01
RMM:   8    -0.696784322265E+03   -0.21059E-03   -0.31782E-04 10953   0.309E-02    0.214E-01
RMM:   9    -0.696784048068E+03    0.27420E-03   -0.12034E-04  8770   0.228E-02    0.724E-02
RMM:  10    -0.696784031879E+03    0.16189E-04   -0.38195E-05  8439   0.123E-02
  14 F= -.69678403E+03 E0= -.69622103E+03  d E =-.362867E-01  mag=     3.8224
 trial-energy change:   -0.036287  1 .order   -0.027997   -0.079904    0.023910
 step:   0.1155(harm=  0.1064)  dis= 0.01227  next Energy=  -696.785961 (dE=-0.382E-01)
 bond charge predicted
       N       E                     dE             d eps       ncg     rms          rms(c)
DAV:   1    -0.696785224844E+03   -0.11768E-02   -0.10901E-01 15376   0.445E-01    0.108E-01
RMM:   2    -0.696785759019E+03   -0.53417E-03   -0.23548E-03 13473   0.687E-02    0.239E-01
RMM:   3    -0.696785789765E+03   -0.30746E-04   -0.34534E-04  9914   0.316E-02    0.224E-01
RMM:   4    -0.696785785951E+03    0.38142E-05   -0.13931E-04  8306   0.216E-02    0.253E-01
RMM:   5    -0.696785637249E+03    0.14870E-03   -0.50721E-05  7979   0.157E-02    0.152E-01
RMM:   6    -0.696785540601E+03    0.96648E-04   -0.21911E-05  7382   0.938E-03    0.804E-02
RMM:   7    -0.696785555384E+03   -0.14783E-04   -0.16147E-05  7157   0.750E-03    0.428E-02
RMM:   8    -0.696785577853E+03   -0.22470E-04   -0.89879E-06  6999   0.612E-03
  15 F= -.69678558E+03 E0= -.69622241E+03  d E =-.378327E-01  mag=     3.8232
 curvature:  -0.08 expect dE=-0.732E-01 dE for cont linesearch -0.936E-04
 trial: gam= 1.10642 g(F)=  0.964E+00 g(S)=  0.000E+00 ort = 0.333E-01 (trialstep = 0.562E-01)
 search vector abs. value=  0.214E+01
 bond charge predicted
       N       E                     dE             d eps       ncg     rms          rms(c)
DAV:   1    -0.696811027087E+03   -0.25472E-01   -0.15775E+00 15200   0.162E+00    0.448E-01
RMM:   2    -0.696815238998E+03   -0.42119E-02   -0.41986E-02 14860   0.265E-01    0.695E-01
RMM:   3    -0.696824040980E+03   -0.88020E-02   -0.66606E-03 14891   0.123E-01    0.123E+00
RMM:   4    -0.696815698372E+03    0.83426E-02   -0.17349E-03 13931   0.743E-02    0.680E-01
RMM:   5    -0.696815505578E+03    0.19279E-03   -0.85198E-04 13570   0.508E-02    0.544E-01
RMM:   6    -0.696813724978E+03    0.17806E-02   -0.46392E-04 11701   0.398E-02    0.225E-01
RMM:   7    -0.696813569623E+03    0.15535E-03   -0.21600E-04  9740   0.265E-02    0.117E-01
RMM:   8    -0.696813555169E+03    0.14454E-04   -0.14108E-04  8916   0.211E-02
  16 F= -.69681356E+03 E0= -.69625066E+03  d E =-.279773E-01  mag=     3.8249
 trial-energy change:   -0.027977  1 .order   -0.030927   -0.056226   -0.005628
 step:   0.0669(harm=  0.0624)  dis= 0.01133  next Energy=  -696.814071 (dE=-0.285E-01)
 bond charge predicted
       N       E                     dE             d eps       ncg     rms          rms(c)
DAV:   1    -0.696814208563E+03   -0.63894E-03   -0.57256E-02 15376   0.312E-01    0.920E-02
RMM:   2    -0.696814603737E+03   -0.39517E-03   -0.15326E-03 12706   0.532E-02    0.249E-01
RMM:   3    -0.696814351295E+03    0.25244E-03   -0.25746E-04  9098   0.290E-02    0.965E-02
RMM:   4    -0.696814773707E+03   -0.42241E-03   -0.96700E-05  8422   0.169E-02    0.274E-01
RMM:   5    -0.696814360540E+03    0.41317E-03   -0.37470E-05  8209   0.131E-02    0.708E-02
RMM:   6    -0.696814398387E+03   -0.37847E-04   -0.19078E-05  7280   0.768E-03    0.658E-02
RMM:   7    -0.696814412682E+03   -0.14296E-04   -0.11273E-05  7051   0.697E-03    0.319E-02
RMM:   8    -0.696814458043E+03   -0.45361E-04   -0.63768E-06  6465   0.501E-03
  17 F= -.69681446E+03 E0= -.69625168E+03  d E =-.288802E-01  mag=     3.8264
 curvature:  -0.03 expect dE=-0.226E-01 dE for cont linesearch -0.490E-04
 trial: gam= 0.33820 g(F)=  0.690E+00 g(S)=  0.000E+00 ort = 0.566E-01 (trialstep = 0.583E-01)
 search vector abs. value=  0.973E+00
 bond charge predicted
       N       E                     dE             d eps       ncg     rms          rms(c)
DAV:   1    -0.696844082761E+03   -0.29670E-01   -0.80150E-01 15200   0.118E+00    0.251E-01
RMM:   2    -0.696846107075E+03   -0.20243E-02   -0.20635E-02 14789   0.188E-01    0.390E-01
RMM:   3    -0.696848570903E+03   -0.24638E-02   -0.32369E-03 14980   0.813E-02    0.672E-01
RMM:   4    -0.696846182945E+03    0.23880E-02   -0.59407E-04 12464   0.425E-02    0.276E-01
RMM:   5    -0.696846157460E+03    0.25485E-04   -0.29084E-04 10483   0.315E-02    0.253E-01
RMM:   6    -0.696845943922E+03    0.21354E-03   -0.17031E-04  9043   0.246E-02    0.144E-01
RMM:   7    -0.696845930674E+03    0.13248E-04   -0.11095E-04  8639   0.195E-02    0.101E-01
RMM:   8    -0.696845975650E+03   -0.44976E-04   -0.71183E-05  8245   0.154E-02
  18 F= -.69684598E+03 E0= -.69628326E+03  d E =-.315176E-01  mag=     3.8272
 trial-energy change:   -0.031518  1 .order   -0.027214   -0.041345   -0.013082
 step:   0.0711(harm=  0.0853)  dis= 0.00704  next Energy=  -696.847453 (dE=-0.330E-01)
 bond charge predicted
       N       E                     dE             d eps       ncg     rms          rms(c)
DAV:   1    -0.696847369510E+03   -0.14388E-02   -0.38389E-02 15360   0.259E-01    0.727E-02
RMM:   2    -0.696849946052E+03   -0.25765E-02   -0.11280E-03 12665   0.455E-02    0.604E-01
RMM:   3    -0.696847400033E+03    0.25460E-02   -0.22992E-04  9063   0.299E-02    0.676E-02
RMM:   4    -0.696847511377E+03   -0.11134E-03   -0.69665E-05  8278   0.162E-02    0.647E-02
RMM:   5    -0.696847524495E+03   -0.13118E-04   -0.20296E-05  7520   0.964E-03    0.433E-02
RMM:   6    -0.696847557694E+03   -0.33200E-04   -0.76163E-06  6531   0.574E-03    0.355E-02
RMM:   7    -0.696847599247E+03   -0.41553E-04   -0.64177E-06  6367   0.505E-03    0.414E-02
RMM:   8    -0.696847620023E+03   -0.20776E-04   -0.45556E-06  5958   0.455E-03
  19 F= -.69684762E+03 E0= -.69628490E+03  d E =-.331620E-01  mag=     3.8278
 curvature:  -0.04 expect dE=-0.184E-01 dE for cont linesearch -0.460E-05
 trial: gam= 0.43119 g(F)=  0.436E+00 g(S)=  0.000E+00 ort = 0.103E-01 (trialstep = 0.609E-01)
 search vector abs. value=  0.626E+00
 bond charge predicted
       N       E                     dE             d eps       ncg     rms          rms(c)
DAV:   1    -0.696864080565E+03   -0.16481E-01   -0.55143E-01 15168   0.964E-01    0.234E-01
RMM:   2    -0.696865093589E+03   -0.10130E-02   -0.11285E-02 14515   0.145E-01    0.259E-01
RMM:   3    -0.696869900217E+03   -0.48066E-02   -0.17358E-03 13925   0.673E-02    0.856E-01
RMM:   4    -0.696864988941E+03    0.49113E-02   -0.54105E-04 12392   0.446E-02    0.206E-01
RMM:   5    -0.696865157514E+03   -0.16857E-03   -0.20903E-04  9615   0.267E-02    0.173E-01
RMM:   6    -0.696865061762E+03    0.95752E-04   -0.97206E-05  8595   0.195E-02    0.121E-01
RMM:   7    -0.696865009756E+03    0.52007E-04   -0.45675E-05  8149   0.131E-02    0.530E-02
RMM:   8    -0.696865032658E+03   -0.22903E-04   -0.28438E-05  7587   0.966E-03
  20 F= -.69686503E+03 E0= -.69630224E+03  d E =-.174126E-01  mag=     3.8267
 trial-energy change:   -0.017413  1 .order   -0.015295   -0.026792   -0.003798
 step:   0.0671(harm=  0.0709)  dis= 0.00649  next Energy=  -696.865230 (dE=-0.176E-01)
 bond charge predicted
       N       E                     dE             d eps       ncg     rms          rms(c)
DAV:   1    -0.696865217002E+03   -0.20725E-03   -0.58521E-03 15152   0.103E-01    0.339E-02
RMM:   2    -0.696865323910E+03   -0.10691E-03   -0.15785E-04  8395   0.187E-02    0.115E-01
RMM:   3    -0.696865297725E+03    0.26185E-04   -0.37464E-05  7928   0.129E-02    0.944E-02
RMM:   4    -0.696865247921E+03    0.49804E-04   -0.98281E-06  6820   0.633E-03    0.332E-02
RMM:   5    -0.696865256101E+03   -0.81798E-05   -0.40367E-06  5839   0.443E-03    0.190E-02
RMM:   6    -0.696865261861E+03   -0.57600E-05   -0.10886E-06  3610   0.313E-03    0.151E-02
RMM:   7    -0.696865269696E+03   -0.78348E-05   -0.30654E-07  2444   0.279E-03    0.128E-02
RMM:   8    -0.696865277386E+03   -0.76908E-05   -0.16970E-07  1991   0.275E-03
  21 F= -.69686528E+03 E0= -.69630247E+03  d E =-.176574E-01  mag=     3.8258
 curvature:  -0.04 expect dE=-0.231E-01 dE for cont linesearch -0.223E-05
 trial: gam= 0.86120 g(F)=  0.535E+00 g(S)=  0.000E+00 ort = 0.568E-02 (trialstep = 0.385E-01)
 search vector abs. value=  0.101E+01
 bond charge predicted
       N       E                     dE             d eps       ncg     rms          rms(c)
DAV:   1    -0.696874422565E+03   -0.91529E-02   -0.35835E-01 15344   0.746E-01    0.233E-01
RMM:   2    -0.696874878193E+03   -0.45563E-03   -0.87068E-03 14112   0.123E-01    0.243E-01
RMM:   3    -0.696878665329E+03   -0.37871E-02   -0.13601E-03 13552   0.571E-02    0.780E-01
RMM:   4    -0.696874650305E+03    0.40150E-02   -0.42168E-04 11270   0.382E-02    0.144E-01
RMM:   5    -0.696874901216E+03   -0.25091E-03   -0.21374E-04  9656   0.262E-02    0.202E-01
RMM:   6    -0.696874750388E+03    0.15083E-03   -0.13234E-04  8548   0.231E-02    0.127E-01
RMM:   7    -0.696874659421E+03    0.90966E-04   -0.50548E-05  8201   0.146E-02    0.624E-02
RMM:   8    -0.696874654372E+03    0.50492E-05   -0.25434E-05  7408   0.951E-03
  22 F= -.69687465E+03 E0= -.69631187E+03  d E =-.937699E-02  mag=     3.8241
 trial-energy change:   -0.009377  1 .order   -0.007632   -0.020788    0.005525
 step:   0.0325(harm=  0.0304)  dis= 0.00295  next Energy=  -696.875082 (dE=-0.980E-02)
 bond charge predicted
       N       E                     dE             d eps       ncg     rms          rms(c)
DAV:   1    -0.696875065919E+03   -0.40650E-03   -0.89621E-03 15392   0.120E-01    0.477E-02
RMM:   2    -0.696875687944E+03   -0.62202E-03   -0.27766E-04  8905   0.236E-02    0.292E-01
RMM:   3    -0.696875164892E+03    0.52305E-03   -0.76061E-05  8000   0.177E-02    0.953E-02
RMM:   4    -0.696875156182E+03    0.87108E-05   -0.22187E-05  7439   0.946E-03    0.466E-02
RMM:   5    -0.696875170876E+03   -0.14694E-04   -0.63996E-06  6580   0.568E-03    0.205E-02
RMM:   6    -0.696875195858E+03   -0.24982E-04   -0.31781E-06  4925   0.381E-03    0.260E-02
RMM:   7    -0.696875221783E+03   -0.25925E-04   -0.19152E-06  4245   0.347E-03    0.196E-02
RMM:   8    -0.696875241856E+03   -0.20073E-04   -0.77576E-07  2922   0.309E-03
  23 F= -.69687524E+03 E0= -.69631240E+03  d E =-.996447E-02  mag=     3.8229
 curvature:  -0.03 expect dE=-0.903E-02 dE for cont linesearch -0.821E-10
 trial: gam= 0.19114 g(F)=  0.339E+00 g(S)=  0.000E+00 ort = 0.557E-04 (trialstep = 0.373E-01)
 search vector abs. value=  0.376E+00
 bond charge predicted
       N       E                     dE             d eps       ncg     rms          rms(c)
DAV:   1    -0.696882165843E+03   -0.69441E-02   -0.12388E-01 15360   0.453E-01    0.928E-02
RMM:   2    -0.696882379430E+03   -0.21359E-03   -0.22340E-03 13009   0.679E-02    0.839E-02
RMM:   3    -0.696882591024E+03   -0.21159E-03   -0.32242E-04  9705   0.293E-02    0.176E-01
RMM:   4    -0.696882521207E+03    0.69817E-04   -0.95363E-05  8373   0.179E-02    0.144E-01
RMM:   5    -0.696882430171E+03    0.91036E-04   -0.41877E-05  8019   0.126E-02    0.759E-02
RMM:   6    -0.696882417292E+03    0.12879E-04   -0.21569E-05  7295   0.946E-03    0.589E-02
RMM:   7    -0.696882413451E+03    0.38406E-05   -0.10341E-05  6989   0.661E-03    0.330E-02
RMM:   8    -0.696882419767E+03   -0.63160E-05   -0.46977E-06  5764   0.451E-03
  24 F= -.69688242E+03 E0= -.69631966E+03  d E =-.717791E-02  mag=     3.8219
 trial-energy change:   -0.007178  1 .order   -0.006945   -0.012645   -0.001245
 step:   0.0414(harm=  0.0414)  dis= 0.00227  next Energy=  -696.882255 (dE=-0.701E-02)
 bond charge predicted
       N       E                     dE             d eps       ncg     rms          rms(c)
DAV:   1    -0.696882487556E+03   -0.74105E-04   -0.14814E-03 14880   0.502E-02    0.155E-02
RMM:   2    -0.696882528762E+03   -0.41206E-04   -0.34242E-05  7576   0.884E-03    0.620E-02
RMM:   3    -0.696882518306E+03    0.10456E-04   -0.73862E-06  6612   0.594E-03    0.435E-02
RMM:   4    -0.696882509097E+03    0.92085E-05   -0.99978E-07  3094   0.304E-03    0.109E-02
RMM:   5    -0.696882514721E+03   -0.56242E-05   -0.21970E-07  1943   0.266E-03    0.623E-03
RMM:   6    -0.696882526318E+03   -0.11596E-04   -0.51302E-08  1554   0.260E-03    0.100E-02
RMM:   7    -0.696882532014E+03   -0.56967E-05   -0.12228E-08  1321   0.254E-03    0.600E-03
RMM:   8    -0.696882543892E+03   -0.11877E-04   -0.40062E-08  1282   0.258E-03
  25 F= -.69688254E+03 E0= -.69631978E+03  d E =-.730204E-02  mag=     3.8210
 curvature:  -0.02 expect dE=-0.213E-02 dE for cont linesearch -0.439E-06
 trial: gam= 0.24298 g(F)=  0.926E-01 g(S)=  0.000E+00 ort =-0.268E-02 (trialstep = 0.381E-01)
 search vector abs. value=  0.114E+00
 bond charge predicted
       N       E                     dE             d eps       ncg     rms          rms(c)
DAV:   1    -0.696885034144E+03   -0.25021E-02   -0.30043E-02 15360   0.216E-01    0.502E-02
RMM:   2    -0.696885115370E+03   -0.81226E-04   -0.55061E-04 10523   0.363E-02    0.809E-02
RMM:   3    -0.696885245040E+03   -0.12967E-03   -0.94116E-05  8202   0.178E-02    0.155E-01
RMM:   4    -0.696885098908E+03    0.14613E-03   -0.31076E-05  7731   0.117E-02    0.463E-02
RMM:   5    -0.696885109490E+03   -0.10582E-04   -0.12567E-05  6868   0.658E-03    0.490E-02
RMM:   6    -0.696885099031E+03    0.10459E-04   -0.57679E-06  6473   0.522E-03    0.276E-02
RMM:   7    -0.696885098651E+03    0.37964E-06   -0.37212E-06  5331   0.400E-03    0.182E-02
RMM:   8    -0.696885103579E+03   -0.49278E-05   -0.19114E-06  4093   0.341E-03
  26 F= -.69688510E+03 E0= -.69632237E+03  d E =-.255969E-02  mag=     3.8202
 trial-energy change:   -0.002560  1 .order   -0.002543   -0.003507   -0.001578
 step:   0.0693(harm=  0.0693)  dis= 0.00252  next Energy=  -696.885732 (dE=-0.319E-02)
 bond charge predicted
       N       E                     dE             d eps       ncg     rms          rms(c)
DAV:   1    -0.696885702610E+03   -0.60396E-03   -0.20035E-02 15360   0.176E-01    0.414E-02
RMM:   2    -0.696885753825E+03   -0.51215E-04   -0.37084E-04  9610   0.296E-02    0.617E-02
RMM:   3    -0.696885810807E+03   -0.56981E-04   -0.60039E-05  8029   0.147E-02    0.104E-01
RMM:   4    -0.696885762720E+03    0.48087E-04   -0.20110E-05  7152   0.887E-03    0.612E-02
RMM:   5    -0.696885751802E+03    0.10918E-04   -0.81888E-06  6589   0.593E-03    0.376E-02
RMM:   6    -0.696885745270E+03    0.65325E-05   -0.39288E-06  5838   0.443E-03    0.221E-02
RMM:   7    -0.696885745351E+03   -0.81578E-07   -0.18534E-06  4081   0.344E-03    0.102E-02
RMM:   8    -0.696885748525E+03   -0.31738E-05   -0.11252E-06  3114   0.313E-03
  27 F= -.69688575E+03 E0= -.69632306E+03  d E =-.320463E-02  mag=     3.8193
 curvature:  -0.04 expect dE=-0.364E-02 dE for cont linesearch -0.104E-06
 trial: gam= 0.88208 g(F)=  0.850E-01 g(S)=  0.000E+00 ort =-0.525E-03 (trialstep = 0.292E-01)
 search vector abs. value=  0.172E+00
 bond charge predicted
       N       E                     dE             d eps       ncg     rms          rms(c)
DAV:   1    -0.696887917574E+03   -0.21722E-02   -0.19160E-02 15360   0.156E-01    0.379E-02
RMM:   2    -0.696887993189E+03   -0.75615E-04   -0.29580E-04  9826   0.308E-02    0.953E-02
RMM:   3    -0.696887968070E+03    0.25118E-04   -0.62974E-05  8119   0.149E-02    0.709E-02
RMM:   4    -0.696887945864E+03    0.22206E-04   -0.19302E-05  7281   0.897E-03    0.453E-02
RMM:   5    -0.696887939570E+03    0.62944E-05   -0.94672E-06  6760   0.601E-03    0.422E-02
RMM:   6    -0.696887924242E+03    0.15329E-04   -0.69413E-06  6636   0.525E-03    0.280E-02
RMM:   7    -0.696887914333E+03    0.99090E-05   -0.46730E-06  5851   0.429E-03    0.158E-02
RMM:   8    -0.696887913333E+03    0.99985E-06   -0.12194E-06  3266   0.320E-03
  28 F= -.69688791E+03 E0= -.69632523E+03  d E =-.216481E-02  mag=     3.8183
 ZBRENT: can't locate minimum, use default step
 trial-energy change:   -0.002165  1 .order   -0.002169   -0.002470   -0.001869
 step:   0.1168(harm=  0.1200)  dis= 0.00562  next Energy=  -696.890821 (dE=-0.507E-02)
 bond charge predicted
       N       E                     dE             d eps       ncg     rms          rms(c)
DAV:   1    -0.696889997917E+03   -0.20836E-02   -0.17206E-01 15328   0.466E-01    0.111E-01
RMM:   2    -0.696890424849E+03   -0.42693E-03   -0.26103E-03 14208   0.919E-02    0.215E-01
RMM:   3    -0.696890627159E+03   -0.20231E-03   -0.63383E-04 12395   0.393E-02    0.256E-01
RMM:   4    -0.696890261862E+03    0.36530E-03   -0.15048E-04  8833   0.228E-02    0.149E-01
RMM:   5    -0.696890220594E+03    0.41268E-04   -0.78409E-05  8453   0.176E-02    0.121E-01
RMM:   6    -0.696890118132E+03    0.10246E-03   -0.62079E-05  8290   0.140E-02    0.840E-02
RMM:   7    -0.696890062524E+03    0.55609E-04   -0.46681E-05  7949   0.120E-02    0.479E-02
RMM:   8    -0.696890057024E+03    0.55000E-05   -0.19440E-05  7260   0.847E-03
  29 F= -.69689006E+03 E0= -.69632741E+03  d E =-.430850E-02  mag=     3.8166
 curvature:  -0.12 expect dE=-0.126E-01 dE for cont linesearch -0.150E-03
 trial: gam= 1.12180 g(F)=  0.103E+00 g(S)=  0.000E+00 ort =-0.145E-01 (trialstep = 0.281E-01)
 search vector abs. value=  0.287E+00
 bond charge predicted
       N       E                     dE             d eps       ncg     rms          rms(c)
DAV:   1    -0.696891610986E+03   -0.15485E-02   -0.31524E-02 15360   0.213E-01    0.546E-02
RMM:   2    -0.696891905683E+03   -0.29470E-03   -0.61016E-04 11408   0.417E-02    0.204E-01
RMM:   3    -0.696891687073E+03    0.21861E-03   -0.12163E-04  8555   0.198E-02    0.757E-02
RMM:   4    -0.696891698792E+03   -0.11719E-04   -0.40915E-05  8032   0.131E-02    0.885E-02
RMM:   5    -0.696891661612E+03    0.37180E-04   -0.14728E-05  7342   0.826E-03    0.385E-02
RMM:   6    -0.696891659307E+03    0.23050E-05   -0.96425E-06  6906   0.586E-03    0.502E-02
RMM:   7    -0.696891652679E+03    0.66277E-05   -0.54088E-06  6277   0.494E-03    0.264E-02
RMM:   8    -0.696891655722E+03   -0.30427E-05   -0.30236E-06  4839   0.375E-03
  30 F= -.69689166E+03 E0= -.69632904E+03  d E =-.159870E-02  mag=     3.8150
 trial-energy change:   -0.001599  1 .order   -0.001640   -0.002426   -0.000854
 step:   0.0433(harm=  0.0433)  dis= 0.00276  next Energy=  -696.891929 (dE=-0.187E-02)
 bond charge predicted
       N       E                     dE             d eps       ncg     rms          rms(c)
DAV:   1    -0.696891883127E+03   -0.23045E-03   -0.93249E-03 15344   0.115E-01    0.301E-02
RMM:   2    -0.696891914700E+03   -0.31572E-04   -0.17112E-04  8597   0.221E-02    0.487E-02
RMM:   3    -0.696891932009E+03   -0.17309E-04   -0.30979E-05  7816   0.112E-02    0.628E-02
RMM:   4    -0.696891915576E+03    0.16433E-04   -0.86586E-06  6610   0.585E-03    0.313E-02
RMM:   5    -0.696891918535E+03   -0.29594E-05   -0.39985E-06  6012   0.426E-03    0.299E-02
RMM:   6    -0.696891921527E+03   -0.29914E-05   -0.20582E-06  4633   0.360E-03    0.246E-02
RMM:   7    -0.696891928433E+03   -0.69068E-05   -0.11983E-06  3509   0.320E-03    0.143E-02
RMM:   8    -0.696891936602E+03   -0.81690E-05   -0.71821E-07  2802   0.305E-03
  31 F= -.69689194E+03 E0= -.69632935E+03  d E =-.187958E-02  mag=     3.8136
 curvature:  -0.07 expect dE=-0.251E-02 dE for cont linesearch -0.336E-08
 trial: gam= 0.12467 g(F)=  0.350E-01 g(S)=  0.000E+00 ort = 0.116E-03 (trialstep = 0.311E-01)
 search vector abs. value=  0.395E-01
 bond charge predicted
       N       E                     dE             d eps       ncg     rms          rms(c)
DAV:   1    -0.696892862163E+03   -0.93373E-03   -0.50861E-03 15184   0.921E-02    0.201E-02
RMM:   2    -0.696892901220E+03   -0.39057E-04   -0.98066E-05  7989   0.162E-02    0.540E-02
RMM:   3    -0.696892894273E+03    0.69477E-05   -0.15411E-05  7260   0.823E-03    0.267E-02
RMM:   4    -0.696892918944E+03   -0.24671E-04   -0.53668E-06  5862   0.446E-03    0.620E-02
RMM:   5    -0.696892913430E+03    0.55139E-05   -0.29435E-06  5461   0.400E-03    0.226E-02
RMM:   6    -0.696892928181E+03   -0.14752E-04   -0.68013E-07  2770   0.295E-03    0.165E-02
RMM:   7    -0.696892942084E+03   -0.13902E-04   -0.44347E-07  2401   0.281E-03    0.100E-02
RMM:   8    -0.696892956970E+03   -0.14886E-04   -0.65903E-07  2370   0.294E-03
  32 F= -.69689296E+03 E0= -.69633040E+03  d E =-.102037E-02  mag=     3.8126
 trial-energy change:   -0.001020  1 .order   -0.000929   -0.001088   -0.000770
 step:   0.1065(harm=  0.1065)  dis= 0.00292  next Energy=  -696.893799 (dE=-0.186E-02)
 bond charge predicted
       N       E                     dE             d eps       ncg     rms          rms(c)
DAV:   1    -0.696893844244E+03   -0.90216E-03   -0.29868E-02 15328   0.223E-01    0.474E-02
RMM:   2    -0.696893964863E+03   -0.12062E-03   -0.54996E-04 10880   0.387E-02    0.112E-01
RMM:   3    -0.696893924706E+03    0.40157E-04   -0.96189E-05  8223   0.174E-02    0.540E-02
RMM:   4    -0.696893986911E+03   -0.62205E-04   -0.33131E-05  7702   0.113E-02    0.109E-01
RMM:   5    -0.696893951447E+03    0.35464E-04   -0.16625E-05  7155   0.820E-03    0.603E-02
RMM:   6    -0.696893955905E+03   -0.44587E-05   -0.82816E-06  6726   0.590E-03    0.377E-02
RMM:   7    -0.696893967537E+03   -0.11632E-04   -0.51236E-06  6082   0.440E-03    0.282E-02
RMM:   8    -0.696893977930E+03   -0.10393E-04   -0.28969E-06  4986   0.380E-03
  33 F= -.69689398E+03 E0= -.69633153E+03  d E =-.204133E-02  mag=     3.8120
 curvature:  -0.06 expect dE=-0.319E-02 dE for cont linesearch -0.261E-06
 trial: gam= 1.54485 g(F)=  0.532E-01 g(S)=  0.000E+00 ort =-0.414E-03 (trialstep = 0.125E-01)
 search vector abs. value=  0.146E+00
 bond charge predicted
       N       E                     dE             d eps       ncg     rms          rms(c)
DAV:   1    -0.696894599475E+03   -0.63194E-03   -0.22357E-03 15216   0.558E-02    0.218E-02
RMM:   2    -0.696894676832E+03   -0.77357E-04   -0.48171E-05  7970   0.125E-02    0.978E-02
RMM:   3    -0.696894645246E+03    0.31586E-04   -0.15872E-05  7584   0.833E-03    0.704E-02
RMM:   4    -0.696894625962E+03    0.19283E-04   -0.40731E-06  6223   0.474E-03    0.304E-02
RMM:   5    -0.696894625421E+03    0.54106E-06   -0.76238E-07  3090   0.297E-03    0.164E-02
RMM:   6    -0.696894631743E+03   -0.63217E-05   -0.14668E-07  1934   0.269E-03    0.871E-03
RMM:   7    -0.696894641690E+03   -0.99467E-05   -0.23582E-07  1912   0.279E-03    0.122E-02
RMM:   8    -0.696894648520E+03   -0.68304E-05   -0.20080E-07  1775   0.280E-03
  34 F= -.69689465E+03 E0= -.69633222E+03  d E =-.670590E-03  mag=     3.8116
 ZBRENT: can't locate minimum, use default step
 trial-energy change:   -0.000671  1 .order   -0.000617   -0.000655   -0.000579
 step:   0.0499(harm=  0.1065)  dis= 0.00299  next Energy=  -696.896775 (dE=-0.280E-02)
 bond charge predicted
       N       E                     dE             d eps       ncg     rms          rms(c)
DAV:   1    -0.696896053646E+03   -0.14120E-02   -0.20124E-02 15376   0.166E-01    0.429E-02
RMM:   2    -0.696896141072E+03   -0.87426E-04   -0.35611E-04 10218   0.344E-02    0.994E-02
RMM:   3    -0.696896111044E+03    0.30028E-04   -0.70599E-05  8152   0.157E-02    0.692E-02
RMM:   4    -0.696896136275E+03   -0.25232E-04   -0.27210E-05  7748   0.103E-02    0.960E-02
RMM:   5    -0.696896092227E+03    0.44048E-04   -0.12609E-05  7015   0.726E-03    0.477E-02
RMM:   6    -0.696896084151E+03    0.80761E-05   -0.88270E-06  6951   0.571E-03    0.349E-02
RMM:   7    -0.696896080514E+03    0.36368E-05   -0.50632E-06  6334   0.460E-03    0.204E-02
RMM:   8    -0.696896081874E+03   -0.13603E-05   -0.16733E-06  4082   0.339E-03
  35 F= -.69689608E+03 E0= -.69633373E+03  d E =-.210394E-02  mag=     3.8115
 curvature:  -0.09 expect dE=-0.242E-02 dE for cont linesearch -0.589E-03
 ZBRENT: increasing intervall
 opt :   0.1248  next Energy=  -696.897131 (dE=-0.315E-02)
 bond charge predicted
       N       E                     dE             d eps       ncg     rms          rms(c)
DAV:   1    -0.696897288443E+03   -0.12079E-02   -0.80170E-02 15312   0.332E-01    0.887E-02
RMM:   2    -0.696897597185E+03   -0.30874E-03   -0.13968E-03 13973   0.685E-02    0.190E-01
RMM:   3    -0.696897511640E+03    0.85544E-04   -0.31679E-04 10165   0.286E-02    0.142E-01
RMM:   4    -0.696897660163E+03   -0.14852E-03   -0.10563E-04  8483   0.199E-02    0.217E-01
RMM:   5    -0.696897406761E+03    0.25340E-03   -0.51806E-05  8226   0.148E-02    0.105E-01
RMM:   6    -0.696897365707E+03    0.41054E-04   -0.37960E-05  8017   0.112E-02    0.779E-02
RMM:   7    -0.696897331797E+03    0.33910E-04   -0.24135E-05  7575   0.942E-03    0.457E-02
RMM:   8    -0.696897326864E+03    0.49330E-05   -0.10295E-05  6786   0.638E-03
  36 F= -.69689733E+03 E0= -.69633512E+03  d E =-.334893E-02  mag=     3.8119
 curvature:  -0.17 expect dE=-0.752E-02 dE for cont linesearch -0.748E-04
 trial: gam= 0.76457 g(F)=  0.447E-01 g(S)=  0.000E+00 ort = 0.806E-02 (trialstep = 0.349E-01)
 search vector abs. value=  0.142E+00
 bond charge predicted
       N       E                     dE             d eps       ncg     rms          rms(c)
DAV:   1    -0.696898891807E+03   -0.15600E-02   -0.15325E-02 15600   0.163E-01    0.450E-02
RMM:   2    -0.696898995115E+03   -0.10331E-03   -0.32665E-04  9459   0.305E-02    0.974E-02
RMM:   3    -0.696898986655E+03    0.84597E-05   -0.62064E-05  8015   0.166E-02    0.884E-02
RMM:   4    -0.696898983063E+03    0.35920E-05   -0.20820E-05  7717   0.881E-03    0.757E-02
RMM:   5    -0.696898962091E+03    0.20972E-04   -0.94096E-06  6849   0.643E-03    0.301E-02
RMM:   6    -0.696898978286E+03   -0.16195E-04   -0.47082E-06  6194   0.467E-03    0.275E-02
RMM:   7    -0.696898984670E+03   -0.63842E-05   -0.23943E-06  5041   0.381E-03    0.179E-02
RMM:   8    -0.696898990838E+03   -0.61681E-05   -0.11230E-06  3699   0.323E-03
  37 F= -.69689899E+03 E0= -.69633678E+03  d E =-.166397E-02  mag=     3.8122
 ZBRENT: can't locate minimum, use default step
 trial-energy change:   -0.001664  1 .order   -0.001572   -0.001778   -0.001366
 step:   0.1398(harm=  0.1510)  dis= 0.00904  next Energy=  -696.901168 (dE=-0.384E-02)
 bond charge predicted
       N       E                     dE             d eps       ncg     rms          rms(c)
DAV:   1    -0.696899778751E+03   -0.79408E-03   -0.13799E-01 15312   0.488E-01    0.122E-01
RMM:   2    -0.696900226634E+03   -0.44788E-03   -0.27126E-03 14638   0.892E-02    0.220E-01
RMM:   3    -0.696900599466E+03   -0.37283E-03   -0.53773E-04 12430   0.397E-02    0.323E-01
RMM:   4    -0.696900018750E+03    0.58072E-03   -0.16388E-04  8995   0.237E-02    0.115E-01
RMM:   5    -0.696900085270E+03   -0.66520E-04   -0.78074E-05  8387   0.179E-02    0.119E-01
RMM:   6    -0.696900069287E+03    0.15983E-04   -0.48769E-05  8182   0.138E-02    0.868E-02
RMM:   7    -0.696900040795E+03    0.28492E-04   -0.30045E-05  7900   0.107E-02    0.494E-02
RMM:   8    -0.696900047034E+03   -0.62383E-05   -0.17847E-05  7123   0.771E-03
  38 F= -.69690005E+03 E0= -.69633791E+03  d E =-.272017E-02  mag=     3.8124
 curvature:  -0.21 expect dE=-0.357E-01 dE for cont linesearch -0.844E-03
 ZBRENT: interpolating
 opt :   0.0999  next Energy=  -696.900524 (dE=-0.320E-02)
 bond charge predicted
       N       E                     dE             d eps       ncg     rms          rms(c)
DAV:   1    -0.696900480177E+03   -0.43938E-03   -0.19961E-02 15424   0.186E-01    0.550E-02
RMM:   2    -0.696900959903E+03   -0.47973E-03   -0.44955E-04 10774   0.356E-02    0.274E-01
RMM:   3    -0.696900531153E+03    0.42875E-03   -0.10222E-04  8083   0.200E-02    0.115E-01
RMM:   4    -0.696900497134E+03    0.34019E-04   -0.32367E-05  7907   0.121E-02    0.467E-02
RMM:   5    -0.696900498514E+03   -0.13795E-05   -0.11316E-05  6870   0.699E-03    0.334E-02
RMM:   6    -0.696900505856E+03   -0.73423E-05   -0.10131E-05  7079   0.595E-03    0.487E-02
RMM:   7    -0.696900495248E+03    0.10608E-04   -0.37167E-06  6045   0.459E-03    0.203E-02
RMM:   8    -0.696900498405E+03   -0.31567E-05   -0.38584E-06  5553   0.387E-03
  39 F= -.69690050E+03 E0= -.69633825E+03  d E =-.317154E-02  mag=     3.8126
 curvature:  -0.12 expect dE=-0.933E-02 dE for cont linesearch -0.290E-05
 trial: gam= 2.07849 g(F)=  0.788E-01 g(S)=  0.000E+00 ort = 0.187E-02 (trialstep = 0.973E-02)
 search vector abs. value=  0.702E+00
 bond charge predicted
       N       E                     dE             d eps       ncg     rms          rms(c)
DAV:   1    -0.696901252235E+03   -0.75699E-03   -0.32048E-03 15264   0.706E-02    0.246E-02
RMM:   2    -0.696901270504E+03   -0.18268E-04   -0.58215E-05  7899   0.145E-02    0.496E-02
RMM:   3    -0.696901281403E+03   -0.10900E-04   -0.13757E-05  7579   0.817E-03    0.607E-02
RMM:   4    -0.696901260596E+03    0.20807E-04   -0.45931E-06  6317   0.454E-03    0.304E-02
RMM:   5    -0.696901262024E+03   -0.14279E-05   -0.20150E-06  4676   0.357E-03    0.170E-02
RMM:   6    -0.696901263701E+03   -0.16771E-05   -0.59376E-07  2815   0.305E-03    0.160E-02
RMM:   7    -0.696901263472E+03    0.22956E-06   -0.70181E-07  2840   0.304E-03    0.989E-03
RMM:   8    -0.696901264152E+03   -0.67990E-06   -0.50317E-07  1938   0.287E-03
  40 F= -.69690126E+03 E0= -.69633905E+03  d E =-.765747E-03  mag=     3.8128
 ZBRENT: can't locate minimum, use default step
 trial-energy change:   -0.000766  1 .order   -0.000756   -0.000804   -0.000707
 step:   0.0389(harm=  0.0803)  dis= 0.00623  next Energy=  -696.903820 (dE=-0.332E-02)
 bond charge predicted
       N       E                     dE             d eps       ncg     rms          rms(c)
DAV:   1    -0.696903231677E+03   -0.19682E-02   -0.29002E-02 15360   0.212E-01    0.624E-02
RMM:   2    -0.696903348887E+03   -0.11721E-03   -0.48203E-04 11704   0.417E-02    0.127E-01
RMM:   3    -0.696903357863E+03   -0.89763E-05   -0.10604E-04  8273   0.198E-02    0.133E-01
RMM:   4    -0.696903286609E+03    0.71254E-04   -0.39405E-05  7958   0.130E-02    0.799E-02
RMM:   5    -0.696903286063E+03    0.54641E-06   -0.18574E-05  7201   0.854E-03    0.560E-02
RMM:   6    -0.696903298429E+03   -0.12366E-04   -0.18204E-05  7696   0.818E-03    0.647E-02
RMM:   7    -0.696903276725E+03    0.21704E-04   -0.86524E-06  6898   0.629E-03    0.334E-02
RMM:   8    -0.696903274434E+03    0.22916E-05   -0.40424E-06  5258   0.407E-03
  41 F= -.69690327E+03 E0= -.69634111E+03  d E =-.277603E-02  mag=     3.8130
 curvature:  -0.22 expect dE=-0.254E-01 dE for cont linesearch -0.157E-02
 ZBRENT: increasing intervall
 opt :   0.0973  next Energy=  -696.907226 (dE=-0.673E-02)
 bond charge predicted
       N       E                     dE             d eps       ncg     rms          rms(c)
DAV:   1    -0.696907202884E+03   -0.39262E-02   -0.11592E-01 15456   0.424E-01    0.123E-01
RMM:   2    -0.696907732756E+03   -0.52987E-03   -0.19090E-03 14589   0.834E-02    0.275E-01
RMM:   3    -0.696907657552E+03    0.75204E-04   -0.46144E-04 12079   0.368E-02    0.257E-01
RMM:   4    -0.696907400128E+03    0.25742E-03   -0.14352E-04  9038   0.224E-02    0.140E-01
RMM:   5    -0.696907423381E+03   -0.23253E-04   -0.79405E-05  8356   0.176E-02    0.129E-01
RMM:   6    -0.696907432224E+03   -0.88435E-05   -0.69801E-05  8249   0.159E-02    0.119E-01
RMM:   7    -0.696907360486E+03    0.71738E-04   -0.38623E-05  7997   0.125E-02    0.603E-02
RMM:   8    -0.696907356805E+03    0.36812E-05   -0.18451E-05  7000   0.785E-03
  42 F= -.69690736E+03 E0= -.69634525E+03  d E =-.685840E-02  mag=     3.8131
 curvature:  -0.56 expect dE=-0.113E+00 dE for cont linesearch -0.265E-02
 ZBRENT: increasing intervall
 opt :   0.2140  next Energy=  -696.912583 (dE=-0.121E-01)
 bond charge predicted
       N       E                     dE             d eps       ncg     rms          rms(c)
DAV:   1    -0.696911999378E+03   -0.46389E-02   -0.46507E-01 15360   0.850E-01    0.249E-01
RMM:   2    -0.696914306054E+03   -0.23067E-02   -0.76087E-03 14848   0.166E-01    0.566E-01
RMM:   3    -0.696913624459E+03    0.68160E-03   -0.19265E-03 15702   0.727E-02    0.480E-01
RMM:   4    -0.696912841667E+03    0.78279E-03   -0.54905E-04 13093   0.397E-02    0.270E-01
RMM:   5    -0.696912966689E+03   -0.12502E-03   -0.32081E-04 10940   0.316E-02    0.275E-01
RMM:   6    -0.696912845288E+03    0.12140E-03   -0.28893E-04 10659   0.321E-02    0.210E-01
RMM:   7    -0.696912650991E+03    0.19430E-03   -0.16126E-04  9140   0.235E-02    0.124E-01
RMM:   8    -0.696912620308E+03    0.30682E-04   -0.71718E-05  8501   0.161E-02
  43 F= -.69691262E+03 E0= -.69635065E+03  d E =-.121219E-01  mag=     3.8133
 curvature:  -1.11 expect dE=-0.543E+00 dE for cont linesearch -0.721E-03
 trial: gam= 4.39552 g(F)=  0.489E+00 g(S)=  0.000E+00 ort = 0.214E-01 (trialstep = 0.249E-02)
 search vector abs. value=  0.142E+02
 bond charge predicted
       N       E                     dE             d eps       ncg     rms          rms(c)
DAV:   1    -0.696914069112E+03   -0.14181E-02   -0.35504E-03 15536   0.785E-02    0.414E-02
RMM:   2    -0.696914301423E+03   -0.23231E-03   -0.12062E-04  8531   0.192E-02    0.188E-01
RMM:   3    -0.696914134009E+03    0.16741E-03   -0.46471E-05  7977   0.151E-02    0.104E-01
RMM:   4    -0.696914091845E+03    0.42165E-04   -0.16039E-05  7622   0.783E-03    0.538E-02
RMM:   5    -0.696914091970E+03   -0.12531E-06   -0.66540E-06  6670   0.554E-03    0.299E-02
RMM:   6    -0.696914091765E+03    0.20521E-06   -0.21251E-06  4770   0.368E-03    0.179E-02
RMM:   7    -0.696914094204E+03   -0.24398E-05   -0.64327E-07  3237   0.305E-03    0.128E-02
RMM:   8    -0.696914095805E+03   -0.16006E-05   -0.16670E-07  2345   0.276E-03
  44 F= -.69691410E+03 E0= -.69635202E+03  d E =-.147550E-02  mag=     3.8132
 ZBRENT: can't locate minimum, use default step
 trial-energy change:   -0.001475  1 .order   -0.001472   -0.001454   -0.001491
 step:   0.0100(harm=  0.0100)  dis= 0.00741  next Energy=  -696.918734 (dE=-0.611E-02)
 bond charge predicted
       N       E                     dE             d eps       ncg     rms          rms(c)
DAV:   1    -0.696918701011E+03   -0.46068E-02   -0.31247E-02 15440   0.215E-01    0.680E-02
RMM:   2    -0.696918885096E+03   -0.18408E-03   -0.47521E-04 11669   0.415E-02    0.169E-01
RMM:   3    -0.696918757372E+03    0.12772E-03   -0.10044E-04  8322   0.193E-02    0.938E-02
RMM:   4    -0.696918808708E+03   -0.51337E-04   -0.43400E-05  8024   0.129E-02    0.122E-01
RMM:   5    -0.696918751739E+03    0.56969E-04   -0.26200E-05  7662   0.101E-02    0.678E-02
RMM:   6    -0.696918762456E+03   -0.10716E-04   -0.22793E-05  7716   0.913E-03    0.694E-02
RMM:   7    -0.696918742625E+03    0.19830E-04   -0.99655E-06  6873   0.677E-03    0.314E-02
RMM:   8    -0.696918743853E+03   -0.12276E-05   -0.38324E-06  5313   0.403E-03
  45 F= -.69691874E+03 E0= -.69635674E+03  d E =-.612354E-02  mag=     3.8132
 curvature:  -0.18 expect dE=-0.802E-01 dE for cont linesearch -0.530E-02
 ZBRENT: increasing intervall
 opt :   0.0249  next Energy=  -696.928912 (dE=-0.163E-01)
 bond charge predicted
       N       E                     dE             d eps       ncg     rms          rms(c)
DAV:   1    -0.696924344187E+03   -0.56016E-02   -0.12385E-01 15360   0.427E-01    0.134E-01
RMM:   2    -0.696924782552E+03   -0.43837E-03   -0.18278E-03 14536   0.820E-02    0.255E-01
RMM:   3    -0.696924649715E+03    0.13284E-03   -0.43555E-04 11623   0.351E-02    0.198E-01
RMM:   4    -0.696924847814E+03   -0.19810E-03   -0.15282E-04  9038   0.226E-02    0.258E-01
RMM:   5    -0.696924614434E+03    0.23338E-03   -0.10595E-04  8476   0.200E-02    0.165E-01
RMM:   6    -0.696924587048E+03    0.27386E-04   -0.82196E-05  8320   0.178E-02    0.126E-01
RMM:   7    -0.696924508042E+03    0.79006E-04   -0.44138E-05  8088   0.130E-02    0.631E-02
RMM:   8    -0.696924506044E+03    0.19980E-05   -0.17560E-05  6966   0.812E-03
  46 F= -.69692451E+03 E0= -.69636261E+03  d E =-.118857E-01  mag=     3.8132
 curvature:  -0.35 expect dE=-0.120E+00 dE for cont linesearch -0.409E-04
 trial: gam=-0.06348 g(F)=  0.337E+00 g(S)=  0.000E+00 ort =-0.405E-01 (trialstep = 0.698E-02)
 search vector abs. value=  0.400E+00
 bond charge predicted
       N       E                     dE             d eps       ncg     rms          rms(c)
DAV:   1    -0.696926759611E+03   -0.22516E-02   -0.41570E-03 15024   0.925E-02    0.275E-02
RMM:   2    -0.696927004132E+03   -0.24452E-03   -0.12063E-04  8037   0.189E-02    0.201E-01
RMM:   3    -0.696926752782E+03    0.25135E-03   -0.28430E-05  7902   0.121E-02    0.472E-02
RMM:   4    -0.696926773321E+03   -0.20538E-04   -0.66878E-06  6720   0.536E-03    0.481E-02
RMM:   5    -0.696926772287E+03    0.10332E-05   -0.31475E-06  5585   0.400E-03    0.347E-02
RMM:   6    -0.696926767672E+03    0.46149E-05   -0.14905E-06  4075   0.340E-03    0.165E-02
RMM:   7    -0.696926773190E+03   -0.55179E-05   -0.10903E-06  3514   0.322E-03    0.151E-02
RMM:   8    -0.696926772613E+03    0.57786E-06   -0.76832E-07  2788   0.306E-03
  47 F= -.69692677E+03 E0= -.69636486E+03  d E =-.226657E-02  mag=     3.8132
 ZBRENT: can't locate minimum, use default step
 trial-energy change:   -0.002267  1 .order   -0.002250   -0.002372   -0.002129
 step:   0.0279(harm=  0.0680)  dis= 0.00198  next Energy=  -696.936060 (dE=-0.116E-01)
 bond charge predicted
       N       E                     dE             d eps       ncg     rms          rms(c)
DAV:   1    -0.696931890731E+03   -0.51175E-02   -0.37098E-02 15296   0.275E-01    0.606E-02
RMM:   2    -0.696932083784E+03   -0.19305E-03   -0.76016E-04 12688   0.488E-02    0.170E-01
RMM:   3    -0.696931955203E+03    0.12858E-03   -0.14706E-04  8504   0.210E-02    0.662E-02
RMM:   4    -0.696932056724E+03   -0.10152E-03   -0.46085E-05  8021   0.135E-02    0.144E-01
RMM:   5    -0.696931986801E+03    0.69923E-04   -0.18820E-05  7505   0.888E-03    0.861E-02
RMM:   6    -0.696931954232E+03    0.32568E-04   -0.14228E-05  7256   0.725E-03    0.510E-02
RMM:   7    -0.696931953856E+03    0.37674E-06   -0.67898E-06  6815   0.581E-03    0.246E-02
RMM:   8    -0.696931957595E+03   -0.37391E-05   -0.30711E-06  4936   0.382E-03
  48 F= -.69693196E+03 E0= -.69637009E+03  d E =-.745155E-02  mag=     3.8132
 curvature:  -0.02 expect dE=-0.293E-02 dE for cont linesearch -0.203E-02
 ZBRENT: increasing intervall
 opt :   0.0698  next Energy=  -696.935009 (dE=-0.105E-01)
 bond charge predicted
       N       E                     dE             d eps       ncg     rms          rms(c)
DAV:   1    -0.696934726713E+03   -0.27729E-02   -0.14840E-01 15264   0.549E-01    0.121E-01
RMM:   2    -0.696934996466E+03   -0.26975E-03   -0.30013E-03 14759   0.973E-02    0.165E-01
RMM:   3    -0.696934996680E+03   -0.21401E-06   -0.56818E-04 12364   0.400E-02    0.105E-01
RMM:   4    -0.696935351070E+03   -0.35439E-03   -0.15654E-04  8913   0.227E-02    0.240E-01
RMM:   5    -0.696935624395E+03   -0.27332E-03   -0.12890E-04  8519   0.199E-02    0.335E-01
RMM:   6    -0.696934973856E+03    0.65054E-03   -0.65752E-05  8263   0.181E-02    0.849E-02
RMM:   7    -0.696934981324E+03   -0.74681E-05   -0.37843E-05  8139   0.114E-02    0.514E-02
RMM:   8    -0.696934984590E+03   -0.32655E-05   -0.15361E-05  7112   0.795E-03
  49 F= -.69693498E+03 E0= -.69637319E+03  d E =-.104785E-01  mag=     3.8133
 curvature:  -0.03 expect dE=-0.466E-02 dE for cont linesearch -0.170E-03
 ZBRENT: bracketing found
 ZBRENT: interpolating
 opt :   0.0618  next Energy=  -696.935163 (dE=-0.107E-01)
 bond charge predicted
       N       E                     dE             d eps       ncg     rms          rms(c)
DAV:   1    -0.696935140256E+03   -0.15893E-03   -0.54864E-03 15280   0.106E-01    0.278E-02
RMM:   2    -0.696935229966E+03   -0.89710E-04   -0.13946E-04  8045   0.209E-02    0.118E-01
RMM:   3    -0.696935167538E+03    0.62428E-04   -0.26895E-05  7886   0.115E-02    0.541E-02
RMM:   4    -0.696935174930E+03   -0.73926E-05   -0.79470E-06  6828   0.537E-03    0.599E-02
RMM:   5    -0.696935167764E+03    0.71658E-05   -0.33651E-06  5824   0.442E-03    0.367E-02
RMM:   6    -0.696935166031E+03    0.17335E-05   -0.22064E-06  4622   0.354E-03    0.237E-02
RMM:   7    -0.696935171027E+03   -0.49956E-05   -0.63460E-07  3011   0.310E-03    0.195E-02
RMM:   8    -0.696935174933E+03   -0.39068E-05   -0.12450E-06  3282   0.317E-03
  50 F= -.69693517E+03 E0= -.69637340E+03  d E =-.106689E-01  mag=     3.8135
 curvature:  -0.04 expect dE=-0.379E-02 dE for cont linesearch -0.199E-06
 trial: gam= 0.28298 g(F)=  0.106E+00 g(S)=  0.000E+00 ort = 0.149E-02 (trialstep = 0.179E-01)
 search vector abs. value=  0.139E+00
 bond charge predicted
       N       E                     dE             d eps       ncg     rms          rms(c)
DAV:   1    -0.696936876133E+03   -0.17051E-02   -0.86192E-03 15488   0.125E-01    0.341E-02
RMM:   2    -0.696936927763E+03   -0.51630E-04   -0.18997E-04  8353   0.267E-02    0.894E-02
RMM:   3    -0.696936900430E+03    0.27333E-04   -0.35207E-05  7855   0.130E-02    0.473E-02
RMM:   4    -0.696936920690E+03   -0.20260E-04   -0.11395E-05  6953   0.641E-03    0.711E-02
RMM:   5    -0.696936898215E+03    0.22475E-04   -0.80481E-06  7078   0.587E-03    0.316E-02
RMM:   6    -0.696936903645E+03   -0.54301E-05   -0.46616E-06  6166   0.451E-03    0.311E-02
RMM:   7    -0.696936903898E+03   -0.25285E-06   -0.17428E-06  4441   0.348E-03    0.200E-02
RMM:   8    -0.696936905298E+03   -0.13996E-05   -0.41051E-07  2512   0.295E-03
  51 F= -.69693691E+03 E0= -.69637510E+03  d E =-.173036E-02  mag=     3.8136
 ZBRENT: can't locate minimum, use default step
 trial-energy change:   -0.001730  1 .order   -0.001719   -0.001905   -0.001534
 step:   0.0718(harm=  0.0922)  dis= 0.00263  next Energy=  -696.940067 (dE=-0.489E-02)
 bond charge predicted
       N       E                     dE             d eps       ncg     rms          rms(c)
DAV:   1    -0.696939697886E+03   -0.27940E-02   -0.77807E-02 15328   0.375E-01    0.997E-02
RMM:   2    -0.696940349175E+03   -0.65129E-03   -0.16110E-03 14703   0.784E-02    0.319E-01
RMM:   3    -0.696939844959E+03    0.50422E-03   -0.38172E-04 11422   0.326E-02    0.120E-01
RMM:   4    -0.696939920024E+03   -0.75066E-04   -0.86078E-05  8413   0.192E-02    0.135E-01
RMM:   5    -0.696939876314E+03    0.43710E-04   -0.60806E-05  8298   0.147E-02    0.115E-01
RMM:   6    -0.696939830615E+03    0.45699E-04   -0.43923E-05  8133   0.132E-02    0.728E-02
RMM:   7    -0.696939817812E+03    0.12803E-04   -0.24045E-05  7722   0.949E-03    0.448E-02
RMM:   8    -0.696939817342E+03    0.47033E-06   -0.87668E-06  6918   0.613E-03
  52 F= -.69693982E+03 E0= -.69637792E+03  d E =-.464241E-02  mag=     3.8134
 curvature:  -0.06 expect dE=-0.310E-02 dE for cont linesearch -0.232E-03
 ZBRENT: extrapolating
 opt :   0.0928  next Energy=  -696.940070 (dE=-0.490E-02)
 bond charge predicted
       N       E                     dE             d eps       ncg     rms          rms(c)
DAV:   1    -0.696940036031E+03   -0.21822E-03   -0.11861E-02 15584   0.147E-01    0.467E-02
RMM:   2    -0.696940458169E+03   -0.42214E-03   -0.28054E-04  9268   0.316E-02    0.257E-01
RMM:   3    -0.696940040965E+03    0.41720E-03   -0.67960E-05  8110   0.175E-02    0.536E-02
RMM:   4    -0.696940076433E+03   -0.35468E-04   -0.21909E-05  7501   0.954E-03    0.519E-02
RMM:   5    -0.696940071700E+03    0.47338E-05   -0.97945E-06  6857   0.654E-03    0.335E-02
RMM:   6    -0.696940070525E+03    0.11744E-05   -0.62767E-06  6315   0.499E-03    0.296E-02
RMM:   7    -0.696940070442E+03    0.83077E-07   -0.21694E-06  5007   0.384E-03    0.204E-02
RMM:   8    -0.696940072436E+03   -0.19939E-05   -0.93139E-07  3428   0.317E-03
  53 F= -.69694007E+03 E0= -.69637816E+03  d E =-.489750E-02  mag=     3.8132
 curvature:  -0.06 expect dE=-0.508E-02 dE for cont linesearch -0.330E-06
 trial: gam= 0.77350 g(F)=  0.837E-01 g(S)=  0.000E+00 ort =-0.868E-03 (trialstep = 0.276E-01)
 search vector abs. value=  0.165E+00
 bond charge predicted
       N       E                     dE             d eps       ncg     rms          rms(c)
DAV:   1    -0.696942039654E+03   -0.19692E-02   -0.18990E-02 15280   0.173E-01    0.407E-02
RMM:   2    -0.696942094887E+03   -0.55234E-04   -0.33504E-04 10292   0.349E-02    0.810E-02
RMM:   3    -0.696942077020E+03    0.17867E-04   -0.66796E-05  8022   0.166E-02    0.500E-02
RMM:   4    -0.696942122525E+03   -0.45505E-04   -0.23034E-05  7545   0.950E-03    0.988E-02
RMM:   5    -0.696942074093E+03    0.48433E-04   -0.12540E-05  7208   0.710E-03    0.487E-02
RMM:   6    -0.696942070443E+03    0.36495E-05   -0.98239E-06  7163   0.614E-03    0.350E-02
RMM:   7    -0.696942067743E+03    0.27002E-05   -0.51982E-06  6352   0.466E-03    0.200E-02
RMM:   8    -0.696942067683E+03    0.59663E-07   -0.18637E-06  4033   0.342E-03
  54 F= -.69694207E+03 E0= -.69638010E+03  d E =-.199525E-02  mag=     3.8131
 trial-energy change:   -0.001995  1 .order   -0.001978   -0.002292   -0.001663
 step:   0.1005(harm=  0.1005)  dis= 0.00443  next Energy=  -696.944247 (dE=-0.417E-02)
 bond charge predicted
       N       E                     dE             d eps       ncg     rms          rms(c)
DAV:   1    -0.696944148361E+03   -0.20806E-02   -0.13222E-01 15344   0.457E-01    0.106E-01
RMM:   2    -0.696944560640E+03   -0.41228E-03   -0.23076E-03 14688   0.919E-02    0.234E-01
RMM:   3    -0.696944514741E+03    0.45899E-04   -0.57651E-04 12699   0.390E-02    0.188E-01
RMM:   4    -0.696944389874E+03    0.12487E-03   -0.10671E-04  8673   0.202E-02    0.129E-01
RMM:   5    -0.696944388192E+03    0.16816E-05   -0.80728E-05  8412   0.168E-02    0.140E-01
RMM:   6    -0.696944336181E+03    0.52011E-04   -0.69305E-05  8271   0.155E-02    0.947E-02
RMM:   7    -0.696944302804E+03    0.33377E-04   -0.49675E-05  8059   0.125E-02    0.685E-02
RMM:   8    -0.696944286820E+03    0.15984E-04   -0.23378E-05  7233   0.926E-03
  55 F= -.69694429E+03 E0= -.69638215E+03  d E =-.421438E-02  mag=     3.8129
 curvature:  -0.10 expect dE=-0.622E-02 dE for cont linesearch -0.111E-05
 trial: gam= 0.70384 g(F)=  0.621E-01 g(S)=  0.000E+00 ort = 0.136E-02 (trialstep = 0.422E-01)
 search vector abs. value=  0.146E+00
 bond charge predicted
       N       E                     dE             d eps       ncg     rms          rms(c)
DAV:   1    -0.696946658362E+03   -0.23556E-02   -0.26432E-02 15488   0.201E-01    0.527E-02
RMM:   2    -0.696946796336E+03   -0.13797E-03   -0.48572E-04 11684   0.413E-02    0.125E-01
RMM:   3    -0.696946810523E+03   -0.14187E-04   -0.11054E-04  8388   0.203E-02    0.137E-01
RMM:   4    -0.696946705293E+03    0.10523E-03   -0.30998E-05  7997   0.123E-02    0.434E-02
RMM:   5    -0.696946714155E+03   -0.88618E-05   -0.13714E-05  7087   0.677E-03    0.543E-02
RMM:   6    -0.696946712341E+03    0.18136E-05   -0.59461E-06  6597   0.527E-03    0.393E-02
RMM:   7    -0.696946712183E+03    0.15836E-06   -0.75824E-06  6789   0.468E-03    0.373E-02
RMM:   8    -0.696946709423E+03    0.27598E-05   -0.40871E-06  5824   0.445E-03
  56 F= -.69694671E+03 E0= -.69638456E+03  d E =-.242260E-02  mag=     3.8128
 ZBRENT: can't locate minimum, use default step
 trial-energy change:   -0.002423  1 .order   -0.002440   -0.002661   -0.002218
 step:   0.1688(harm=  0.2531)  dis= 0.00852  next Energy=  -696.952271 (dE=-0.798E-02)
 bond charge predicted
       N       E                     dE             d eps       ncg     rms          rms(c)
DAV:   1    -0.696951544073E+03   -0.48319E-02   -0.23788E-01 15328   0.601E-01    0.134E-01
RMM:   2    -0.696953181030E+03   -0.16370E-02   -0.40736E-03 14803   0.120E-01    0.477E-01
RMM:   3    -0.696952005548E+03    0.11755E-02   -0.97596E-04 14042   0.509E-02    0.185E-01
RMM:   4    -0.696952283528E+03   -0.27798E-03   -0.23804E-04  9666   0.281E-02    0.267E-01
RMM:   5    -0.696951941531E+03    0.34200E-03   -0.13286E-04  8812   0.234E-02    0.161E-01
RMM:   6    -0.696951898773E+03    0.42758E-04   -0.90737E-05  8517   0.171E-02    0.122E-01
RMM:   7    -0.696951841255E+03    0.57519E-04   -0.63740E-05  8337   0.144E-02    0.755E-02
RMM:   8    -0.696951829065E+03    0.12190E-04   -0.32297E-05  7703   0.106E-02
  57 F= -.69695183E+03 E0= -.69638951E+03  d E =-.754225E-02  mag=     3.8129
 curvature:  -0.25 expect dE=-0.498E-01 dE for cont linesearch -0.141E-02
 ZBRENT: increasing intervall
 opt :   0.4219  next Energy=  -696.953150 (dE=-0.886E-02)
 bond charge predicted
       N       E                     dE             d eps       ncg     rms          rms(c)
DAV:   1    -0.696944954478E+03    0.68868E-02   -0.95227E-01 15296   0.121E+00    0.272E-01
RMM:   2    -0.696951620062E+03   -0.66656E-02   -0.16495E-02 14848   0.242E-01    0.961E-01
RMM:   3    -0.696946769717E+03    0.48503E-02   -0.40725E-03 16542   0.102E-01    0.345E-01
RMM:   4    -0.696948248588E+03   -0.14789E-02   -0.93550E-04 13809   0.529E-02    0.582E-01
RMM:   5    -0.696946709447E+03    0.15391E-02   -0.54412E-04 12784   0.422E-02    0.352E-01
RMM:   6    -0.696946449161E+03    0.26029E-03   -0.41604E-04 11923   0.344E-02    0.245E-01
RMM:   7    -0.696946232305E+03    0.21686E-03   -0.30484E-04 10630   0.286E-02    0.150E-01
RMM:   8    -0.696946175303E+03    0.57002E-04   -0.11555E-04  8748   0.201E-02
  58 F= -.69694618E+03 E0= -.69638348E+03  d E =-.188848E-02  mag=     3.8130
 curvature:  -0.23 expect dE=-0.201E+00 dE for cont linesearch -0.685E-02
 ZBRENT: bracketing found
 ZBRENT: interpolating
[...]
RMM:   2    -0.697087939341E+03   -0.11805E-04   -0.44596E-05  7910   0.134E-02    0.425E-02
RMM:   3    -0.697087931176E+03    0.81657E-05   -0.80344E-06  7805   0.690E-03    0.159E-02
RMM:   4    -0.697087949540E+03   -0.18364E-04   -0.23688E-06  4866   0.345E-03    0.513E-02
RMM:   5    -0.697087934995E+03    0.14545E-04   -0.18919E-06  4761   0.355E-03    0.284E-02
RMM:   6    -0.697087935461E+03   -0.46651E-06   -0.34711E-07  2785   0.299E-03    0.147E-02
RMM:   7    -0.697087935337E+03    0.12450E-06   -0.57942E-08  1524   0.279E-03    0.711E-03
RMM:   8    -0.697087935578E+03   -0.24131E-06   -0.21215E-09  1201   0.270E-03
 119 F= -.69708794E+03 E0= -.69652639E+03  d E =-.670690E-03  mag=     3.8198
 curvature:  -0.09 expect dE=-0.743E-03 dE for cont linesearch -0.823E-06
 trial: gam= 0.55678 g(F)=  0.834E-02 g(S)=  0.000E+00 ort =-0.610E-03 (trialstep = 0.601E-01)
 search vector abs. value=  0.201E-01
 bond charge predicted
       N       E                     dE             d eps       ncg     rms          rms(c)
DAV:   1    -0.697088204281E+03   -0.26894E-03   -0.88903E-03 15520   0.135E-01    0.263E-02
RMM:   2    -0.697088221042E+03   -0.16761E-04   -0.17564E-04  8183   0.275E-02    0.319E-02
RMM:   3    -0.697088221923E+03   -0.88089E-06   -0.31037E-05  7842   0.132E-02    0.210E-02
RMM:   4    -0.697088230770E+03   -0.88464E-05   -0.95104E-06  7477   0.660E-03    0.403E-02
RMM:   5    -0.697088233277E+03   -0.25078E-05   -0.45187E-06  6700   0.446E-03    0.463E-02
RMM:   6    -0.697088222031E+03    0.11246E-04   -0.16681E-06  4765   0.343E-03    0.197E-02
RMM:   7    -0.697088222938E+03   -0.90682E-06   -0.61608E-07  3173   0.311E-03    0.962E-03
RMM:   8    -0.697088223964E+03   -0.10263E-05   -0.36482E-07  2218   0.295E-03
 120 F= -.69708822E+03 E0= -.69652673E+03  d E =-.288386E-03  mag=     3.8196
 trial-energy change:   -0.000288  1 .order   -0.000282   -0.000481   -0.000082
 step:   0.0725(harm=  0.0725)  dis= 0.00152  next Energy=  -697.088226 (dE=-0.290E-03)
 bond charge predicted
       N       E                     dE             d eps       ncg     rms          rms(c)
DAV:   1    -0.697088232476E+03   -0.95375E-05   -0.38668E-04 14720   0.283E-02    0.740E-03
RMM:   2    -0.697088238221E+03   -0.57454E-05   -0.99234E-06  7840   0.636E-03    0.277E-02
RMM:   3    -0.697088233382E+03    0.48388E-05   -0.17024E-06  5452   0.370E-03    0.880E-03
RMM:   4    -0.697088235358E+03   -0.19755E-05   -0.11275E-07  1725   0.233E-03    0.161E-02
RMM:   5    -0.697088233587E+03    0.17704E-05   -0.18768E-08  1330   0.217E-03    0.416E-03
RMM:   6    -0.697088234310E+03   -0.72234E-06   -0.69114E-09  1052   0.216E-03    0.720E-03
RMM:   7    -0.697088234455E+03   -0.14526E-06   -0.79914E-09   964   0.215E-03    0.480E-03
RMM:   8    -0.697088234609E+03   -0.15405E-06   -0.35470E-10   952   0.212E-03
 121 F= -.69708823E+03 E0= -.69652675E+03  d E =-.299031E-03  mag=     3.8195
 curvature:  -0.09 expect dE=-0.272E-03 dE for cont linesearch -0.444E-08
 trial: gam= 0.20577 g(F)=  0.298E-02 g(S)=  0.000E+00 ort =-0.313E-04 (trialstep = 0.626E-01)
 search vector abs. value=  0.382E-02
 bond charge predicted
       N       E                     dE             d eps       ncg     rms          rms(c)
DAV:   1    -0.697088335986E+03   -0.10153E-03   -0.31313E-03 14864   0.819E-02    0.136E-02
RMM:   2    -0.697088347419E+03   -0.11433E-04   -0.67525E-05  7848   0.168E-02    0.378E-02
RMM:   3    -0.697088340823E+03    0.65961E-05   -0.11455E-05  7766   0.795E-03    0.144E-02
RMM:   4    -0.697088346019E+03   -0.51959E-05   -0.29059E-06  6070   0.393E-03    0.265E-02
RMM:   5    -0.697088343170E+03    0.28489E-05   -0.59125E-07  3167   0.308E-03    0.172E-02
RMM:   6    -0.697088343436E+03   -0.26657E-06   -0.14521E-07  1967   0.288E-03    0.116E-02
RMM:   7    -0.697088343875E+03   -0.43879E-06   -0.50232E-07  2328   0.303E-03    0.776E-03
RMM:   8    -0.697088344302E+03   -0.42673E-06   -0.50817E-07  2047   0.292E-03
 122 F= -.69708834E+03 E0= -.69652687E+03  d E =-.109693E-03  mag=     3.8194
 trial-energy change:   -0.000110  1 .order   -0.000107   -0.000186   -0.000027
 step:   0.0733(harm=  0.0733)  dis= 0.00020  next Energy=  -697.088344 (dE=-0.109E-03)
 bond charge predicted
       N       E                     dE             d eps       ncg     rms          rms(c)
DAV:   1    -0.697088346417E+03   -0.25422E-05   -0.91018E-05  9376   0.145E-02    0.720E-03
RMM:   2    -0.697088350000E+03   -0.35830E-05   -0.69834E-06  7284   0.586E-03    0.217E-02
RMM:   3    -0.697088349019E+03    0.98116E-06   -0.12680E-06  4129   0.336E-03    0.205E-02
RMM:   4    -0.697088347419E+03    0.15999E-05   -0.86604E-08  1575   0.267E-03    0.115E-02
RMM:   5    -0.697088347730E+03   -0.31103E-06   -0.22839E-08  1215   0.254E-03    0.884E-03
RMM:   6    -0.697088347836E+03   -0.10533E-06   -0.16311E-09   892   0.249E-03    0.842E-03
RMM:   7    -0.697088347957E+03   -0.12114E-06    0.00000E+00   843   0.252E-03    0.537E-03
RMM:   8    -0.697088348073E+03   -0.11642E-06    0.00000E+00   827   0.250E-03
 123 F= -.69708835E+03 E0= -.69652687E+03  d E =-.113464E-03  mag=     3.8194
 curvature:  -0.05 expect dE=-0.102E-03 dE for cont linesearch -0.705E-07
 trial: gam= 0.76077 g(F)=  0.218E-02 g(S)=  0.000E+00 ort =-0.757E-04 (trialstep = 0.579E-01)
 search vector abs. value=  0.427E-02
 bond charge predicted
       N       E                     dE             d eps       ncg     rms          rms(c)
DAV:   1    -0.697088422948E+03   -0.74991E-04   -0.28859E-03 15408   0.756E-02    0.138E-02
RMM:   2    -0.697088434489E+03   -0.11541E-04   -0.58563E-05  7864   0.160E-02    0.402E-02
RMM:   3    -0.697088428001E+03    0.64878E-05   -0.10783E-05  7728   0.764E-03    0.207E-02
RMM:   4    -0.697088429901E+03   -0.18996E-05   -0.27707E-06  5970   0.386E-03    0.221E-02
RMM:   5    -0.697088430102E+03   -0.20135E-06   -0.34444E-07  2641   0.296E-03    0.241E-02
RMM:   6    -0.697088427541E+03    0.25612E-05   -0.23568E-07  2277   0.291E-03    0.163E-02
RMM:   7    -0.697088426421E+03    0.11203E-05   -0.84454E-07  2910   0.315E-03    0.763E-03
RMM:   8    -0.697088427031E+03   -0.61099E-06   -0.45267E-07  2059   0.289E-03
 124 F= -.69708843E+03 E0= -.69652696E+03  d E =-.789582E-04  mag=     3.8194
 trial-energy change:   -0.000079  1 .order   -0.000077   -0.000123   -0.000031
 step:   0.0772(harm=  0.0772)  dis= 0.00026  next Energy=  -697.088430 (dE=-0.818E-04)
 bond charge predicted
       N       E                     dE             d eps       ncg     rms          rms(c)
DAV:   1    -0.697088432193E+03   -0.57724E-05   -0.32707E-04 14288   0.255E-02    0.696E-03
RMM:   2    -0.697088435936E+03   -0.37435E-05   -0.86271E-06  7764   0.596E-03    0.212E-02
RMM:   3    -0.697088432838E+03    0.30986E-05   -0.12241E-06  4432   0.340E-03    0.966E-03
RMM:   4    -0.697088433426E+03   -0.58829E-06   -0.72579E-09  1177   0.243E-03    0.919E-03
RMM:   5    -0.697088433501E+03   -0.75328E-07   -0.66743E-09  1105   0.243E-03    0.907E-03
RMM:   6    -0.697088433774E+03   -0.27262E-06   -0.22955E-09   935   0.242E-03    0.935E-03
RMM:   7    -0.697088433669E+03    0.10456E-06    0.00000E+00   887   0.242E-03    0.585E-03
RMM:   8    -0.697088433791E+03   -0.12171E-06    0.00000E+00   836   0.240E-03
 125 F= -.69708843E+03 E0= -.69652697E+03  d E =-.857179E-04  mag=     3.8194
 curvature:  -0.08 expect dE=-0.935E-04 dE for cont linesearch -0.173E-10
 trial: gam= 0.51867 g(F)=  0.120E-02 g(S)=  0.000E+00 ort = 0.975E-06 (trialstep = 0.617E-01)
 search vector abs. value=  0.235E-02
 bond charge predicted
       N       E                     dE             d eps       ncg     rms          rms(c)
DAV:   1    -0.697088481741E+03   -0.48071E-04   -0.15284E-03 15040   0.533E-02    0.111E-02
RMM:   2    -0.697088484677E+03   -0.29361E-05   -0.28602E-05  7770   0.112E-02    0.219E-02
RMM:   3    -0.697088484318E+03    0.35908E-06   -0.51159E-06  7460   0.536E-03    0.996E-03
RMM:   4    -0.697088493338E+03   -0.90201E-05   -0.49293E-07  2690   0.285E-03    0.380E-02
RMM:   5    -0.697088482995E+03    0.10343E-04   -0.17690E-07  2278   0.281E-03    0.125E-02
RMM:   6    -0.697088484941E+03   -0.19466E-05   -0.87153E-08  1605   0.273E-03    0.763E-03
RMM:   7    -0.697088485756E+03   -0.81518E-06   -0.14944E-07  1549   0.282E-03    0.779E-03
RMM:   8    -0.697088485596E+03    0.16059E-06   -0.18966E-08  1043   0.275E-03
 126 F= -.69708849E+03 E0= -.69652702E+03  d E =-.518047E-04  mag=     3.8194
 trial-energy change:   -0.000052  1 .order   -0.000048   -0.000074   -0.000021
 step:   0.0859(harm=  0.0859)  dis= 0.00024  next Energy=  -697.088485 (dE=-0.516E-04)
 bond charge predicted
       N       E                     dE             d eps       ncg     rms          rms(c)
DAV:   1    -0.697088491331E+03   -0.55749E-05   -0.23978E-04 12656   0.212E-02    0.577E-03
RMM:   2    -0.697088492818E+03   -0.14869E-05   -0.88933E-06  7630   0.601E-03    0.130E-02
RMM:   3    -0.697088492081E+03    0.73706E-06   -0.99321E-07  3396   0.303E-03    0.652E-03
RMM:   4    -0.697088493498E+03   -0.14167E-05   -0.33621E-08  1146   0.247E-03    0.147E-02
RMM:   5    -0.697088491966E+03    0.15317E-05   -0.18256E-09   986   0.242E-03    0.738E-03
RMM:   6    -0.697088492426E+03   -0.45971E-06   -0.60665E-10   843   0.239E-03    0.657E-03
RMM:   7    -0.697088492458E+03   -0.31927E-07   -0.52641E-09   863   0.243E-03    0.321E-03
RMM:   8    -0.697088492668E+03   -0.21033E-06   -0.21559E-09   840   0.241E-03
 127 F= -.69708849E+03 E0= -.69652703E+03  d E =-.588770E-04  mag=     3.8194
 curvature:  -0.08 expect dE=-0.849E-04 dE for cont linesearch -0.238E-06
 trial: gam= 0.72984 g(F)=  0.101E-02 g(S)=  0.000E+00 ort = 0.816E-04 (trialstep = 0.657E-01)
 search vector abs. value=  0.238E-02
 bond charge predicted
       N       E                     dE             d eps       ncg     rms          rms(c)
DAV:   1    -0.697088544572E+03   -0.52114E-04   -0.14399E-03 14944   0.491E-02    0.104E-02
RMM:   2    -0.697088546586E+03   -0.20142E-05   -0.24388E-05  7774   0.103E-02    0.160E-02
RMM:   3    -0.697088546619E+03   -0.33077E-07   -0.44455E-06  7116   0.493E-03    0.111E-02
RMM:   4    -0.697088549207E+03   -0.25883E-05   -0.23046E-07  2201   0.268E-03    0.207E-02
RMM:   5    -0.697088546717E+03    0.24899E-05   -0.12278E-07  2013   0.271E-03    0.165E-02
RMM:   6    -0.697088545862E+03    0.85559E-06   -0.55972E-08  1555   0.270E-03    0.729E-03
RMM:   7    -0.697088545721E+03    0.14091E-06   -0.10711E-07  1397   0.278E-03    0.534E-03
RMM:   8    -0.697088545665E+03    0.55443E-07   -0.85378E-08  1137   0.276E-03
 128 F= -.69708855E+03 E0= -.69652708E+03  d E =-.529972E-04  mag=     3.8194
 trial-energy change:   -0.000053  1 .order   -0.000053   -0.000070   -0.000035
 step:   0.1305(harm=  0.1305)  dis= 0.00046  next Energy=  -697.088562 (dE=-0.698E-04)
 bond charge predicted
       N       E                     dE             d eps       ncg     rms          rms(c)
DAV:   1    -0.697088563432E+03   -0.17712E-04   -0.14035E-03 14864   0.484E-02    0.104E-02
RMM:   2    -0.697088566082E+03   -0.26493E-05   -0.25197E-05  7776   0.107E-02    0.182E-02
RMM:   3    -0.697088565625E+03    0.45692E-06   -0.49643E-06  7143   0.503E-03    0.117E-02
RMM:   4    -0.697088569935E+03   -0.43105E-05   -0.40573E-07  2532   0.290E-03    0.276E-02
RMM:   5    -0.697088564118E+03    0.58170E-05   -0.11076E-07  2031   0.282E-03    0.105E-02
RMM:   6    -0.697088564515E+03   -0.39662E-06   -0.36334E-08  1465   0.278E-03    0.773E-03
RMM:   7    -0.697088564340E+03    0.17448E-06   -0.81410E-08  1332   0.282E-03    0.633E-03
RMM:   8    -0.697088564066E+03    0.27471E-06   -0.25932E-08   994   0.278E-03
 129 F= -.69708856E+03 E0= -.69652710E+03  d E =-.713974E-04  mag=     3.8193
 curvature:  -0.15 expect dE=-0.238E-03 dE for cont linesearch -0.814E-07
 trial: gam= 1.76068 g(F)=  0.164E-02 g(S)=  0.000E+00 ort =-0.365E-04 (trialstep = 0.211E-01)
 search vector abs. value=  0.889E-02
 bond charge predicted
       N       E                     dE             d eps       ncg     rms          rms(c)
DAV:   1    -0.697088592766E+03   -0.28426E-04   -0.50378E-04 14992   0.286E-02    0.650E-03
RMM:   2    -0.697088594397E+03   -0.16307E-05   -0.96730E-06  7591   0.670E-03    0.138E-02
RMM:   3    -0.697088594439E+03   -0.42543E-07   -0.10708E-06  3912   0.328E-03    0.143E-02
RMM:   4    -0.697088593362E+03    0.10770E-05   -0.13519E-08  1509   0.263E-03    0.497E-03
RMM:   5    -0.697088593649E+03   -0.28716E-06   -0.28590E-09  1106   0.259E-03    0.752E-03
RMM:   6    -0.697088593382E+03    0.26777E-06   -0.62638E-09   956   0.261E-03    0.660E-03
RMM:   7    -0.697088593043E+03    0.33901E-06   -0.92516E-09   906   0.264E-03    0.582E-03
RMM:   8    -0.697088592807E+03    0.23530E-06   -0.65840E-09   795   0.263E-03
 130 F= -.69708859E+03 E0= -.69652712E+03  d E =-.287417E-04  mag=     3.8192
 trial-energy change:   -0.000029  1 .order   -0.000028   -0.000033   -0.000023
 step:   0.0710(harm=  0.0710)  dis= 0.00047  next Energy=  -697.088620 (dE=-0.559E-04)
 bond charge predicted
       N       E                     dE             d eps       ncg     rms          rms(c)
DAV:   1    -0.697088621972E+03   -0.28930E-04   -0.27376E-03 15232   0.669E-02    0.143E-02
RMM:   2    -0.697088626108E+03   -0.41358E-05   -0.46675E-05  7787   0.138E-02    0.202E-02
RMM:   3    -0.697088625927E+03    0.18162E-06   -0.83268E-06  7513   0.660E-03    0.958E-03
RMM:   4    -0.697088627789E+03   -0.18622E-05   -0.18757E-06  4533   0.350E-03    0.218E-02
RMM:   5    -0.697088630123E+03   -0.23338E-05   -0.38444E-07  2604   0.296E-03    0.293E-02
RMM:   6    -0.697088624087E+03    0.60358E-05   -0.18483E-07  2145   0.286E-03    0.961E-03
RMM:   7    -0.697088624341E+03   -0.25381E-06   -0.35141E-07  2032   0.292E-03    0.761E-03
RMM:   8    -0.697088624020E+03    0.32088E-06   -0.13768E-07  1382   0.280E-03
 131 F= -.69708862E+03 E0= -.69652714E+03  d E =-.599542E-04  mag=     3.8190
 curvature:  -0.20 expect dE=-0.236E-03 dE for cont linesearch -0.431E-11
 trial: gam= 0.53912 g(F)=  0.118E-02 g(S)=  0.000E+00 ort = 0.437E-06 (trialstep = 0.311E-01)
 search vector abs. value=  0.376E-02
 bond charge predicted
       N       E                     dE             d eps       ncg     rms          rms(c)
DAV:   1    -0.697088655655E+03   -0.31314E-04   -0.36981E-04 15024   0.261E-02    0.686E-03
RMM:   2    -0.697088667698E+03   -0.12044E-04   -0.80636E-06  7454   0.569E-03    0.433E-02
RMM:   3    -0.697088654490E+03    0.13209E-04   -0.13650E-06  4490   0.345E-03    0.133E-02
RMM:   4    -0.697088656174E+03   -0.16839E-05   -0.17644E-08  1344   0.253E-03    0.695E-03
RMM:   5    -0.697088656431E+03   -0.25769E-06   -0.10107E-08   975   0.249E-03    0.105E-02
RMM:   6    -0.697088655854E+03    0.57738E-06   -0.75679E-10   888   0.250E-03    0.771E-03
RMM:   7    -0.697088655366E+03    0.48814E-06   -0.34526E-09   811   0.253E-03    0.419E-03
RMM:   8    -0.697088655260E+03    0.10627E-06   -0.23148E-09   812   0.251E-03
 132 F= -.69708866E+03 E0= -.69652718E+03  d E =-.312398E-04  mag=     3.8189
 trial-energy change:   -0.000031  1 .order   -0.000031   -0.000037   -0.000025
 step:   0.0991(harm=  0.0991)  dis= 0.00032  next Energy=  -697.088682 (dE=-0.583E-04)
 bond charge predicted
       N       E                     dE             d eps       ncg     rms          rms(c)
DAV:   1    -0.697088681173E+03   -0.25807E-04   -0.17098E-03 14960   0.560E-02    0.111E-02
RMM:   2    -0.697088686799E+03   -0.56265E-05   -0.31020E-05  7768   0.112E-02    0.283E-02
RMM:   3    -0.697088686572E+03    0.22713E-06   -0.58039E-06  7223   0.556E-03    0.221E-02
RMM:   4    -0.697088685231E+03    0.13412E-05   -0.11272E-06  3842   0.313E-03    0.189E-02
RMM:   5    -0.697088685056E+03    0.17462E-06   -0.39157E-08  1772   0.265E-03    0.170E-02
RMM:   6    -0.697088684939E+03    0.11760E-06   -0.56171E-08  1408   0.271E-03    0.170E-02
RMM:   7    -0.697088683503E+03    0.14363E-05   -0.26439E-07  1733   0.288E-03    0.106E-02
RMM:   8    -0.697088683497E+03    0.51514E-08   -0.75902E-08  1121   0.279E-03
 133 F= -.69708868E+03 E0= -.69652721E+03  d E =-.594777E-04  mag=     3.8187
 curvature:  -0.16 expect dE=-0.263E-03 dE for cont linesearch -0.501E-07
 trial: gam= 1.35215 g(F)=  0.166E-02 g(S)=  0.000E+00 ort =-0.345E-04 (trialstep = 0.199E-01)
 search vector abs. value=  0.845E-02
 bond charge predicted
       N       E                     dE             d eps       ncg     rms          rms(c)
DAV:   1    -0.697088711919E+03   -0.28416E-04   -0.25551E-04 13264   0.214E-02    0.645E-03
RMM:   2    -0.697088722466E+03   -0.10547E-04   -0.87127E-06  7257   0.579E-03    0.406E-02
RMM:   3    -0.697088711545E+03    0.10920E-04   -0.17705E-06  4869   0.347E-03    0.131E-02
RMM:   4    -0.697088712727E+03   -0.11816E-05   -0.17096E-08  1257   0.239E-03    0.578E-03
RMM:   5    -0.697088712752E+03   -0.25233E-07   -0.91640E-09   898   0.236E-03    0.622E-03
RMM:   6    -0.697088712345E+03    0.40692E-06   -0.28567E-09   853   0.237E-03    0.492E-03
RMM:   7    -0.697088712294E+03    0.51637E-07   -0.26982E-09   789   0.237E-03    0.468E-03
RMM:   8    -0.697088712117E+03    0.17638E-06    0.00000E+00   757   0.237E-03
 134 F= -.69708871E+03 E0= -.69652725E+03  d E =-.286198E-04  mag=     3.8185
 ZBRENT: can't locate minimum, use default step
 trial-energy change:   -0.000029  1 .order   -0.000029   -0.000032   -0.000025
 step:   0.0796(harm=  0.0908)  dis= 0.00029  next Energy=  -697.088757 (dE=-0.733E-04)
 bond charge predicted
       N       E                     dE             d eps       ncg     rms          rms(c)
DAV:   1    -0.697088753279E+03   -0.40985E-04   -0.22221E-03 14976   0.626E-02    0.137E-02
RMM:   2    -0.697088765430E+03   -0.12152E-04   -0.40008E-05  7805   0.128E-02    0.426E-02
RMM:   3    -0.697088758680E+03    0.67505E-05   -0.80479E-06  7490   0.643E-03    0.263E-02
RMM:   4    -0.697088757114E+03    0.15654E-05   -0.18308E-06  4760   0.351E-03    0.141E-02
RMM:   5    -0.697088758743E+03   -0.16288E-05   -0.22072E-07  2250   0.281E-03    0.212E-02
RMM:   6    -0.697088757085E+03    0.16586E-05   -0.27310E-07  2129   0.289E-03    0.176E-02
RMM:   7    -0.697088754996E+03    0.20885E-05   -0.52906E-07  2194   0.298E-03    0.763E-03
RMM:   8    -0.697088754810E+03    0.18603E-06   -0.13249E-07  1386   0.278E-03
 135 F= -.69708875E+03 E0= -.69652728E+03  d E =-.713126E-04  mag=     3.8183
 curvature:  -0.23 expect dE=-0.233E-03 dE for cont linesearch -0.114E-06
 trial: gam= 0.43245 g(F)=  0.101E-02 g(S)=  0.000E+00 ort = 0.646E-04 (trialstep = 0.318E-01)
 search vector abs. value=  0.264E-02
 bond charge predicted
       N       E                     dE             d eps       ncg     rms          rms(c)
DAV:   1    -0.697088780367E+03   -0.25371E-04   -0.23815E-04 14160   0.236E-02    0.537E-03
RMM:   2    -0.697088782283E+03   -0.19161E-05   -0.64676E-06  7112   0.515E-03    0.150E-02
RMM:   3    -0.697088781658E+03    0.62450E-06   -0.31756E-07  2110   0.281E-03    0.101E-02
RMM:   4    -0.697088781318E+03    0.33993E-06   -0.20983E-08  1079   0.252E-03    0.650E-03
RMM:   5    -0.697088781404E+03   -0.86060E-07   -0.36083E-09   920   0.248E-03    0.440E-03
RMM:   6    -0.697088781501E+03   -0.96610E-07   -0.11567E-08   883   0.252E-03    0.411E-03
RMM:   7    -0.697088781621E+03   -0.11967E-06   -0.94710E-09   897   0.256E-03    0.272E-03
RMM:   8    -0.697088781742E+03   -0.12157E-06   -0.14641E-08   852   0.257E-03
 136 F= -.69708878E+03 E0= -.69652731E+03  d E =-.269322E-04  mag=     3.8181
 trial-energy change:   -0.000027  1 .order   -0.000026   -0.000033   -0.000019
 step:   0.0778(harm=  0.0778)  dis= 0.00023  next Energy=  -697.088795 (dE=-0.402E-04)
 reached required accuracy - stopping structural energy minimisation
 writing wavefunctions
