       N       E                     dE             d eps       ncg     rms          rms(c)
DAV:   1     0.910801480254E+04    0.91080E+04   -0.34987E+05 25552   0.111E+03
DAV:   2     0.756250499810E+03   -0.83518E+04   -0.75158E+04 31744   0.303E+02
DAV:   3    -0.940712861609E+03   -0.16970E+04   -0.16744E+04 30240   0.148E+02
DAV:   4    -0.102390954373E+04   -0.83197E+02   -0.82637E+02 33872   0.402E+01
DAV:   5    -0.102720256481E+04   -0.32930E+01   -0.32842E+01 40512   0.625E+00    0.177E+02
RMM:   6    -0.100773800569E+04    0.19465E+02   -0.29117E+03 27938   0.928E+01    0.371E+02
RMM:   7    -0.797645073195E+03    0.21009E+03   -0.32190E+02 24996   0.292E+01    0.236E+02
RMM:   8    -0.874104444255E+03   -0.76459E+02   -0.33135E+02 25101   0.286E+01    0.200E+02
RMM:   9    -0.678537475418E+03    0.19557E+03   -0.16434E+02 25145   0.193E+01    0.153E+02
RMM:  10    -0.559501414074E+03    0.11904E+03   -0.87295E+01 25014   0.155E+01    0.882E+01
RMM:  11    -0.538699764053E+03    0.20802E+02   -0.23320E+01 25014   0.708E+00    0.738E+01
RMM:  12    -0.530261810455E+03    0.84380E+01   -0.18803E+01 25105   0.760E+00    0.728E+01
RMM:  13    -0.520964687982E+03    0.92971E+01   -0.14848E+01 25051   0.618E+00    0.625E+01
RMM:  14    -0.525189672263E+03   -0.42250E+01   -0.11627E+01 25386   0.495E+00    0.559E+01
RMM:  15    -0.518946987314E+03    0.62427E+01   -0.11734E+01 25706   0.511E+00    0.487E+01
RMM:  16    -0.508814633852E+03    0.10132E+02   -0.54844E+00 25078   0.380E+00    0.412E+01
RMM:  17    -0.501597031908E+03    0.72176E+01   -0.27676E+00 25599   0.247E+00    0.381E+01
RMM:  18    -0.493972526409E+03    0.76245E+01   -0.18686E+00 25879   0.211E+00    0.353E+01
RMM:  19    -0.488020481791E+03    0.59520E+01   -0.14700E+00 26123   0.181E+00    0.328E+01
RMM:  20    -0.484363606672E+03    0.36569E+01   -0.90133E-01 26178   0.142E+00    0.309E+01
RMM:  21    -0.481539769960E+03    0.28238E+01   -0.84416E-01 26562   0.128E+00    0.286E+01
RMM:  22    -0.481215096905E+03    0.32467E+00   -0.52659E-01 26286   0.111E+00    0.275E+01
RMM:  23    -0.482717784289E+03   -0.15027E+01   -0.56039E-01 26716   0.106E+00    0.267E+01
RMM:  24    -0.487591695461E+03   -0.48739E+01   -0.95162E-01 29224   0.147E+00    0.263E+01
RMM:  25    -0.499412606592E+03   -0.11821E+02   -0.16874E+00 30697   0.175E+00    0.254E+01
RMM:  26    -0.512756914671E+03   -0.13344E+02   -0.42275E+00 34298   0.268E+00    0.249E+01
RMM:  27    -0.531241597422E+03   -0.18485E+02   -0.57724E+00 34868   0.306E+00    0.236E+01
RMM:  28    -0.548593009419E+03   -0.17351E+02   -0.55399E+00 34612   0.295E+00    0.236E+01
RMM:  29    -0.571665094133E+03   -0.23072E+02   -0.10685E+01 36910   0.386E+00    0.237E+01
RMM:  30    -0.589790876742E+03   -0.18126E+02   -0.73401E+00 35350   0.325E+00    0.236E+01
RMM:  31    -0.616249194381E+03   -0.26458E+02   -0.14047E+01 38422   0.435E+00    0.219E+01
RMM:  32    -0.632759936471E+03   -0.16511E+02   -0.10615E+01 37913   0.374E+00    0.201E+01
RMM:  33    -0.640606289996E+03   -0.78464E+01   -0.32654E+00 35361   0.232E+00    0.183E+01
RMM:  34    -0.646022805643E+03   -0.54165E+01   -0.11539E+00 32258   0.149E+00    0.166E+01
RMM:  35    -0.651022405803E+03   -0.49996E+01   -0.87422E-01 31365   0.127E+00    0.153E+01
RMM:  36    -0.655388482930E+03   -0.43661E+01   -0.79823E-01 31096   0.121E+00    0.143E+01
RMM:  37    -0.658667980949E+03   -0.32795E+01   -0.75302E-01 31060   0.120E+00    0.133E+01
RMM:  38    -0.662418395659E+03   -0.37504E+01   -0.75076E-01 31391   0.114E+00    0.125E+01
RMM:  39    -0.666971809999E+03   -0.45534E+01   -0.13649E+00 33775   0.143E+00    0.133E+01
RMM:  40    -0.669891492175E+03   -0.29197E+01   -0.81776E-01 32057   0.112E+00    0.143E+01
RMM:  41    -0.672079206067E+03   -0.21877E+01   -0.86196E-01 32010   0.109E+00    0.156E+01
RMM:  42    -0.673264195378E+03   -0.11850E+01   -0.73958E-01 31508   0.956E-01    0.163E+01
RMM:  43    -0.675579806875E+03   -0.23156E+01   -0.73825E-01 31556   0.935E-01    0.167E+01
RMM:  44    -0.678776378389E+03   -0.31966E+01   -0.15891E+00 33158   0.125E+00    0.175E+01
RMM:  45    -0.681657064172E+03   -0.28807E+01   -0.12674E+00 32620   0.112E+00    0.163E+01
RMM:  46    -0.683784144322E+03   -0.21271E+01   -0.31107E-01 29046   0.691E-01    0.143E+01
RMM:  47    -0.685247660250E+03   -0.14635E+01   -0.22523E-01 28964   0.655E-01    0.125E+01
RMM:  48    -0.687048765547E+03   -0.18011E+01   -0.30042E-01 30930   0.716E-01    0.919E+00
RMM:  49    -0.688216969689E+03   -0.11682E+01   -0.29558E-01 31855   0.679E-01    0.596E+00
RMM:  50    -0.688341449562E+03   -0.12448E+00   -0.19899E-01 30958   0.580E-01    0.476E+00
RMM:  51    -0.690485988954E+03   -0.21445E+01   -0.29284E-01 31673   0.708E-01    0.396E+00
RMM:  52    -0.691293808177E+03   -0.80782E+00   -0.13597E-01 27657   0.396E-01    0.346E+00
RMM:  53    -0.691492656683E+03   -0.19885E+00   -0.47787E-02 26238   0.289E-01    0.337E+00
RMM:  54    -0.691358116812E+03    0.13454E+00   -0.42388E-02 26779   0.309E-01    0.310E+00
RMM:  55    -0.691149715087E+03    0.20840E+00   -0.50589E-02 28286   0.312E-01    0.269E+00
RMM:  56    -0.691210266703E+03   -0.60552E-01   -0.56130E-02 28337   0.297E-01    0.260E+00
RMM:  57    -0.691211808152E+03   -0.15414E-02   -0.28711E-02 26697   0.251E-01    0.220E+00
RMM:  58    -0.691581296333E+03   -0.36949E+00   -0.20325E-02 26136   0.220E-01    0.181E+00
RMM:  59    -0.691751758994E+03   -0.17046E+00   -0.16029E-02 26032   0.176E-01    0.157E+00
RMM:  60    -0.691776612460E+03   -0.24853E-01   -0.10080E-02 25265   0.145E-01    0.143E+00
RMM:  61    -0.691780962183E+03   -0.43497E-02   -0.63541E-03 24804   0.126E-01    0.129E+00
RMM:  62    -0.691893171627E+03   -0.11221E+00   -0.47369E-03 25093   0.994E-02    0.120E+00
RMM:  63    -0.691997327653E+03   -0.10416E+00   -0.35491E-03 25070   0.837E-02    0.115E+00
RMM:  64    -0.692099553244E+03   -0.10223E+00   -0.33393E-03 25452   0.814E-02    0.111E+00
RMM:  65    -0.692187194231E+03   -0.87641E-01   -0.33105E-03 25981   0.802E-02    0.107E+00
RMM:  66    -0.692214865074E+03   -0.27671E-01   -0.31330E-03 26079   0.736E-02    0.105E+00
RMM:  67    -0.692180541900E+03    0.34323E-01   -0.49723E-03 28454   0.839E-02    0.102E+00
RMM:  68    -0.692023711771E+03    0.15683E+00   -0.49811E-03 27449   0.762E-02    0.960E-01
RMM:  69    -0.691953276952E+03    0.70435E-01   -0.26943E-03 26570   0.620E-02    0.946E-01
RMM:  70    -0.691931766451E+03    0.21511E-01   -0.21926E-03 25796   0.578E-02    0.894E-01
RMM:  71    -0.692050693884E+03   -0.11893E+00   -0.18848E-03 26481   0.586E-02    0.860E-01
RMM:  72    -0.692037762745E+03    0.12931E-01   -0.31878E-03 27923   0.648E-02    0.808E-01
RMM:  73    -0.691976222501E+03    0.61540E-01   -0.28725E-03 28811   0.718E-02    0.712E-01
RMM:  74    -0.692010865535E+03   -0.34643E-01   -0.26626E-03 27689   0.738E-02    0.635E-01
RMM:  75    -0.692025891532E+03   -0.15026E-01   -0.41678E-03 29667   0.796E-02    0.514E-01
RMM:  76    -0.692063635281E+03   -0.37744E-01   -0.37164E-03 28517   0.697E-02    0.462E-01
RMM:  77    -0.692136075284E+03   -0.72440E-01   -0.24605E-03 26697   0.581E-02    0.367E-01
RMM:  78    -0.692238189322E+03   -0.10211E+00   -0.25021E-03 25594   0.496E-02    0.283E-01
RMM:  79    -0.692386495024E+03   -0.14831E+00   -0.27891E-03 25720   0.477E-02    0.217E-01
RMM:  80    -0.692558651216E+03   -0.17216E+00   -0.10621E-03 22820   0.326E-02
   1 F= -.69255865E+03 E0= -.69215600E+03  d E =-.692559E+03  mag=    82.7075
       N       E                     dE             d eps       ncg     rms          rms(c)
DAV:   1    -0.678369060484E+03    0.14017E+02   -0.10968E+03 27536   0.342E+01    0.138E+01
RMM:   2    -0.680451707728E+03   -0.20826E+01   -0.53428E+01 24963   0.692E+00    0.153E+01
RMM:   3    -0.682503313740E+03   -0.20516E+01   -0.10442E+01 25174   0.355E+00    0.137E+01
RMM:   4    -0.681485689803E+03    0.10176E+01   -0.13635E+00 25485   0.169E+00    0.761E+00
RMM:   5    -0.681303941141E+03    0.18175E+00   -0.44350E-01 25546   0.899E-01    0.473E+00
RMM:   6    -0.681472434124E+03   -0.16849E+00   -0.27597E-01 25383   0.645E-01    0.317E+00
RMM:   7    -0.681544479676E+03   -0.72046E-01   -0.16123E-01 25645   0.473E-01    0.234E+00
RMM:   8    -0.681563949181E+03   -0.19470E-01   -0.13972E-01 26001   0.515E-01    0.210E+00
RMM:   9    -0.681579085810E+03   -0.15137E-01   -0.51877E-02 25361   0.340E-01    0.149E+00
RMM:  10    -0.681603885819E+03   -0.24800E-01   -0.18929E-02 25035   0.209E-01    0.907E-01
RMM:  11    -0.681636627450E+03   -0.32742E-01   -0.10261E-02 25834   0.134E-01    0.536E-01
RMM:  12    -0.681650684003E+03   -0.14057E-01   -0.56096E-03 27288   0.881E-02    0.365E-01
RMM:  13    -0.681657807701E+03   -0.71237E-02   -0.20542E-03 27549   0.542E-02    0.218E-01
RMM:  14    -0.681662957771E+03   -0.51501E-02   -0.10923E-03 26760   0.363E-02    0.187E-01
RMM:  15    -0.681668578448E+03   -0.56207E-02   -0.72216E-04 24359   0.315E-02    0.135E-01
RMM:  16    -0.681670652994E+03   -0.20745E-02   -0.38765E-04 21447   0.220E-02    0.121E-01
RMM:  17    -0.681671110463E+03   -0.45747E-03   -0.25149E-04 18247   0.185E-02    0.106E-01
RMM:  18    -0.681670537971E+03    0.57249E-03   -0.18864E-04 16650   0.159E-02    0.964E-02
RMM:  19    -0.681668128595E+03    0.24094E-02   -0.21763E-04 16957   0.162E-02    0.932E-02
RMM:  20    -0.681662311258E+03    0.58173E-02   -0.33904E-04 18463   0.195E-02    0.801E-02
RMM:  21    -0.681660083921E+03    0.22273E-02   -0.14423E-04 15631   0.132E-02    0.748E-02
RMM:  22    -0.681658855553E+03    0.12284E-02   -0.10552E-04 15081   0.113E-02    0.688E-02
RMM:  23    -0.681658253963E+03    0.60159E-03   -0.10424E-04 15102   0.110E-02    0.677E-02
RMM:  24    -0.681657757244E+03    0.49672E-03   -0.11884E-04 15832   0.104E-02    0.590E-02
RMM:  25    -0.681658474330E+03   -0.71709E-03   -0.75559E-05 14670   0.918E-03    0.594E-02
RMM:  26    -0.681660238916E+03   -0.17646E-02   -0.76451E-05 14950   0.946E-03    0.556E-02
RMM:  27    -0.681663954562E+03   -0.37156E-02   -0.73619E-05 14738   0.926E-03    0.514E-02
RMM:  28    -0.681668684201E+03   -0.47296E-02   -0.52923E-05 14641   0.816E-03    0.454E-02
RMM:  29    -0.681672580156E+03   -0.38960E-02   -0.35674E-05 14027   0.708E-03    0.442E-02
RMM:  30    -0.681676822264E+03   -0.42421E-02   -0.30475E-05 13834   0.641E-03    0.391E-02
RMM:  31    -0.681681281051E+03   -0.44588E-02   -0.21679E-05 13424   0.537E-03    0.369E-02
RMM:  32    -0.681685462738E+03   -0.41817E-02   -0.15182E-05 12890   0.452E-03    0.359E-02
RMM:  33    -0.681690710304E+03   -0.52476E-02   -0.17121E-05 13258   0.507E-03    0.346E-02
RMM:  34    -0.681695751810E+03   -0.50415E-02   -0.21859E-05 13177   0.539E-03    0.327E-02
RMM:  35    -0.681700067222E+03   -0.43154E-02   -0.19496E-05 13321   0.526E-03    0.311E-02
RMM:  36    -0.681703035752E+03   -0.29685E-02   -0.12862E-05 12856   0.437E-03    0.289E-02
RMM:  37    -0.681706206249E+03   -0.31705E-02   -0.11415E-05 12659   0.405E-03    0.268E-02
RMM:  38    -0.681709210557E+03   -0.30043E-02   -0.11169E-05 12508   0.394E-03    0.248E-02
RMM:  39    -0.681711247574E+03   -0.20370E-02   -0.78540E-06 11729   0.340E-03    0.236E-02
RMM:  40    -0.681713310106E+03   -0.20625E-02   -0.64084E-06 11671   0.324E-03    0.221E-02
RMM:  41    -0.681715768902E+03   -0.24588E-02   -0.74254E-06 12324   0.341E-03    0.215E-02
RMM:  42    -0.681718178677E+03   -0.24098E-02   -0.70051E-06 12238   0.337E-03    0.195E-02
RMM:  43    -0.681720333868E+03   -0.21552E-02   -0.51418E-06 11260   0.305E-03    0.188E-02
RMM:  44    -0.681723177179E+03   -0.28433E-02   -0.52979E-06 11754   0.315E-03    0.167E-02
RMM:  45    -0.681726587143E+03   -0.34100E-02   -0.55739E-06 12002   0.319E-03    0.157E-02
RMM:  46    -0.681729846784E+03   -0.32596E-02   -0.48383E-06 11862   0.311E-03    0.142E-02
RMM:  47    -0.681732126229E+03   -0.22794E-02   -0.29326E-06 10079   0.269E-03    0.118E-02
RMM:  48    -0.681734265682E+03   -0.21395E-02   -0.22297E-06  9587   0.256E-03    0.105E-02
RMM:  49    -0.681736229059E+03   -0.19634E-02   -0.20163E-06  9223   0.250E-03    0.927E-03
RMM:  50    -0.681737960061E+03   -0.17310E-02   -0.20357E-06  9373   0.249E-03    0.814E-03
RMM:  51    -0.681739251062E+03   -0.12910E-02   -0.17228E-06  8309   0.232E-03    0.635E-03
RMM:  52    -0.681739949907E+03   -0.69884E-03   -0.14494E-06  7946   0.228E-03    0.577E-03
RMM:  53    -0.681740565774E+03   -0.61587E-03   -0.12773E-06  8064   0.234E-03    0.477E-03
RMM:  54    -0.681740914905E+03   -0.34913E-03   -0.19916E-06  8803   0.242E-03    0.405E-03
RMM:  55    -0.681740991866E+03   -0.76961E-04   -0.90434E-07  7333   0.216E-03
   2 F= -.68174099E+03 E0= -.68132249E+03  d E =0.108177E+02  mag=    82.7576
       N       E                     dE             d eps       ncg     rms          rms(c)
DAV:   1    -0.693235342181E+03   -0.11494E+02   -0.85632E+02 27712   0.285E+01    0.267E+01
RMM:   2    -0.713007185849E+03   -0.19772E+02   -0.13461E+02 24986   0.672E+00    0.273E+01
RMM:   3    -0.702428807923E+03    0.10578E+02   -0.16372E+01 25186   0.411E+00    0.255E+01
RMM:   4    -0.697506892199E+03    0.49219E+01   -0.25267E+00 25030   0.197E+00    0.157E+01
RMM:   5    -0.695590108032E+03    0.19168E+01   -0.15522E+00 25174   0.129E+00    0.120E+01
RMM:   6    -0.693838284856E+03    0.17518E+01   -0.15464E+00 26042   0.120E+00    0.856E+00
RMM:   7    -0.692813632873E+03    0.10247E+01   -0.12322E+00 26794   0.972E-01    0.501E+00
RMM:   8    -0.692865101379E+03   -0.51469E-01   -0.23968E-01 25205   0.647E-01    0.346E+00
RMM:   9    -0.693136534543E+03   -0.27143E+00   -0.16519E-01 25163   0.462E-01    0.303E+00
RMM:  10    -0.693333945709E+03   -0.19741E+00   -0.23744E-01 27082   0.565E-01    0.277E+00
RMM:  11    -0.693431226004E+03   -0.97280E-01   -0.11538E-01 26085   0.405E-01    0.254E+00
RMM:  12    -0.693452675386E+03   -0.21449E-01   -0.27252E-02 24757   0.219E-01    0.186E+00
RMM:  13    -0.693472642723E+03   -0.19967E-01   -0.17150E-02 24590   0.157E-01    0.160E+00
RMM:  14    -0.693490527200E+03   -0.17884E-01   -0.30893E-02 25945   0.172E-01    0.706E-01
RMM:  15    -0.693504696170E+03   -0.14169E-01   -0.70374E-03 23971   0.124E-01    0.608E-01
RMM:  16    -0.693516772746E+03   -0.12077E-01   -0.40872E-03 23369   0.978E-02    0.487E-01
RMM:  17    -0.693524681288E+03   -0.79085E-02   -0.20342E-03 22634   0.637E-02    0.284E-01
RMM:  18    -0.693531631514E+03   -0.69502E-02   -0.78392E-04 21460   0.406E-02    0.198E-01
RMM:  19    -0.693539560967E+03   -0.79295E-02   -0.42723E-04 20365   0.300E-02    0.219E-01
RMM:  20    -0.693545975759E+03   -0.64148E-02   -0.42941E-04 19736   0.269E-02    0.147E-01
RMM:  21    -0.693553734185E+03   -0.77584E-02   -0.54039E-04 20294   0.278E-02    0.916E-02
RMM:  22    -0.693560306595E+03   -0.65724E-02   -0.31216E-04 18975   0.242E-02    0.889E-02
RMM:  23    -0.693564151092E+03   -0.38445E-02   -0.95586E-05 15393   0.151E-02    0.637E-02
RMM:  24    -0.693566505502E+03   -0.23544E-02   -0.47624E-05 14386   0.105E-02    0.461E-02
RMM:  25    -0.693569014325E+03   -0.25088E-02   -0.34875E-05 14237   0.863E-03    0.391E-02
RMM:  26    -0.693571041595E+03   -0.20273E-02   -0.26851E-05 13672   0.700E-03    0.364E-02
RMM:  27    -0.693573210466E+03   -0.21689E-02   -0.20716E-05 13330   0.603E-03    0.329E-02
RMM:  28    -0.693574987362E+03   -0.17769E-02   -0.22377E-05 13072   0.538E-03    0.299E-02
RMM:  29    -0.693576706429E+03   -0.17191E-02   -0.46449E-05 13818   0.577E-03    0.276E-02
RMM:  30    -0.693578209401E+03   -0.15030E-02   -0.31990E-05 13803   0.573E-03    0.250E-02
RMM:  31    -0.693578763309E+03   -0.55391E-03   -0.25921E-05 13245   0.488E-03    0.272E-02
RMM:  32    -0.693578931963E+03   -0.16865E-03   -0.10109E-05 12200   0.385E-03    0.253E-02
RMM:  33    -0.693579084502E+03   -0.15254E-03   -0.11606E-05 12689   0.401E-03    0.234E-02
RMM:  34    -0.693579277297E+03   -0.19280E-03   -0.11710E-05 12440   0.388E-03    0.226E-02
RMM:  35    -0.693579586903E+03   -0.30961E-03   -0.13665E-05 12558   0.393E-03    0.214E-02
RMM:  36    -0.693579962756E+03   -0.37585E-03   -0.84585E-06 11060   0.340E-03    0.198E-02
RMM:  37    -0.693580427330E+03   -0.46457E-03   -0.75039E-06 11411   0.321E-03    0.207E-02
RMM:  38    -0.693580979684E+03   -0.55235E-03   -0.64205E-06 11559   0.315E-03    0.192E-02
RMM:  39    -0.693581553030E+03   -0.57335E-03   -0.57320E-06 11169   0.308E-03    0.172E-02
RMM:  40    -0.693582305303E+03   -0.75227E-03   -0.68971E-06 11558   0.320E-03    0.166E-02
RMM:  41    -0.693582964435E+03   -0.65913E-03   -0.52834E-06 10898   0.302E-03    0.148E-02
RMM:  42    -0.693583965044E+03   -0.10006E-02   -0.95454E-06 12190   0.347E-03    0.141E-02
RMM:  43    -0.693584787999E+03   -0.82296E-03   -0.81485E-06 11788   0.335E-03    0.133E-02
RMM:  44    -0.693585412618E+03   -0.62462E-03   -0.59433E-06 10625   0.309E-03    0.121E-02
RMM:  45    -0.693586126395E+03   -0.71378E-03   -0.52653E-06  9841   0.286E-03    0.114E-02
RMM:  46    -0.693586804606E+03   -0.67821E-03   -0.41904E-06  9424   0.278E-03    0.999E-03
RMM:  47    -0.693587400145E+03   -0.59554E-03   -0.39647E-06  9315   0.270E-03    0.880E-03
RMM:  48    -0.693588005575E+03   -0.60543E-03   -0.25580E-06  8668   0.255E-03    0.761E-03
RMM:  49    -0.693588498779E+03   -0.49320E-03   -0.17679E-06  8040   0.238E-03    0.723E-03
RMM:  50    -0.693588888026E+03   -0.38925E-03   -0.18268E-06  8212   0.235E-03    0.678E-03
RMM:  51    -0.693589158002E+03   -0.26998E-03   -0.23526E-06  8499   0.241E-03    0.598E-03
RMM:  52    -0.693589380422E+03   -0.22242E-03   -0.15294E-06  7898   0.230E-03    0.555E-03
RMM:  53    -0.693589542561E+03   -0.16214E-03   -0.12041E-06  7557   0.222E-03    0.501E-03
RMM:  54    -0.693589823619E+03   -0.28106E-03   -0.15988E-06  7729   0.226E-03    0.459E-03
RMM:  55    -0.693590274099E+03   -0.45048E-03   -0.14807E-06  7628   0.224E-03    0.408E-03
RMM:  56    -0.693590662878E+03   -0.38878E-03   -0.10575E-06  7261   0.221E-03    0.374E-03
RMM:  57    -0.693590856080E+03   -0.19320E-03   -0.57671E-07  6638   0.213E-03    0.363E-03
RMM:  58    -0.693591217692E+03   -0.36161E-03   -0.15341E-06  7533   0.222E-03    0.311E-03
RMM:  59    -0.693591452879E+03   -0.23519E-03   -0.16475E-06  7767   0.225E-03    0.265E-03
RMM:  60    -0.693591492680E+03   -0.39801E-04   -0.10266E-06  7205   0.219E-03
   3 F= -.69359149E+03 E0= -.69318827E+03  d E =-.103284E+01  mag=    82.6120
       N       E                     dE             d eps       ncg     rms          rms(c)
DAV:   1    -0.693645152454E+03   -0.53700E-01   -0.21199E+00 27616   0.151E+00    0.894E-01
RMM:   2    -0.693652561200E+03   -0.74087E-02   -0.10075E-01 24113   0.322E-01    0.146E+00
RMM:   3    -0.693647690014E+03    0.48712E-02   -0.19383E-02 23518   0.198E-01    0.515E-01
RMM:   4    -0.693647749815E+03   -0.59801E-04   -0.49006E-03 22265   0.967E-02    0.263E-01
RMM:   5    -0.693647914703E+03   -0.16489E-03   -0.13842E-03 20746   0.490E-02    0.138E-01
RMM:   6    -0.693648061262E+03   -0.14656E-03   -0.42798E-04 18577   0.266E-02    0.120E-01
RMM:   7    -0.693648139398E+03   -0.78136E-04   -0.31193E-04 17989   0.245E-02    0.110E-01
RMM:   8    -0.693648079380E+03    0.60017E-04   -0.18534E-04 16178   0.187E-02
   4 F= -.69364808E+03 E0= -.69324433E+03  d E =-.108943E+01  mag=    82.6119
       N       E                     dE             d eps       ncg     rms          rms(c)
DAV:   1    -0.688775438691E+03    0.48727E+01   -0.42034E+02 26240   0.229E+01    0.114E+01
RMM:   2    -0.689772586046E+03   -0.99715E+00   -0.16453E+01 24960   0.495E+00    0.148E+01
RMM:   3    -0.690274527678E+03   -0.50194E+00   -0.43517E+00 25133   0.286E+00    0.895E+00
RMM:   4    -0.689870761515E+03    0.40377E+00   -0.68967E-01 26231   0.126E+00    0.478E+00
RMM:   5    -0.689820548504E+03    0.50213E-01   -0.21075E-01 26711   0.565E-01    0.293E+00
RMM:   6    -0.689958992586E+03   -0.13844E+00   -0.93021E-02 25655   0.361E-01    0.258E+00
RMM:   7    -0.689991103527E+03   -0.32111E-01   -0.86222E-02 25591   0.346E-01    0.196E+00
RMM:   8    -0.689879978705E+03    0.11112E+00   -0.98561E-02 26886   0.380E-01    0.129E+00
RMM:   9    -0.689922991920E+03   -0.43013E-01   -0.24157E-02 24783   0.226E-01    0.106E+00
RMM:  10    -0.689969653422E+03   -0.46662E-01   -0.21059E-02 24857   0.183E-01    0.683E-01
RMM:  11    -0.689999614585E+03   -0.29961E-01   -0.83487E-03 24721   0.114E-01    0.414E-01
RMM:  12    -0.690011647039E+03   -0.12032E-01   -0.30055E-03 24634   0.653E-02    0.195E-01
RMM:  13    -0.690019810815E+03   -0.81638E-02   -0.12668E-03 24425   0.401E-02    0.161E-01
RMM:  14    -0.690024022559E+03   -0.42117E-02   -0.56130E-04 22456   0.257E-02    0.109E-01
RMM:  15    -0.690026802517E+03   -0.27800E-02   -0.58838E-04 21658   0.259E-02    0.104E-01
RMM:  16    -0.690027116934E+03   -0.31442E-03   -0.21576E-04 18232   0.172E-02    0.749E-02
RMM:  17    -0.690027622014E+03   -0.50508E-03   -0.15869E-04 16592   0.148E-02    0.691E-02
RMM:  18    -0.690027947681E+03   -0.32567E-03   -0.91533E-05 15582   0.118E-02    0.600E-02
RMM:  19    -0.690028046876E+03   -0.99195E-04   -0.92848E-05 15181   0.114E-02
   5 F= -.69002805E+03 E0= -.68962062E+03  d E =0.362003E+01  mag=    82.5899
       N       E                     dE             d eps       ncg     rms          rms(c)
DAV:   1    -0.693634486331E+03   -0.36065E+01   -0.23447E+02 26624   0.167E+01    0.101E+01
RMM:   2    -0.694584191037E+03   -0.94970E+00   -0.10505E+01 24960   0.339E+00    0.133E+01
RMM:   3    -0.694148659428E+03    0.43553E+00   -0.23512E+00 25042   0.227E+00    0.796E+00
RMM:   4    -0.693959857171E+03    0.18880E+00   -0.55878E-01 25571   0.112E+00    0.340E+00
RMM:   5    -0.693933402418E+03    0.26455E-01   -0.25523E-01 25119   0.628E-01    0.231E+00
RMM:   6    -0.693926874358E+03    0.65281E-02   -0.77309E-02 24903   0.391E-01    0.185E+00
RMM:   7    -0.693918433780E+03    0.84406E-02   -0.48211E-02 24996   0.305E-01    0.147E+00
RMM:   8    -0.693916645451E+03    0.17883E-02   -0.26326E-02 24985   0.228E-01    0.119E+00
RMM:   9    -0.693913849226E+03    0.27962E-02   -0.11261E-02 24731   0.157E-01    0.526E-01
RMM:  10    -0.693915446741E+03   -0.15975E-02   -0.42686E-03 25977   0.867E-02    0.316E-01
RMM:  11    -0.693916585531E+03   -0.11388E-02   -0.16602E-03 26232   0.498E-02    0.161E-01
RMM:  12    -0.693917832850E+03   -0.12473E-02   -0.73072E-04 24885   0.292E-02    0.111E-01
RMM:  13    -0.693918636913E+03   -0.80406E-03   -0.39063E-04 21913   0.238E-02    0.102E-01
RMM:  14    -0.693919126200E+03   -0.48929E-03   -0.21533E-04 19095   0.194E-02    0.639E-02
RMM:  15    -0.693919387409E+03   -0.26121E-03   -0.10667E-04 15828   0.124E-02    0.460E-02
RMM:  16    -0.693919713678E+03   -0.32627E-03   -0.64867E-05 14855   0.999E-03    0.374E-02
RMM:  17    -0.693920024764E+03   -0.31109E-03   -0.39632E-05 14311   0.820E-03    0.302E-02
RMM:  18    -0.693920305688E+03   -0.28092E-03   -0.29864E-05 14098   0.734E-03    0.273E-02
RMM:  19    -0.693920500882E+03   -0.19519E-03   -0.22835E-05 13743   0.640E-03    0.239E-02
RMM:  20    -0.693920639581E+03   -0.13870E-03   -0.15086E-05 13181   0.543E-03    0.202E-02
RMM:  21    -0.693920797579E+03   -0.15800E-03   -0.10362E-05 12553   0.458E-03    0.165E-02
RMM:  22    -0.693921003308E+03   -0.20573E-03   -0.82867E-06 12285   0.399E-03    0.134E-02
RMM:  23    -0.693921226916E+03   -0.22361E-03   -0.72202E-06 12329   0.369E-03    0.116E-02
RMM:  24    -0.693921402241E+03   -0.17533E-03   -0.54743E-06 11569   0.323E-03    0.954E-03
RMM:  25    -0.693921527628E+03   -0.12539E-03   -0.30769E-06 10025   0.277E-03    0.813E-03
RMM:  26    -0.693921673187E+03   -0.14556E-03   -0.26366E-06  9200   0.255E-03    0.722E-03
RMM:  27    -0.693921820509E+03   -0.14732E-03   -0.25756E-06  9054   0.247E-03    0.681E-03
RMM:  28    -0.693922078222E+03   -0.25771E-03   -0.33639E-06 10006   0.262E-03    0.603E-03
RMM:  29    -0.693922152819E+03   -0.74597E-04   -0.27709E-06  9766   0.256E-03
   6 F= -.69392215E+03 E0= -.69351814E+03  d E =-.274073E+00  mag=    82.5867
       N       E                     dE             d eps       ncg     rms          rms(c)
DAV:   1    -0.693947958023E+03   -0.25880E-01   -0.14820E+00 28064   0.135E+00    0.720E-01
RMM:   2    -0.693952882428E+03   -0.49244E-02   -0.53153E-02 24808   0.273E-01    0.101E+00
RMM:   3    -0.693951986557E+03    0.89587E-03   -0.13157E-02 23968   0.175E-01    0.526E-01
RMM:   4    -0.693951740432E+03    0.24613E-03   -0.34934E-03 22449   0.884E-02    0.208E-01
RMM:   5    -0.693951886303E+03   -0.14587E-03   -0.10175E-03 21126   0.425E-02    0.158E-01
RMM:   6    -0.693952009635E+03   -0.12333E-03   -0.35778E-04 18609   0.265E-02    0.139E-01
RMM:   7    -0.693952085607E+03   -0.75972E-04   -0.25903E-04 17821   0.230E-02    0.105E-01
RMM:   8    -0.693952179179E+03   -0.93572E-04   -0.14043E-04 15740   0.171E-02
   7 F= -.69395218E+03 E0= -.69354830E+03  d E =-.304100E+00  mag=    82.5868
       N       E                     dE             d eps       ncg     rms          rms(c)
DAV:   1    -0.693173581584E+03    0.77850E+00   -0.13759E+02 25536   0.130E+01    0.565E+00
RMM:   2    -0.693659110604E+03   -0.48553E+00   -0.34752E+00 24960   0.257E+00    0.600E+00
RMM:   3    -0.693763501954E+03   -0.10439E+00   -0.93871E-01 25312   0.143E+00    0.460E+00
RMM:   4    -0.693714381070E+03    0.49121E-01   -0.22984E-01 26443   0.755E-01    0.163E+00
RMM:   5    -0.693720477656E+03   -0.60966E-02   -0.68021E-02 26282   0.340E-01    0.148E+00
RMM:   6    -0.693716874241E+03    0.36034E-02   -0.23112E-02 25062   0.219E-01    0.111E+00
RMM:   7    -0.693716449786E+03    0.42445E-03   -0.18280E-02 24756   0.181E-01    0.883E-01
RMM:   8    -0.693716838273E+03   -0.38849E-03   -0.67627E-03 24169   0.122E-01    0.493E-01
RMM:   9    -0.693717675895E+03   -0.83762E-03   -0.31733E-03 23175   0.858E-02    0.306E-01
RMM:  10    -0.693717664319E+03    0.11576E-04   -0.11683E-03 23628   0.464E-02    0.135E-01
RMM:  11    -0.693717668349E+03   -0.40298E-05   -0.58823E-04 22433   0.253E-02
   8 F= -.69371767E+03 E0= -.69331151E+03  d E =0.234511E+00  mag=    82.5809
       N       E                     dE             d eps       ncg     rms          rms(c)
DAV:   1    -0.693976581061E+03   -0.25892E+00   -0.63501E+01 26224   0.873E+00    0.372E+00
RMM:   2    -0.694167669675E+03   -0.19109E+00   -0.13589E+00 24960   0.156E+00    0.304E+00
RMM:   3    -0.694215847317E+03   -0.48178E-01   -0.28779E-01 25223   0.763E-01    0.281E+00
RMM:   4    -0.694194541207E+03    0.21306E-01   -0.76313E-02 26200   0.443E-01    0.107E+00
RMM:   5    -0.694192712414E+03    0.18288E-02   -0.24886E-02 24995   0.217E-01    0.847E-01
RMM:   6    -0.694191452985E+03    0.12594E-02   -0.12271E-02 24104   0.159E-01    0.735E-01
RMM:   7    -0.694190881630E+03    0.57135E-03   -0.76690E-03 23777   0.131E-01    0.510E-01
RMM:   8    -0.694190773771E+03    0.10786E-03   -0.23141E-03 22926   0.711E-02    0.240E-01
RMM:   9    -0.694190917163E+03   -0.14339E-03   -0.86035E-04 23417   0.383E-02    0.162E-01
RMM:  10    -0.694191116495E+03   -0.19933E-03   -0.32415E-04 19353   0.233E-02    0.773E-02
RMM:  11    -0.694191421925E+03   -0.30543E-03   -0.14389E-04 16572   0.145E-02    0.587E-02
RMM:  12    -0.694191715220E+03   -0.29329E-03   -0.87861E-05 15470   0.127E-02    0.482E-02
RMM:  13    -0.694191902197E+03   -0.18698E-03   -0.48660E-05 14779   0.112E-02    0.422E-02
RMM:  14    -0.694191980154E+03   -0.77957E-04   -0.23400E-05 13629   0.785E-03
   9 F= -.69419198E+03 E0= -.69378804E+03  d E =-.239801E+00  mag=    82.5784
       N       E                     dE             d eps       ncg     rms          rms(c)
DAV:   1    -0.693863879073E+03    0.32802E+00   -0.52562E+01 26064   0.817E+00    0.323E+00
RMM:   2    -0.694058300776E+03   -0.19442E+00   -0.17021E+00 24961   0.156E+00    0.382E+00
RMM:   3    -0.694035321807E+03    0.22979E-01   -0.25323E-01 25119   0.706E-01    0.177E+00
RMM:   4    -0.694034489819E+03    0.83199E-03   -0.58372E-02 26165   0.392E-01    0.132E+00
RMM:   5    -0.694029975740E+03    0.45141E-02   -0.20016E-02 25325   0.216E-01    0.698E-01
RMM:   6    -0.694029257084E+03    0.71866E-03   -0.80127E-03 24643   0.127E-01    0.584E-01
RMM:   7    -0.694028893176E+03    0.36391E-03   -0.63495E-03 23973   0.112E-01    0.454E-01
RMM:   8    -0.694028722624E+03    0.17055E-03   -0.32992E-03 23558   0.791E-02    0.263E-01
RMM:   9    -0.694028396775E+03    0.32585E-03   -0.11842E-03 23776   0.464E-02    0.130E-01
RMM:  10    -0.694028017760E+03    0.37901E-03   -0.46467E-04 21820   0.247E-02    0.835E-02
RMM:  11    -0.694027618276E+03    0.39948E-03   -0.16411E-04 17446   0.157E-02    0.713E-02
RMM:  12    -0.694027002552E+03    0.61572E-03   -0.11489E-04 16148   0.134E-02    0.579E-02
RMM:  13    -0.694026480295E+03    0.52226E-03   -0.67931E-05 15155   0.115E-02    0.492E-02
RMM:  14    -0.694026051495E+03    0.42880E-03   -0.34647E-05 14238   0.898E-03    0.346E-02
RMM:  15    -0.694025933227E+03    0.11827E-03   -0.16540E-05 13240   0.592E-03    0.302E-02
RMM:  16    -0.694025811378E+03    0.12185E-03   -0.11604E-05 13097   0.520E-03    0.278E-02
RMM:  17    -0.694025561042E+03    0.25034E-03   -0.10487E-05 13303   0.497E-03    0.268E-02
RMM:  18    -0.694025227928E+03    0.33311E-03   -0.74194E-06 12767   0.446E-03    0.250E-02
RMM:  19    -0.694024929039E+03    0.29889E-03   -0.53426E-06 12147   0.383E-03    0.227E-02
RMM:  20    -0.694024684952E+03    0.24409E-03   -0.33087E-06 11169   0.312E-03    0.211E-02
RMM:  21    -0.694024477049E+03    0.20790E-03   -0.19064E-06  9883   0.269E-03    0.203E-02
RMM:  22    -0.694024156709E+03    0.32034E-03   -0.24560E-06 10925   0.283E-03    0.203E-02
RMM:  23    -0.694023870604E+03    0.28611E-03   -0.19233E-06 10073   0.270E-03    0.192E-02
RMM:  24    -0.694023620768E+03    0.24984E-03   -0.20147E-06  9597   0.256E-03    0.185E-02
RMM:  25    -0.694023448227E+03    0.17254E-03   -0.18532E-06  8996   0.246E-03    0.175E-02
RMM:  26    -0.694023143335E+03    0.30489E-03   -0.45346E-06 11069   0.287E-03    0.171E-02
RMM:  27    -0.694022751984E+03    0.39135E-03   -0.53422E-06 11681   0.303E-03    0.157E-02
RMM:  28    -0.694022287332E+03    0.46465E-03   -0.60927E-06 11835   0.318E-03    0.141E-02
RMM:  29    -0.694022069718E+03    0.21761E-03   -0.33267E-06 10150   0.278E-03    0.125E-02
RMM:  30    -0.694022111086E+03   -0.41368E-04   -0.18924E-06  9030   0.252E-03
  10 F= -.69402211E+03 E0= -.69362004E+03  d E =0.169869E+00  mag=    82.5257
       N       E                     dE             d eps       ncg     rms          rms(c)
DAV:   1    -0.694257699377E+03   -0.23563E+00   -0.24329E+01 26464   0.555E+00    0.218E+00
RMM:   2    -0.694333005104E+03   -0.75306E-01   -0.71237E-01 24960   0.107E+00    0.278E+00
RMM:   3    -0.694328499075E+03    0.45060E-02   -0.12018E-01 25062   0.500E-01    0.130E+00
RMM:   4    -0.694328709186E+03   -0.21011E-03   -0.32515E-02 25751   0.284E-01    0.885E-01
RMM:   5    -0.694327303046E+03    0.14061E-02   -0.91756E-03 24268   0.146E-01    0.471E-01
RMM:   6    -0.694327351206E+03   -0.48160E-04   -0.36615E-03 23361   0.860E-02    0.402E-01
RMM:   7    -0.694327686673E+03   -0.33547E-03   -0.29551E-03 22852   0.762E-02    0.287E-01
RMM:   8    -0.694328250577E+03   -0.56390E-03   -0.15325E-03 22554   0.539E-02    0.174E-01
RMM:   9    -0.694328508603E+03   -0.25803E-03   -0.49033E-04 21019   0.302E-02    0.755E-02
RMM:  10    -0.694328818156E+03   -0.30955E-03   -0.17089E-04 17177   0.162E-02    0.646E-02
RMM:  11    -0.694329049847E+03   -0.23169E-03   -0.67474E-05 15077   0.119E-02    0.452E-02
RMM:  12    -0.694329502096E+03   -0.45225E-03   -0.52911E-05 14704   0.937E-03    0.375E-02
RMM:  13    -0.694329831511E+03   -0.32941E-03   -0.30050E-05 14020   0.823E-03    0.281E-02
RMM:  14    -0.694330122089E+03   -0.29058E-03   -0.14621E-05 13257   0.618E-03    0.209E-02
RMM:  15    -0.694330327298E+03   -0.20521E-03   -0.74517E-06 12265   0.417E-03    0.188E-02
RMM:  16    -0.694330634141E+03   -0.30684E-03   -0.54086E-06 12325   0.377E-03    0.167E-02
RMM:  17    -0.694331099669E+03   -0.46553E-03   -0.61834E-06 12605   0.400E-03    0.151E-02
RMM:  18    -0.694331421526E+03   -0.32186E-03   -0.38230E-06 11788   0.340E-03    0.129E-02
RMM:  19    -0.694331606690E+03   -0.18516E-03   -0.20489E-06 10272   0.280E-03    0.108E-02
RMM:  20    -0.694331803905E+03   -0.19722E-03   -0.11629E-06  8713   0.245E-03    0.934E-03
RMM:  21    -0.694332074207E+03   -0.27030E-03   -0.12804E-06  8973   0.246E-03    0.920E-03
RMM:  22    -0.694332428999E+03   -0.35479E-03   -0.16127E-06  9343   0.251E-03    0.911E-03
RMM:  23    -0.694332688863E+03   -0.25986E-03   -0.88881E-07  8062   0.232E-03    0.732E-03
RMM:  24    -0.694332905309E+03   -0.21645E-03   -0.62883E-07  7191   0.219E-03    0.664E-03
RMM:  25    -0.694333181826E+03   -0.27652E-03   -0.11343E-06  7771   0.225E-03    0.635E-03
RMM:  26    -0.694333554182E+03   -0.37236E-03   -0.20954E-06  8532   0.239E-03    0.548E-03
RMM:  27    -0.694333831164E+03   -0.27698E-03   -0.26834E-06  9009   0.249E-03    0.424E-03
RMM:  28    -0.694333936950E+03   -0.10579E-03   -0.11591E-06  7683   0.226E-03    0.371E-03
RMM:  29    -0.694334055254E+03   -0.11830E-03   -0.68469E-07  6792   0.213E-03    0.336E-03
RMM:  30    -0.694334183513E+03   -0.12826E-03   -0.64349E-07  6752   0.214E-03    0.308E-03
RMM:  31    -0.694334330048E+03   -0.14654E-03   -0.87289E-07  7042   0.218E-03    0.284E-03
RMM:  32    -0.694334453087E+03   -0.12304E-03   -0.81933E-07  6971   0.217E-03    0.256E-03
RMM:  33    -0.694334541682E+03   -0.88595E-04   -0.48984E-07  6460   0.211E-03
  11 F= -.69433454E+03 E0= -.69393142E+03  d E =-.142562E+00  mag=    82.5283
       N       E                     dE             d eps       ncg     rms          rms(c)
DAV:   1    -0.694151350743E+03    0.18310E+00   -0.18248E+01 27120   0.475E+00    0.192E+00
RMM:   2    -0.694221279984E+03   -0.69929E-01   -0.57691E-01 24960   0.104E+00    0.208E+00
RMM:   3    -0.694229097855E+03   -0.78179E-02   -0.10730E-01 25165   0.459E-01    0.166E+00
RMM:   4    -0.694223136116E+03    0.59617E-02   -0.24235E-02 25846   0.258E-01    0.675E-01
RMM:   5    -0.694223051371E+03    0.84745E-04   -0.91465E-03 25011   0.132E-01    0.671E-01
RMM:   6    -0.694222691690E+03    0.35968E-03   -0.51638E-03 24050   0.101E-01    0.562E-01
RMM:   7    -0.694221895724E+03    0.79597E-03   -0.30965E-03 23428   0.833E-02    0.324E-01
RMM:   8    -0.694221868244E+03    0.27480E-04   -0.10671E-03 22852   0.470E-02    0.221E-01
RMM:   9    -0.694221733381E+03    0.13486E-03   -0.41460E-04 20430   0.295E-02    0.934E-02
RMM:  10    -0.694221752041E+03   -0.18660E-04   -0.17556E-04 16955   0.167E-02
  12 F= -.69422175E+03 E0= -.69382204E+03  d E =0.112790E+00  mag=    82.5254
       N       E                     dE             d eps       ncg     rms          rms(c)
DAV:   1    -0.694345501509E+03   -0.12377E+00   -0.93398E+00 27152   0.338E+00    0.140E+00
RMM:   2    -0.694379482870E+03   -0.33981E-01   -0.28799E-01 24960   0.754E-01    0.157E+00
RMM:   3    -0.694383331485E+03   -0.38486E-02   -0.54671E-02 25132   0.339E-01    0.122E+00
RMM:   4    -0.694380233604E+03    0.30979E-02   -0.13661E-02 25038   0.191E-01    0.473E-01
RMM:   5    -0.694380193077E+03    0.40527E-04   -0.44829E-03 24036   0.954E-02    0.479E-01
RMM:   6    -0.694380121675E+03    0.71402E-04   -0.26310E-03 22971   0.737E-02    0.417E-01
RMM:   7    -0.694379736499E+03    0.38518E-03   -0.16610E-03 22717   0.603E-02    0.236E-01
RMM:   8    -0.694379807322E+03   -0.70823E-04   -0.52620E-04 21152   0.336E-02
  13 F= -.69437981E+03 E0= -.69397770E+03  d E =-.452656E-01  mag=    82.5248
       N       E                     dE             d eps       ncg     rms          rms(c)
DAV:   1    -0.694327445214E+03    0.52291E-01   -0.59664E+00 27680   0.277E+00    0.116E+00
RMM:   2    -0.694346800723E+03   -0.19356E-01   -0.15906E-01 24960   0.557E-01    0.120E+00
RMM:   3    -0.694349665507E+03   -0.28648E-02   -0.30262E-02 25045   0.268E-01    0.754E-01
RMM:   4    -0.694349007937E+03    0.65757E-03   -0.87762E-03 24276   0.154E-01    0.432E-01
RMM:   5    -0.694348785907E+03    0.22203E-03   -0.25690E-03 23424   0.752E-02    0.231E-01
RMM:   6    -0.694348917223E+03   -0.13132E-03   -0.11839E-03 21653   0.478E-02    0.233E-01
RMM:   7    -0.694348943815E+03   -0.26592E-04   -0.81695E-04 21089   0.425E-02    0.155E-01
RMM:   8    -0.694349018041E+03   -0.74226E-04   -0.29559E-04 18832   0.256E-02
  14 F= -.69434902E+03 E0= -.69394760E+03  d E =0.307893E-01  mag=    82.5233
       N       E                     dE             d eps       ncg     rms          rms(c)
DAV:   1    -0.694396928401E+03   -0.47985E-01   -0.23108E+00 27424   0.172E+00    0.721E-01
RMM:   2    -0.694404764944E+03   -0.78365E-02   -0.61920E-02 24960   0.344E-01    0.715E-01
RMM:   3    -0.694405883704E+03   -0.11188E-02   -0.10872E-02 24697   0.159E-01    0.506E-01
RMM:   4    -0.694405267625E+03    0.61608E-03   -0.31322E-03 23361   0.931E-02    0.282E-01
RMM:   5    -0.694404987935E+03    0.27969E-03   -0.91136E-04 22135   0.454E-02    0.155E-01
RMM:   6    -0.694404886749E+03    0.10119E-03   -0.41214E-04 19683   0.308E-02    0.155E-01
RMM:   7    -0.694404797279E+03    0.89469E-04   -0.33342E-04 18898   0.269E-02    0.901E-02
RMM:   8    -0.694404801373E+03   -0.40941E-05   -0.11956E-04 15738   0.162E-02
  15 F= -.69440480E+03 E0= -.69400298E+03  d E =-.249941E-01  mag=    82.5225
       N       E                     dE             d eps       ncg     rms          rms(c)
DAV:   1    -0.694399097489E+03    0.56998E-02   -0.23394E+00 27168   0.170E+00    0.767E-01
RMM:   2    -0.694407476041E+03   -0.83786E-02   -0.56232E-02 24960   0.349E-01    0.712E-01
RMM:   3    -0.694409984545E+03   -0.25085E-02   -0.13176E-02 24721   0.179E-01    0.676E-01
RMM:   4    -0.694408672364E+03    0.13122E-02   -0.38962E-03 23018   0.102E-01    0.184E-01
RMM:   5    -0.694408814737E+03   -0.14237E-03   -0.11116E-03 22204   0.451E-02    0.187E-01
RMM:   6    -0.694408817581E+03   -0.28443E-05   -0.44579E-04 19613   0.316E-02    0.133E-01
RMM:   7    -0.694408870647E+03   -0.53066E-04   -0.30972E-04 18741   0.245E-02    0.104E-01
RMM:   8    -0.694408877845E+03   -0.71982E-05   -0.11129E-04 15622   0.163E-02
  16 F= -.69440888E+03 E0= -.69400702E+03  d E =-.407647E-02  mag=    82.5212
       N       E                     dE             d eps       ncg     rms          rms(c)
DAV:   1    -0.694419292235E+03   -0.10422E-01   -0.55815E-01 27584   0.831E-01    0.376E-01
RMM:   2    -0.694421177175E+03   -0.18849E-02   -0.13450E-02 24858   0.170E-01    0.349E-01
RMM:   3    -0.694421799159E+03   -0.62198E-03   -0.31144E-03 23333   0.866E-02    0.337E-01
RMM:   4    -0.694421423103E+03    0.37606E-03   -0.92276E-04 20957   0.502E-02    0.920E-02
RMM:   5    -0.694421380642E+03    0.42461E-04   -0.26411E-04 17599   0.226E-02    0.836E-02
RMM:   6    -0.694421328982E+03    0.51660E-04   -0.12194E-04 15420   0.171E-02    0.663E-02
RMM:   7    -0.694421314165E+03    0.14817E-04   -0.83674E-05 14528   0.136E-02    0.476E-02
RMM:   8    -0.694421320339E+03   -0.61737E-05   -0.28710E-05 13305   0.878E-03
  17 F= -.69442132E+03 E0= -.69401958E+03  d E =-.165190E-01  mag=    82.5201
       N       E                     dE             d eps       ncg     rms          rms(c)
DAV:   1    -0.694435728361E+03   -0.14414E-01   -0.88141E-01 27584   0.101E+00    0.571E-01
RMM:   2    -0.694440216954E+03   -0.44886E-02   -0.23090E-02 24935   0.226E-01    0.553E-01
RMM:   3    -0.694440664222E+03   -0.44727E-03   -0.49388E-03 24260   0.102E-01    0.340E-01
RMM:   4    -0.694440577081E+03    0.87140E-04   -0.16818E-03 21937   0.674E-02    0.225E-01
RMM:   5    -0.694440460715E+03    0.11637E-03   -0.52580E-04 20002   0.363E-02    0.116E-01
RMM:   6    -0.694440470628E+03   -0.99121E-05   -0.23628E-04 17690   0.229E-02    0.106E-01
RMM:   7    -0.694440445626E+03    0.25001E-04   -0.16595E-04 16559   0.201E-02    0.664E-02
RMM:   8    -0.694440419436E+03    0.26190E-04   -0.61583E-05 14390   0.125E-02
  18 F= -.69444042E+03 E0= -.69403908E+03  d E =-.190991E-01  mag=    82.5185
       N       E                     dE             d eps       ncg     rms          rms(c)
DAV:   1    -0.694440865009E+03   -0.41938E-03   -0.43513E-02 28064   0.227E-01    0.129E-01
RMM:   2    -0.694441097321E+03   -0.23231E-03   -0.11937E-03 22008   0.511E-02    0.133E-01
RMM:   3    -0.694441081713E+03    0.15608E-04   -0.25786E-04 17722   0.238E-02    0.911E-02
RMM:   4    -0.694441052960E+03    0.28753E-04   -0.91526E-05 14859   0.168E-02    0.534E-02
RMM:   5    -0.694441018659E+03    0.34302E-04   -0.26035E-05 13161   0.862E-03    0.309E-02
RMM:   6    -0.694440978094E+03    0.40565E-04   -0.11048E-05 12740   0.563E-03    0.296E-02
RMM:   7    -0.694440929877E+03    0.48217E-04   -0.84269E-06 12524   0.503E-03    0.169E-02
RMM:   8    -0.694440895026E+03    0.34851E-04   -0.34210E-06 11333   0.346E-03
  19 F= -.69444090E+03 E0= -.69403960E+03  d E =-.195747E-01  mag=    82.5168
       N       E                     dE             d eps       ncg     rms          rms(c)
DAV:   1    -0.694456468675E+03   -0.15539E-01   -0.79248E-01 27664   0.964E-01    0.509E-01
RMM:   2    -0.694460058680E+03   -0.35900E-02   -0.18564E-02 24955   0.203E-01    0.400E-01
RMM:   3    -0.694460903209E+03   -0.84453E-03   -0.36299E-03 24327   0.889E-02    0.315E-01
RMM:   4    -0.694460740489E+03    0.16272E-03   -0.11975E-03 21614   0.567E-02    0.167E-01
RMM:   5    -0.694460722283E+03    0.18206E-04   -0.42493E-04 19518   0.319E-02    0.126E-01
RMM:   6    -0.694460701173E+03    0.21109E-04   -0.21401E-04 17337   0.215E-02    0.892E-02
RMM:   7    -0.694460660733E+03    0.40440E-04   -0.12140E-04 15755   0.174E-02    0.628E-02
RMM:   8    -0.694460612611E+03    0.48122E-04   -0.39556E-05 14346   0.108E-02
  20 F= -.69446061E+03 E0= -.69405961E+03  d E =-.197176E-01  mag=    82.5148
       N       E                     dE             d eps       ncg     rms          rms(c)
DAV:   1    -0.694461494026E+03   -0.83329E-03   -0.90946E-02 28192   0.327E-01    0.173E-01
RMM:   2    -0.694461901368E+03   -0.40734E-03   -0.21431E-03 23653   0.693E-02    0.143E-01
RMM:   3    -0.694461962082E+03   -0.60715E-04   -0.43718E-04 19394   0.312E-02    0.123E-01
RMM:   4    -0.694461916062E+03    0.46020E-04   -0.14518E-04 16222   0.211E-02    0.601E-02
RMM:   5    -0.694461872986E+03    0.43076E-04   -0.49614E-05 14103   0.113E-02    0.475E-02
RMM:   6    -0.694461801166E+03    0.71820E-04   -0.24160E-05 13698   0.800E-03    0.373E-02
RMM:   7    -0.694461736796E+03    0.64369E-04   -0.14437E-05 13126   0.639E-03    0.224E-02
RMM:   8    -0.694461685339E+03    0.51457E-04   -0.52591E-06 12132   0.423E-03
  21 F= -.69446169E+03 E0= -.69406071E+03  d E =-.207903E-01  mag=    82.5127
       N       E                     dE             d eps       ncg     rms          rms(c)
DAV:   1    -0.694475564366E+03   -0.13828E-01   -0.54573E-01 28048   0.819E-01    0.433E-01
RMM:   2    -0.694477958967E+03   -0.23946E-02   -0.10306E-02 24990   0.166E-01    0.281E-01
RMM:   3    -0.694478697636E+03   -0.73867E-03   -0.20733E-03 24397   0.728E-02    0.239E-01
RMM:   4    -0.694478557537E+03    0.14010E-03   -0.74386E-04 21034   0.459E-02    0.128E-01
RMM:   5    -0.694478557106E+03    0.43120E-06   -0.27795E-04 18216   0.258E-02    0.107E-01
RMM:   6    -0.694478479762E+03    0.77344E-04   -0.14356E-04 16216   0.186E-02    0.601E-02
RMM:   7    -0.694478405514E+03    0.74248E-04   -0.76819E-05 15128   0.138E-02    0.470E-02
RMM:   8    -0.694478334894E+03    0.70619E-04   -0.25555E-05 13689   0.867E-03
  22 F= -.69447833E+03 E0= -.69407750E+03  d E =-.166496E-01  mag=    82.5106
       N       E                     dE             d eps       ncg     rms          rms(c)
DAV:   1    -0.694479789947E+03   -0.13844E-02   -0.11442E-01 28384   0.375E-01    0.198E-01
RMM:   2    -0.694480268355E+03   -0.47841E-03   -0.21792E-03 24503   0.759E-02    0.130E-01
RMM:   3    -0.694480395706E+03   -0.12735E-03   -0.43950E-04 19722   0.334E-02    0.112E-01
RMM:   4    -0.694480345522E+03    0.50184E-04   -0.16077E-04 16460   0.223E-02    0.622E-02
RMM:   5    -0.694480308959E+03    0.36563E-04   -0.58668E-05 14713   0.123E-02    0.538E-02
RMM:   6    -0.694480239877E+03    0.69082E-04   -0.28655E-05 13945   0.891E-03    0.306E-02
RMM:   7    -0.694480175223E+03    0.64654E-04   -0.15727E-05 13069   0.640E-03    0.237E-02
RMM:   8    -0.694480121559E+03    0.53665E-04   -0.55396E-06 12222   0.442E-03
  23 F= -.69448012E+03 E0= -.69407936E+03  d E =-.184362E-01  mag=    82.5084
       N       E                     dE             d eps       ncg     rms          rms(c)
DAV:   1    -0.694487140447E+03   -0.69652E-02   -0.34753E-01 27952   0.689E-01    0.286E-01
RMM:   2    -0.694488453726E+03   -0.13133E-02   -0.88772E-03 24898   0.142E-01    0.284E-01
RMM:   3    -0.694488695752E+03   -0.24203E-03   -0.18476E-03 23093   0.670E-02    0.256E-01
RMM:   4    -0.694488487158E+03    0.20859E-03   -0.56040E-04 20193   0.399E-02    0.877E-02
RMM:   5    -0.694488463368E+03    0.23790E-04   -0.17065E-04 16641   0.196E-02    0.815E-02
RMM:   6    -0.694488393836E+03    0.69533E-04   -0.83343E-05 15106   0.142E-02    0.573E-02
RMM:   7    -0.694488323116E+03    0.70720E-04   -0.56017E-05 14294   0.119E-02    0.459E-02
RMM:   8    -0.694488271321E+03    0.51795E-04   -0.22560E-05 13377   0.813E-03
  24 F= -.69448827E+03 E0= -.69408770E+03  d E =-.814976E-02  mag=    82.5065
       N       E                     dE             d eps       ncg     rms          rms(c)
DAV:   1    -0.694488308490E+03    0.14625E-04   -0.32713E-03 27744   0.680E-02    0.319E-02
RMM:   2    -0.694488272592E+03    0.35898E-04   -0.92162E-05 15175   0.148E-02    0.393E-02
RMM:   3    -0.694488261056E+03    0.11536E-04   -0.22607E-05 13574   0.837E-03    0.311E-02
RMM:   4    -0.694488246125E+03    0.14931E-04   -0.58180E-06 11773   0.455E-03    0.138E-02
RMM:   5    -0.694488224309E+03    0.21816E-04   -0.11519E-06  8136   0.246E-03    0.125E-02
RMM:   6    -0.694488198256E+03    0.26053E-04   -0.49931E-07  7076   0.225E-03    0.110E-02
RMM:   7    -0.694488177074E+03    0.21182E-04   -0.50711E-07  7137   0.230E-03    0.104E-02
RMM:   8    -0.694488163958E+03    0.13116E-04   -0.36164E-07  6471   0.219E-03
  25 F= -.69448816E+03 E0= -.69408757E+03  d E =-.804240E-02  mag=    82.5045
       N       E                     dE             d eps       ncg     rms          rms(c)
DAV:   1    -0.694493282828E+03   -0.51058E-02   -0.12137E-01 27632   0.418E-01    0.178E-01
RMM:   2    -0.694493857512E+03   -0.57468E-03   -0.30331E-03 24788   0.857E-02    0.148E-01
RMM:   3    -0.694493893949E+03   -0.36437E-04   -0.54699E-04 20637   0.356E-02    0.109E-01
RMM:   4    -0.694493872353E+03    0.21596E-04   -0.15975E-04 16573   0.226E-02    0.755E-02
RMM:   5    -0.694493840777E+03    0.31576E-04   -0.63108E-05 14987   0.134E-02    0.504E-02
RMM:   6    -0.694493814312E+03    0.26465E-04   -0.29159E-05 14342   0.857E-03    0.404E-02
RMM:   7    -0.694493789360E+03    0.24952E-04   -0.18391E-05 13577   0.735E-03    0.276E-02
RMM:   8    -0.694493778120E+03    0.11240E-04   -0.74884E-06 12487   0.503E-03
  26 F= -.69449378E+03 E0= -.69409336E+03  d E =-.561416E-02  mag=    82.5027
       N       E                     dE             d eps       ncg     rms          rms(c)
DAV:   1    -0.694494274109E+03   -0.48475E-03   -0.28210E-02 28400   0.202E-01    0.862E-02
RMM:   2    -0.694494431688E+03   -0.15758E-03   -0.71811E-04 22130   0.416E-02    0.713E-02
RMM:   3    -0.694494420337E+03    0.11351E-04   -0.13128E-04 15832   0.176E-02    0.536E-02
RMM:   4    -0.694494414935E+03    0.54017E-05   -0.44513E-05 14856   0.123E-02    0.353E-02
RMM:   5    -0.694494402052E+03    0.12883E-04   -0.15270E-05 12659   0.662E-03    0.251E-02
RMM:   6    -0.694494391756E+03    0.10296E-04   -0.77656E-06 12451   0.472E-03    0.213E-02
RMM:   7    -0.694494382968E+03    0.87880E-05   -0.51941E-06 12042   0.413E-03    0.159E-02
RMM:   8    -0.694494381010E+03    0.19586E-05   -0.16238E-06  9923   0.285E-03
  27 F= -.69449438E+03 E0= -.69409406E+03  d E =-.621705E-02  mag=    82.5011
       N       E                     dE             d eps       ncg     rms          rms(c)
DAV:   1    -0.694498593105E+03   -0.42101E-02   -0.43178E-02 28144   0.250E-01    0.125E-01
RMM:   2    -0.694498834169E+03   -0.24106E-03   -0.94150E-04 23940   0.507E-02    0.897E-02
RMM:   3    -0.694498882601E+03   -0.48432E-04   -0.18652E-04 16521   0.222E-02    0.820E-02
RMM:   4    -0.694498862209E+03    0.20392E-04   -0.65474E-05 15012   0.158E-02    0.449E-02
RMM:   5    -0.694498851755E+03    0.10454E-04   -0.23369E-05 14317   0.789E-03    0.325E-02
RMM:   6    -0.694498841124E+03    0.10631E-04   -0.11742E-05 13519   0.604E-03    0.231E-02
RMM:   7    -0.694498840173E+03    0.95088E-06   -0.67538E-06 12650   0.478E-03    0.167E-02
RMM:   8    -0.694498845012E+03   -0.48392E-05   -0.22690E-06 11211   0.318E-03
  28 F= -.69449885E+03 E0= -.69409862E+03  d E =-.446400E-02  mag=    82.4995
       N       E                     dE             d eps       ncg     rms          rms(c)
DAV:   1    -0.694503006853E+03   -0.41667E-02   -0.38875E-01 26208   0.751E-01    0.371E-01
RMM:   2    -0.694504894790E+03   -0.18879E-02   -0.84530E-03 24961   0.152E-01    0.263E-01
RMM:   3    -0.694505391867E+03   -0.49708E-03   -0.16645E-03 25051   0.661E-02    0.215E-01
RMM:   4    -0.694505271972E+03    0.11989E-03   -0.49591E-04 20977   0.398E-02    0.126E-01
RMM:   5    -0.694505232592E+03    0.39380E-04   -0.20094E-04 17323   0.226E-02    0.936E-02
RMM:   6    -0.694505183511E+03    0.49081E-04   -0.96655E-05 15386   0.161E-02    0.702E-02
RMM:   7    -0.694505161106E+03    0.22406E-04   -0.56770E-05 14970   0.130E-02    0.454E-02
RMM:   8    -0.694505160821E+03    0.28498E-06   -0.20557E-05 14218   0.795E-03
  29 F= -.69450516E+03 E0= -.69410520E+03  d E =-.107798E-01  mag=    82.4981
       N       E                     dE             d eps       ncg     rms          rms(c)
DAV:   1    -0.694509987076E+03   -0.48260E-02   -0.10853E-01 28384   0.396E-01    0.160E-01
RMM:   2    -0.694510344731E+03   -0.35765E-03   -0.26916E-03 24736   0.804E-02    0.128E-01
RMM:   3    -0.694510483944E+03   -0.13921E-03   -0.49578E-04 20283   0.347E-02    0.123E-01
RMM:   4    -0.694510445018E+03    0.38926E-04   -0.15132E-04 16366   0.223E-02    0.556E-02
RMM:   5    -0.694510433132E+03    0.11886E-04   -0.54968E-05 14845   0.122E-02    0.479E-02
RMM:   6    -0.694510417789E+03    0.15343E-04   -0.26617E-05 14136   0.857E-03    0.315E-02
RMM:   7    -0.694510412089E+03    0.57006E-05   -0.16347E-05 13208   0.687E-03    0.270E-02
RMM:   8    -0.694510412305E+03   -0.21607E-06   -0.63203E-06 12531   0.465E-03
  30 F= -.69451041E+03 E0= -.69411052E+03  d E =-.525148E-02  mag=    82.4969
       N       E                     dE             d eps       ncg     rms          rms(c)
DAV:   1    -0.694510885273E+03   -0.47318E-03   -0.20566E-02 28304   0.173E-01    0.702E-02
RMM:   2    -0.694510957122E+03   -0.71849E-04   -0.52420E-04 20149   0.353E-02    0.612E-02
RMM:   3    -0.694510989992E+03   -0.32870E-04   -0.99529E-05 15341   0.162E-02    0.637E-02
RMM:   4    -0.694510981929E+03    0.80625E-05   -0.32822E-05 14560   0.107E-02    0.254E-02
RMM:   5    -0.694510984419E+03   -0.24894E-05   -0.96217E-06 12500   0.512E-03    0.225E-02
RMM:   6    -0.694510987655E+03   -0.32363E-05   -0.53053E-06 12094   0.429E-03    0.158E-02
RMM:   7    -0.694510993123E+03   -0.54678E-05   -0.32753E-06 11487   0.345E-03    0.118E-02
RMM:   8    -0.694511000625E+03   -0.75018E-05   -0.96486E-07  8411   0.254E-03
  31 F= -.69451100E+03 E0= -.69411111E+03  d E =-.583980E-02  mag=    82.4958
       N       E                     dE             d eps       ncg     rms          rms(c)
DAV:   1    -0.694515367195E+03   -0.43741E-02   -0.84883E-02 26832   0.359E-01    0.161E-01
RMM:   2    -0.694515713017E+03   -0.34582E-03   -0.19381E-03 24849   0.714E-02    0.113E-01
RMM:   3    -0.694515819108E+03   -0.10609E-03   -0.34180E-04 19385   0.300E-02    0.893E-02
RMM:   4    -0.694515799697E+03    0.19411E-04   -0.10072E-04 15300   0.192E-02    0.589E-02
RMM:   5    -0.694515784577E+03    0.15120E-04   -0.43686E-05 14836   0.116E-02    0.412E-02
RMM:   6    -0.694515773976E+03    0.10601E-04   -0.19993E-05 14171   0.759E-03    0.288E-02
RMM:   7    -0.694515772400E+03    0.15758E-05   -0.11375E-05 13236   0.595E-03    0.248E-02
RMM:   8    -0.694515776435E+03   -0.40345E-05   -0.45000E-06 12397   0.410E-03
  32 F= -.69451578E+03 E0= -.69411594E+03  d E =-.477581E-02  mag=    82.4948
       N       E                     dE             d eps       ncg     rms          rms(c)
DAV:   1    -0.694513975114E+03    0.17973E-02   -0.76285E-01 25536   0.108E+00    0.481E-01
RMM:   2    -0.694517154963E+03   -0.31798E-02   -0.17446E-02 24962   0.214E-01    0.339E-01
RMM:   3    -0.694518017509E+03   -0.86255E-03   -0.31058E-03 25805   0.904E-02    0.267E-01
RMM:   4    -0.694517827534E+03    0.18997E-03   -0.82483E-04 22724   0.512E-02    0.165E-01
RMM:   5    -0.694517754015E+03    0.73520E-04   -0.34959E-04 20206   0.302E-02    0.124E-01
RMM:   6    -0.694517654841E+03    0.99174E-04   -0.15543E-04 16337   0.197E-02    0.920E-02
RMM:   7    -0.694517594743E+03    0.60098E-04   -0.10042E-04 15350   0.171E-02    0.679E-02
RMM:   8    -0.694517570058E+03    0.24685E-04   -0.42489E-05 14935   0.114E-02
  33 F= -.69451757E+03 E0= -.69411785E+03  d E =-.656943E-02  mag=    82.4940
       N       E                     dE             d eps       ncg     rms          rms(c)
DAV:   1    -0.694518998161E+03   -0.14034E-02   -0.15732E-01 27728   0.489E-01    0.219E-01
RMM:   2    -0.694519651451E+03   -0.65329E-03   -0.35766E-03 24959   0.973E-02    0.159E-01
RMM:   3    -0.694519863631E+03   -0.21218E-03   -0.64567E-04 23097   0.416E-02    0.134E-01
RMM:   4    -0.694519824365E+03    0.39265E-04   -0.17579E-04 16746   0.243E-02    0.786E-02
RMM:   5    -0.694519860710E+03   -0.36345E-04   -0.71356E-05 15116   0.148E-02    0.553E-02
RMM:   6    -0.694519904686E+03   -0.43976E-04   -0.33798E-05 14711   0.964E-03    0.378E-02
RMM:   7    -0.694519952631E+03   -0.47944E-04   -0.21151E-05 14064   0.801E-03    0.294E-02
RMM:   8    -0.694519979781E+03   -0.27151E-04   -0.85609E-06 12998   0.540E-03
  34 F= -.69451998E+03 E0= -.69412017E+03  d E =-.897916E-02  mag=    82.4933
       N       E                     dE             d eps       ncg     rms          rms(c)
DAV:   1    -0.694523331374E+03   -0.33787E-02   -0.29763E-02 28048   0.206E-01    0.102E-01
RMM:   2    -0.694523510316E+03   -0.17894E-03   -0.66048E-04 22886   0.424E-02    0.709E-02
RMM:   3    -0.694523547387E+03   -0.37070E-04   -0.11706E-04 15549   0.185E-02    0.628E-02
RMM:   4    -0.694523541102E+03    0.62846E-05   -0.46789E-05 14932   0.135E-02    0.384E-02
RMM:   5    -0.694523548019E+03   -0.69169E-05   -0.15304E-05 13525   0.651E-03    0.246E-02
RMM:   6    -0.694523559229E+03   -0.11209E-04   -0.79886E-06 12957   0.490E-03    0.196E-02
RMM:   7    -0.694523574940E+03   -0.15711E-04   -0.40015E-06 12175   0.391E-03    0.127E-02
RMM:   8    -0.694523589437E+03   -0.14497E-04   -0.11051E-06  9371   0.264E-03
  35 F= -.69452359E+03 E0= -.69412380E+03  d E =-.360966E-02  mag=    82.4926
       N       E                     dE             d eps       ncg     rms          rms(c)
DAV:   1    -0.694527229359E+03   -0.36544E-02   -0.25074E-01 25888   0.598E-01    0.293E-01
RMM:   2    -0.694528465029E+03   -0.12357E-02   -0.55645E-03 24937   0.123E-01    0.196E-01
RMM:   3    -0.694528747079E+03   -0.28205E-03   -0.94995E-04 24133   0.506E-02    0.144E-01
RMM:   4    -0.694528704565E+03    0.42514E-04   -0.27863E-04 18756   0.300E-02    0.103E-01
RMM:   5    -0.694528673154E+03    0.31411E-04   -0.11928E-04 15787   0.191E-02    0.656E-02
RMM:   6    -0.694528662969E+03    0.10185E-04   -0.67556E-05 15120   0.132E-02    0.577E-02
RMM:   7    -0.694528660359E+03    0.26105E-05   -0.31331E-05 14796   0.989E-03    0.356E-02
RMM:   8    -0.694528672045E+03   -0.11686E-04   -0.11659E-05 13517   0.610E-03
  36 F= -.69452867E+03 E0= -.69412894E+03  d E =-.869226E-02  mag=    82.4920
       N       E                     dE             d eps       ncg     rms          rms(c)
DAV:   1    -0.694529028242E+03   -0.36788E-03   -0.27815E-02 28064   0.199E-01    0.979E-02
RMM:   2    -0.694529203101E+03   -0.17486E-03   -0.62665E-04 22679   0.411E-02    0.637E-02
RMM:   3    -0.694529238945E+03   -0.35844E-04   -0.10355E-04 15313   0.168E-02    0.467E-02
RMM:   4    -0.694529240630E+03   -0.16848E-05   -0.36091E-05 14865   0.117E-02    0.350E-02
RMM:   5    -0.694529249950E+03   -0.93207E-05   -0.12711E-05 13545   0.622E-03    0.213E-02
RMM:   6    -0.694529262794E+03   -0.12844E-04   -0.71188E-06 13231   0.459E-03    0.193E-02
RMM:   7    -0.694529278556E+03   -0.15762E-04   -0.35318E-06 12104   0.369E-03    0.127E-02
RMM:   8    -0.694529290744E+03   -0.12188E-04   -0.10554E-06  8989   0.259E-03
  37 F= -.69452929E+03 E0= -.69412955E+03  d E =-.931096E-02  mag=    82.4915
       N       E                     dE             d eps       ncg     rms          rms(c)
DAV:   1    -0.694534257293E+03   -0.49787E-02   -0.63689E-02 27264   0.311E-01    0.120E-01
RMM:   2    -0.694534540148E+03   -0.28286E-03   -0.17600E-03 24587   0.640E-02    0.117E-01
RMM:   3    -0.694534583022E+03   -0.42873E-04   -0.34007E-04 18435   0.300E-02    0.100E-01
RMM:   4    -0.694534564576E+03    0.18446E-04   -0.10488E-04 15639   0.191E-02    0.438E-02
RMM:   5    -0.694534577465E+03   -0.12889E-04   -0.29981E-05 14111   0.893E-03    0.319E-02
RMM:   6    -0.694534597719E+03   -0.20254E-04   -0.13380E-05 13249   0.606E-03    0.247E-02
RMM:   7    -0.694534620712E+03   -0.22992E-04   -0.91552E-06 12622   0.537E-03    0.201E-02
RMM:   8    -0.694534641528E+03   -0.20816E-04   -0.37961E-06 11664   0.374E-03
  38 F= -.69453464E+03 E0= -.69413490E+03  d E =-.535078E-02  mag=    82.4911
       N       E                     dE             d eps       ncg     rms          rms(c)
DAV:   1    -0.694536804287E+03   -0.21836E-02   -0.12706E-01 26528   0.439E-01    0.170E-01
RMM:   2    -0.694537326869E+03   -0.52258E-03   -0.35196E-03 24923   0.904E-02    0.166E-01
RMM:   3    -0.694537418055E+03   -0.91187E-04   -0.67493E-04 21382   0.423E-02    0.139E-01
RMM:   4    -0.694537379181E+03    0.38874E-04   -0.19787E-04 17026   0.251E-02    0.606E-02
RMM:   5    -0.694537391919E+03   -0.12738E-04   -0.60981E-05 14987   0.129E-02    0.465E-02
RMM:   6    -0.694537412169E+03   -0.20251E-04   -0.28119E-05 14134   0.862E-03    0.345E-02
RMM:   7    -0.694537438862E+03   -0.26693E-04   -0.18179E-05 13447   0.736E-03    0.276E-02
RMM:   8    -0.694537461794E+03   -0.22932E-04   -0.79190E-06 12821   0.503E-03
  39 F= -.69453746E+03 E0= -.69413773E+03  d E =-.817105E-02  mag=    82.4908
       N       E                     dE             d eps       ncg     rms          rms(c)
DAV:   1    -0.694543461177E+03   -0.60223E-02   -0.98620E-02 27120   0.391E-01    0.136E-01
RMM:   2    -0.694543800438E+03   -0.33926E-03   -0.22694E-03 24832   0.748E-02    0.107E-01
RMM:   3    -0.694543901311E+03   -0.10087E-03   -0.39983E-04 19385   0.317E-02    0.876E-02
RMM:   4    -0.694543892946E+03    0.83651E-05   -0.11493E-04 15719   0.201E-02    0.586E-02
RMM:   5    -0.694543909271E+03   -0.16325E-04   -0.45800E-05 14676   0.114E-02    0.403E-02
RMM:   6    -0.694543928471E+03   -0.19200E-04   -0.21402E-05 13858   0.757E-03    0.249E-02
RMM:   7    -0.694543957998E+03   -0.29527E-04   -0.11596E-05 13209   0.577E-03    0.229E-02
RMM:   8    -0.694543974793E+03   -0.16795E-04   -0.51118E-06 12379   0.431E-03
  40 F= -.69454397E+03 E0= -.69414417E+03  d E =-.651300E-02  mag=    82.4906
       N       E                     dE             d eps       ncg     rms          rms(c)
DAV:   1    -0.694552362848E+03   -0.84049E-02   -0.88757E-01 25152   0.117E+00    0.405E-01
RMM:   2    -0.694555209867E+03   -0.28470E-02   -0.20209E-02 24960   0.224E-01    0.317E-01
RMM:   3    -0.694555960923E+03   -0.75106E-03   -0.35371E-03 25462   0.936E-02    0.243E-01
RMM:   4    -0.694555848235E+03    0.11269E-03   -0.94682E-04 22532   0.537E-02    0.163E-01
RMM:   5    -0.694555842645E+03    0.55907E-05   -0.38384E-04 19981   0.303E-02    0.113E-01
RMM:   6    -0.694555826446E+03    0.16198E-04   -0.17664E-04 17029   0.201E-02    0.718E-02
RMM:   7    -0.694555857980E+03   -0.31534E-04   -0.99598E-05 15484   0.159E-02    0.643E-02
RMM:   8    -0.694555870325E+03   -0.12346E-04   -0.43994E-05 14777   0.119E-02
  41 F= -.69455587E+03 E0= -.69415586E+03  d E =-.184085E-01  mag=    82.4907
       N       E                     dE             d eps       ncg     rms          rms(c)
DAV:   1    -0.694558339959E+03   -0.24820E-02   -0.11931E-01 27296   0.411E-01    0.128E-01
RMM:   2    -0.694558678801E+03   -0.33884E-03   -0.26883E-03 24505   0.769E-02    0.110E-01
RMM:   3    -0.694558812906E+03   -0.13410E-03   -0.46532E-04 19362   0.317E-02    0.943E-02
RMM:   4    -0.694558805940E+03    0.69663E-05   -0.12308E-04 16019   0.196E-02    0.557E-02
RMM:   5    -0.694558821303E+03   -0.15363E-04   -0.51634E-05 14534   0.117E-02    0.451E-02
RMM:   6    -0.694558842970E+03   -0.21667E-04   -0.22194E-05 13873   0.739E-03    0.215E-02
RMM:   7    -0.694558875396E+03   -0.32426E-04   -0.13121E-05 13326   0.584E-03    0.222E-02
RMM:   8    -0.694558893550E+03   -0.18154E-04   -0.61869E-06 12438   0.454E-03
  42 F= -.69455889E+03 E0= -.69415871E+03  d E =-.302322E-02  mag=    82.4909
       N       E                     dE             d eps       ncg     rms          rms(c)
DAV:   1    -0.694558998008E+03   -0.12261E-03   -0.32366E-03 28288   0.678E-02    0.215E-02
RMM:   2    -0.694559033844E+03   -0.35835E-04   -0.72484E-05 15152   0.128E-02    0.229E-02
RMM:   3    -0.694559047679E+03   -0.13836E-04   -0.12105E-05 13282   0.620E-03    0.176E-02
RMM:   4    -0.694559061475E+03   -0.13796E-04   -0.31308E-06 11066   0.358E-03    0.103E-02
RMM:   5    -0.694559082279E+03   -0.20804E-04   -0.56895E-07  6993   0.220E-03    0.669E-03
RMM:   6    -0.694559113742E+03   -0.31463E-04   -0.15010E-07  5834   0.205E-03    0.428E-03
RMM:   7    -0.694559140274E+03   -0.26532E-04   -0.18424E-07  5920   0.210E-03    0.335E-03
RMM:   8    -0.694559155040E+03   -0.14766E-04   -0.98843E-08  5370   0.204E-03
  43 F= -.69455916E+03 E0= -.69415898E+03  d E =-.328472E-02  mag=    82.4911
       N       E                     dE             d eps       ncg     rms          rms(c)
DAV:   1    -0.694562958320E+03   -0.38180E-02   -0.20217E-02 27456   0.179E-01    0.504E-02
RMM:   2    -0.694563018073E+03   -0.59754E-04   -0.55719E-04 20473   0.341E-02    0.601E-02
RMM:   3    -0.694563027750E+03   -0.96764E-05   -0.89526E-05 14785   0.157E-02    0.365E-02
RMM:   4    -0.694563034939E+03   -0.71889E-05   -0.23587E-05 13261   0.903E-03    0.244E-02
RMM:   5    -0.694563044984E+03   -0.10045E-04   -0.66935E-06 12190   0.459E-03    0.132E-02
RMM:   6    -0.694563058950E+03   -0.13966E-04   -0.22753E-06  9859   0.292E-03    0.113E-02
RMM:   7    -0.694563076912E+03   -0.17962E-04   -0.18261E-06  9824   0.281E-03    0.860E-03
RMM:   8    -0.694563095950E+03   -0.19037E-04   -0.72992E-07  7610   0.239E-03
  44 F= -.69456310E+03 E0= -.69416290E+03  d E =-.394091E-02  mag=    82.4912
       N       E                     dE             d eps       ncg     rms          rms(c)
DAV:   1    -0.694566914110E+03   -0.38372E-02   -0.13807E-01 26480   0.468E-01    0.132E-01
RMM:   2    -0.694567247028E+03   -0.33292E-03   -0.38030E-03 24275   0.894E-02    0.157E-01
RMM:   3    -0.694567263002E+03   -0.15973E-04   -0.61224E-04 22143   0.399E-02    0.906E-02
RMM:   4    -0.694567262433E+03    0.56811E-06   -0.15951E-04 16089   0.217E-02    0.645E-02
RMM:   5    -0.694567256334E+03    0.60992E-05   -0.51925E-05 14167   0.128E-02    0.343E-02
RMM:   6    -0.694567258921E+03   -0.25872E-05   -0.18610E-05 13443   0.666E-03    0.287E-02
RMM:   7    -0.694567264294E+03   -0.53728E-05   -0.14162E-05 12967   0.640E-03    0.239E-02
RMM:   8    -0.694567272518E+03   -0.82236E-05   -0.78890E-06 12599   0.471E-03
  45 F= -.69456727E+03 E0= -.69416704E+03  d E =-.811748E-02  mag=    82.4913
       N       E                     dE             d eps       ncg     rms          rms(c)
DAV:   1    -0.694568660400E+03   -0.13961E-02   -0.98770E-03 28096   0.126E-01    0.380E-02
RMM:   2    -0.694568692296E+03   -0.31896E-04   -0.22948E-04 16359   0.239E-02    0.305E-02
RMM:   3    -0.694568701869E+03   -0.95731E-05   -0.39325E-05 14666   0.114E-02    0.302E-02
RMM:   4    -0.694568701431E+03    0.43772E-06   -0.10621E-05 13084   0.620E-03    0.140E-02
RMM:   5    -0.694568705840E+03   -0.44089E-05   -0.35376E-06 11621   0.341E-03    0.119E-02
RMM:   6    -0.694568710454E+03   -0.46138E-05   -0.15021E-06  9128   0.264E-03    0.758E-03
RMM:   7    -0.694568716713E+03   -0.62594E-05   -0.90958E-07  8216   0.249E-03    0.655E-03
RMM:   8    -0.694568721258E+03   -0.45449E-05   -0.22347E-07  6054   0.222E-03
  46 F= -.69456872E+03 E0= -.69416847E+03  d E =-.144874E-02  mag=    82.4914
       N       E                     dE             d eps       ncg     rms          rms(c)
DAV:   1    -0.694569617774E+03   -0.90106E-03   -0.35632E-02 27280   0.239E-01    0.720E-02
RMM:   2    -0.694569718815E+03   -0.10104E-03   -0.81181E-04 23377   0.454E-02    0.575E-02
RMM:   3    -0.694569747793E+03   -0.28978E-04   -0.15113E-04 15816   0.200E-02    0.627E-02
RMM:   4    -0.694569739413E+03    0.83800E-05   -0.46269E-05 14490   0.132E-02    0.252E-02
RMM:   5    -0.694569741674E+03   -0.22603E-05   -0.12830E-05 12927   0.575E-03    0.217E-02
RMM:   6    -0.694569744140E+03   -0.24661E-05   -0.62986E-06 12100   0.437E-03    0.150E-02
RMM:   7    -0.694569749085E+03   -0.49453E-05   -0.44571E-06 11802   0.378E-03    0.146E-02
RMM:   8    -0.694569752863E+03   -0.37774E-05   -0.18778E-06  9962   0.297E-03
  47 F= -.69456975E+03 E0= -.69416948E+03  d E =-.248034E-02  mag=    82.4915
       N       E                     dE             d eps       ncg     rms          rms(c)
DAV:   1    -0.694570970766E+03   -0.12217E-02   -0.68207E-03 27760   0.101E-01    0.466E-02
RMM:   2    -0.694571003137E+03   -0.32371E-04   -0.16372E-04 15869   0.201E-02    0.355E-02
RMM:   3    -0.694571010756E+03   -0.76191E-05   -0.31429E-05 14682   0.103E-02    0.330E-02
RMM:   4    -0.694571009214E+03    0.15423E-05   -0.10028E-05 12809   0.608E-03    0.147E-02
RMM:   5    -0.694571013541E+03   -0.43269E-05   -0.30466E-06 11083   0.340E-03    0.121E-02
RMM:   6    -0.694571018972E+03   -0.54315E-05   -0.13772E-06  9228   0.274E-03    0.778E-03
RMM:   7    -0.694571024911E+03   -0.59390E-05   -0.55195E-07  7541   0.242E-03    0.467E-03
RMM:   8    -0.694571029164E+03   -0.42524E-05   -0.94546E-08  5501   0.213E-03
  48 F= -.69457103E+03 E0= -.69417072E+03  d E =-.127630E-02  mag=    82.4915
       N       E                     dE             d eps       ncg     rms          rms(c)
DAV:   1    -0.694572856913E+03   -0.18320E-02   -0.61383E-02 26400   0.303E-01    0.139E-01
RMM:   2    -0.694573119810E+03   -0.26290E-03   -0.14125E-03 24416   0.601E-02    0.104E-01
RMM:   3    -0.694573197124E+03   -0.77314E-04   -0.27289E-04 18108   0.278E-02    0.102E-01
RMM:   4    -0.694573162970E+03    0.34153E-04   -0.96702E-05 15229   0.189E-02    0.425E-02
RMM:   5    -0.694573166859E+03   -0.38892E-05   -0.30659E-05 14325   0.932E-03    0.346E-02
RMM:   6    -0.694573167998E+03   -0.11390E-05   -0.14633E-05 13461   0.669E-03    0.227E-02
RMM:   7    -0.694573174550E+03   -0.65519E-05   -0.86161E-06 12970   0.524E-03    0.172E-02
RMM:   8    -0.694573177223E+03   -0.26729E-05   -0.33515E-06 11974   0.361E-03
  49 F= -.69457318E+03 E0= -.69417276E+03  d E =-.342436E-02  mag=    82.4914
       N       E                     dE             d eps       ncg     rms          rms(c)
DAV:   1    -0.694573266719E+03   -0.92168E-04   -0.56140E-03 28192   0.919E-02    0.422E-02
RMM:   2    -0.694573291066E+03   -0.24348E-04   -0.13697E-04 15539   0.184E-02    0.327E-02
RMM:   3    -0.694573296432E+03   -0.53663E-05   -0.26912E-05 14659   0.957E-03    0.324E-02
RMM:   4    -0.694573292528E+03    0.39041E-05   -0.82007E-06 12648   0.555E-03    0.127E-02
RMM:   5    -0.694573293883E+03   -0.13551E-05   -0.22866E-06 10663   0.305E-03    0.113E-02
RMM:   6    -0.694573294849E+03   -0.96578E-06   -0.10040E-06  8894   0.259E-03    0.676E-03
RMM:   7    -0.694573296804E+03   -0.19548E-05   -0.24878E-07  6565   0.230E-03    0.415E-03
RMM:   8    -0.694573297708E+03   -0.90431E-06   -0.12286E-07  5451   0.214E-03
  50 F= -.69457330E+03 E0= -.69417285E+03  d E =-.354485E-02  mag=    82.4913
       N       E                     dE             d eps       ncg     rms          rms(c)
DAV:   1    -0.694574693890E+03   -0.13971E-02   -0.25739E-02 27488   0.203E-01    0.770E-02
RMM:   2    -0.694574765347E+03   -0.71457E-04   -0.61803E-04 22908   0.394E-02    0.602E-02
RMM:   3    -0.694574789270E+03   -0.23923E-04   -0.10478E-04 15079   0.167E-02    0.412E-02
RMM:   4    -0.694574789564E+03   -0.29430E-06   -0.30283E-05 14432   0.109E-02    0.301E-02
RMM:   5    -0.694574791822E+03   -0.22575E-05   -0.90855E-06 12669   0.535E-03    0.167E-02
RMM:   6    -0.694574796252E+03   -0.44303E-05   -0.51077E-06 12244   0.400E-03    0.161E-02
RMM:   7    -0.694574799206E+03   -0.29542E-05   -0.29791E-06 11835   0.336E-03    0.103E-02
RMM:   8    -0.694574799573E+03   -0.36694E-06   -0.84202E-07  8559   0.251E-03
  51 F= -.69457480E+03 E0= -.69417434E+03  d E =-.150186E-02  mag=    82.4912
       N       E                     dE             d eps       ncg     rms          rms(c)
DAV:   1    -0.694575044583E+03   -0.24538E-03   -0.12124E-02 27840   0.140E-01    0.530E-02
RMM:   2    -0.694575073646E+03   -0.29064E-04   -0.30027E-04 17955   0.272E-02    0.413E-02
RMM:   3    -0.694575084682E+03   -0.11035E-04   -0.49278E-05 14722   0.124E-02    0.265E-02
RMM:   4    -0.694575085911E+03   -0.12293E-05   -0.13683E-05 13555   0.704E-03    0.216E-02
RMM:   5    -0.694575086776E+03   -0.86520E-06   -0.48812E-06 11842   0.419E-03    0.123E-02
RMM:   6    -0.694575089261E+03   -0.24848E-05   -0.23094E-06  9974   0.303E-03    0.106E-02
RMM:   7    -0.694575090607E+03   -0.13458E-05   -0.12592E-06  9416   0.268E-03    0.603E-03
RMM:   8    -0.694575090944E+03   -0.33714E-06   -0.17204E-07  5967   0.219E-03
  52 F= -.69457509E+03 E0= -.69417462E+03  d E =-.179324E-02  mag=    82.4911
       N       E                     dE             d eps       ncg     rms          rms(c)
DAV:   1    -0.694575579911E+03   -0.48930E-03   -0.10250E-02 27904   0.128E-01    0.477E-02
RMM:   2    -0.694575607251E+03   -0.27341E-04   -0.25861E-04 17104   0.256E-02    0.364E-02
RMM:   3    -0.694575617093E+03   -0.98413E-05   -0.42091E-05 14670   0.117E-02    0.284E-02
RMM:   4    -0.694575615225E+03    0.18673E-05   -0.11886E-05 13196   0.654E-03    0.169E-02
RMM:   5    -0.694575615194E+03    0.31665E-07   -0.42062E-06 11646   0.390E-03    0.124E-02
RMM:   6    -0.694575615220E+03   -0.26077E-07   -0.16853E-06  9102   0.279E-03    0.793E-03
RMM:   7    -0.694575615522E+03   -0.30175E-06   -0.95298E-07  8326   0.257E-03    0.575E-03
RMM:   8    -0.694575615878E+03   -0.35670E-06   -0.15235E-07  5600   0.221E-03
  53 F= -.69457562E+03 E0= -.69417509E+03  d E =-.524934E-03  mag=    82.4910
       N       E                     dE             d eps       ncg     rms          rms(c)
DAV:   1    -0.694575713738E+03   -0.98216E-04   -0.70738E-03 28048   0.106E-01    0.398E-02
RMM:   2    -0.694575733078E+03   -0.19340E-04   -0.18125E-04 15860   0.214E-02    0.317E-02
RMM:   3    -0.694575741459E+03   -0.83810E-05   -0.30233E-05 14548   0.101E-02    0.265E-02
RMM:   4    -0.694575740188E+03    0.12703E-05   -0.83793E-06 12686   0.552E-03    0.143E-02
RMM:   5    -0.694575741546E+03   -0.13579E-05   -0.28146E-06 11017   0.328E-03    0.104E-02
RMM:   6    -0.694575743106E+03   -0.15600E-05   -0.80382E-07  7517   0.241E-03    0.630E-03
RMM:   7    -0.694575745568E+03   -0.24615E-05   -0.30991E-07  6338   0.230E-03    0.448E-03
RMM:   8    -0.694575747038E+03   -0.14706E-05   -0.71737E-08  4898   0.217E-03
  54 F= -.69457575E+03 E0= -.69417518E+03  d E =-.656094E-03  mag=    82.4910
       N       E                     dE             d eps       ncg     rms          rms(c)
DAV:   1    -0.694576156204E+03   -0.41064E-03   -0.10416E-02 27072   0.122E-01    0.643E-02
RMM:   2    -0.694576219078E+03   -0.62875E-04   -0.26187E-04 17390   0.254E-02    0.478E-02
RMM:   3    -0.694576230271E+03   -0.11193E-04   -0.46025E-05 14797   0.123E-02    0.386E-02
RMM:   4    -0.694576225813E+03    0.44573E-05   -0.15059E-05 13997   0.746E-03    0.205E-02
RMM:   5    -0.694576227829E+03   -0.20154E-05   -0.49702E-06 12024   0.411E-03    0.152E-02
RMM:   6    -0.694576229056E+03   -0.12275E-05   -0.24825E-06 11155   0.316E-03    0.106E-02
RMM:   7    -0.694576231154E+03   -0.20973E-05   -0.12121E-06  9529   0.265E-03    0.564E-03
RMM:   8    -0.694576232239E+03   -0.10850E-05   -0.77731E-08  5386   0.214E-03
  55 F= -.69457623E+03 E0= -.69417564E+03  d E =-.485200E-03  mag=    82.4909
       N       E                     dE             d eps       ncg     rms          rms(c)
DAV:   1    -0.694576359230E+03   -0.12808E-03   -0.25253E-02 26608   0.190E-01    0.100E-01
RMM:   2    -0.694576500789E+03   -0.14156E-03   -0.62135E-04 23030   0.392E-02    0.729E-02
RMM:   3    -0.694576527540E+03   -0.26750E-04   -0.10533E-04 15198   0.173E-02    0.585E-02
RMM:   4    -0.694576517521E+03    0.10018E-04   -0.40377E-05 14684   0.123E-02    0.323E-02
RMM:   5    -0.694576517032E+03    0.48894E-06   -0.13149E-05 13165   0.621E-03    0.225E-02
RMM:   6    -0.694576515315E+03    0.17174E-05   -0.68079E-06 12898   0.467E-03    0.163E-02
RMM:   7    -0.694576515567E+03   -0.25239E-06   -0.38487E-06 12287   0.367E-03    0.991E-03
RMM:   8    -0.694576515557E+03    0.10245E-07   -0.11389E-06  9438   0.262E-03
  56 F= -.69457652E+03 E0= -.69417589E+03  d E =-.768519E-03  mag=    82.4909
       N       E                     dE             d eps       ncg     rms          rms(c)
DAV:   1    -0.694576822020E+03   -0.30645E-03   -0.42595E-03 28304   0.755E-02    0.429E-02
RMM:   2    -0.694576848808E+03   -0.26788E-04   -0.10718E-04 15359   0.158E-02    0.307E-02
RMM:   3    -0.694576851803E+03   -0.29951E-05   -0.18734E-05 14486   0.800E-03    0.224E-02
RMM:   4    -0.694576850494E+03    0.13085E-05   -0.56994E-06 11947   0.472E-03    0.129E-02
RMM:   5    -0.694576850322E+03    0.17229E-06   -0.17523E-06  9893   0.291E-03    0.943E-03
RMM:   6    -0.694576849824E+03    0.49826E-06   -0.60881E-07  7341   0.239E-03    0.655E-03
RMM:   7    -0.694576849830E+03   -0.65193E-08   -0.26370E-07  6191   0.224E-03    0.336E-03
RMM:   8    -0.694576850150E+03   -0.31944E-06   -0.88548E-08  4737   0.209E-03
  57 F= -.69457685E+03 E0= -.69417623E+03  d E =-.334593E-03  mag=    82.4910
       N       E                     dE             d eps       ncg     rms          rms(c)
DAV:   1    -0.694577301078E+03   -0.45125E-03   -0.38401E-02 26016   0.226E-01    0.128E-01
RMM:   2    -0.694577519818E+03   -0.21874E-03   -0.91540E-04 23823   0.467E-02    0.889E-02
RMM:   3    -0.694577555696E+03   -0.35877E-04   -0.14290E-04 15721   0.201E-02    0.598E-02
RMM:   4    -0.694577546003E+03    0.96923E-05   -0.52691E-05 14806   0.141E-02    0.385E-02
RMM:   5    -0.694577539673E+03    0.63302E-05   -0.18757E-05 13835   0.748E-03    0.250E-02
RMM:   6    -0.694577532433E+03    0.72401E-05   -0.10497E-05 13424   0.557E-03    0.194E-02
RMM:   7    -0.694577528203E+03    0.42301E-05   -0.56680E-06 12546   0.436E-03    0.128E-02
RMM:   8    -0.694577525787E+03    0.24159E-05   -0.19161E-06 10477   0.301E-03
  58 F= -.69457753E+03 E0= -.69417691E+03  d E =-.101023E-02  mag=    82.4910
       N       E                     dE             d eps       ncg     rms          rms(c)
DAV:   1    -0.694576445607E+03    0.10826E-02   -0.15352E-01 25568   0.453E-01    0.256E-01
RMM:   2    -0.694577299846E+03   -0.85424E-03   -0.36442E-03 24829   0.932E-02    0.178E-01
RMM:   3    -0.694577457431E+03   -0.15758E-03   -0.56146E-04 22450   0.402E-02    0.115E-01
RMM:   4    -0.694577418664E+03    0.38766E-04   -0.18674E-04 16917   0.246E-02    0.775E-02
RMM:   5    -0.694577393480E+03    0.25185E-04   -0.76317E-05 15185   0.157E-02    0.525E-02
RMM:   6    -0.694577370083E+03    0.23397E-04   -0.42068E-05 14815   0.108E-02    0.418E-02
RMM:   7    -0.694577354294E+03    0.15789E-04   -0.23692E-05 14477   0.853E-03    0.257E-02
RMM:   8    -0.694577343510E+03    0.10784E-04   -0.85001E-06 13215   0.527E-03
  59 F= -.69457734E+03 E0= -.69417672E+03  d E =-.827953E-03  mag=    82.4912
       N       E                     dE             d eps       ncg     rms          rms(c)
DAV:   1    -0.694577353762E+03    0.53272E-06   -0.46369E-02 27824   0.249E-01    0.140E-01
RMM:   2    -0.694577587274E+03   -0.23351E-03   -0.10832E-03 24109   0.510E-02    0.990E-02
RMM:   3    -0.694577639665E+03   -0.52391E-04   -0.17248E-04 16163   0.222E-02    0.706E-02
RMM:   4    -0.694577630727E+03    0.89379E-05   -0.65102E-05 14820   0.158E-02    0.447E-02
RMM:   5    -0.694577629593E+03    0.11334E-05   -0.23120E-05 14014   0.831E-03    0.308E-02
RMM:   6    -0.694577633987E+03   -0.43940E-05   -0.12169E-05 13459   0.607E-03    0.231E-02
RMM:   7    -0.694577638837E+03   -0.48494E-05   -0.71151E-06 12912   0.479E-03    0.144E-02
RMM:   8    -0.694577642730E+03   -0.38939E-05   -0.23488E-06 11356   0.318E-03
  60 F= -.69457764E+03 E0= -.69417703E+03  d E =-.112717E-02  mag=    82.4914
       N       E                     dE             d eps       ncg     rms          rms(c)
DAV:   1    -0.694578069884E+03   -0.43105E-03   -0.19216E-02 27936   0.159E-01    0.901E-02
RMM:   2    -0.694578169639E+03   -0.99755E-04   -0.45470E-04 20397   0.327E-02    0.646E-02
RMM:   3    -0.694578197834E+03   -0.28195E-04   -0.77274E-05 15015   0.157E-02    0.535E-02
RMM:   4    -0.694578189107E+03    0.87274E-05   -0.29702E-05 14463   0.105E-02    0.267E-02
RMM:   5    -0.694578189916E+03   -0.80932E-06   -0.87333E-06 12553   0.516E-03    0.198E-02
RMM:   6    -0.694578189930E+03   -0.13970E-07   -0.45930E-06 12092   0.392E-03    0.141E-02
RMM:   7    -0.694578191352E+03   -0.14221E-05   -0.28265E-06 11786   0.326E-03    0.866E-03
RMM:   8    -0.694578191657E+03   -0.30454E-06   -0.34378E-07  6876   0.229E-03
  61 F= -.69457819E+03 E0= -.69417754E+03  d E =-.548926E-03  mag=    82.4915
       N       E                     dE             d eps       ncg     rms          rms(c)
DAV:   1    -0.694578218301E+03   -0.26949E-04   -0.50852E-02 26352   0.259E-01    0.147E-01
RMM:   2    -0.694578482521E+03   -0.26422E-03   -0.12167E-03 24278   0.533E-02    0.103E-01
RMM:   3    -0.694578548467E+03   -0.65946E-04   -0.19250E-04 16580   0.236E-02    0.791E-02
RMM:   4    -0.694578529805E+03    0.18662E-04   -0.76336E-05 15034   0.170E-02    0.455E-02
RMM:   5    -0.694578524093E+03    0.57118E-05   -0.25551E-05 14297   0.861E-03    0.315E-02
RMM:   6    -0.694578517295E+03    0.67977E-05   -0.13195E-05 13686   0.628E-03    0.235E-02
RMM:   7    -0.694578513378E+03    0.39171E-05   -0.75473E-06 12966   0.491E-03    0.139E-02
[...]
RMM:   8    -0.694581234960E+03   -0.31441E-05   -0.63063E-08  5296   0.208E-03
  76 F= -.69458123E+03 E0= -.69418054E+03  d E =-.280054E-03  mag=    82.4960
       N       E                     dE             d eps       ncg     rms          rms(c)
DAV:   1    -0.694581367307E+03   -0.13549E-03   -0.76133E-03 27232   0.106E-01    0.526E-02
RMM:   2    -0.694581405121E+03   -0.37814E-04   -0.19592E-04 16321   0.216E-02    0.334E-02
RMM:   3    -0.694581418814E+03   -0.13693E-04   -0.27181E-05 14798   0.952E-03    0.261E-02
RMM:   4    -0.694581419662E+03   -0.84750E-06   -0.78179E-06 13633   0.544E-03    0.176E-02
RMM:   5    -0.694581422519E+03   -0.28573E-05   -0.33154E-06 11779   0.352E-03    0.141E-02
RMM:   6    -0.694581426997E+03   -0.44778E-05   -0.13119E-06  9455   0.269E-03    0.679E-03
RMM:   7    -0.694581431175E+03   -0.41779E-05   -0.35032E-07  6905   0.233E-03    0.565E-03
RMM:   8    -0.694581434033E+03   -0.28582E-05   -0.30742E-08  5067   0.206E-03
  77 F= -.69458143E+03 E0= -.69418075E+03  d E =-.199073E-03  mag=    82.4963
       N       E                     dE             d eps       ncg     rms          rms(c)
DAV:   1    -0.694581449959E+03   -0.18785E-04   -0.86596E-03 27280   0.113E-01    0.560E-02
RMM:   2    -0.694581491467E+03   -0.41507E-04   -0.22232E-04 16641   0.229E-02    0.351E-02
RMM:   3    -0.694581506483E+03   -0.15017E-04   -0.30261E-05 14817   0.999E-03    0.252E-02
RMM:   4    -0.694581507211E+03   -0.72736E-06   -0.85655E-06 13809   0.561E-03    0.180E-02
RMM:   5    -0.694581509450E+03   -0.22398E-05   -0.35940E-06 11885   0.369E-03    0.142E-02
RMM:   6    -0.694581513113E+03   -0.36629E-05   -0.16610E-06 10141   0.280E-03    0.767E-03
RMM:   7    -0.694581516199E+03   -0.30855E-05   -0.45655E-07  7251   0.236E-03    0.652E-03
RMM:   8    -0.694581518528E+03   -0.23292E-05   -0.18683E-08  5020   0.205E-03
  78 F= -.69458152E+03 E0= -.69418084E+03  d E =-.283568E-03  mag=    82.4966
       N       E                     dE             d eps       ncg     rms          rms(c)
DAV:   1    -0.694581609737E+03   -0.93538E-04   -0.82613E-03 27552   0.109E-01    0.561E-02
RMM:   2    -0.694581650013E+03   -0.40276E-04   -0.20861E-04 16521   0.224E-02    0.343E-02
RMM:   3    -0.694581664166E+03   -0.14153E-04   -0.28356E-05 14822   0.986E-03    0.266E-02
RMM:   4    -0.694581663751E+03    0.41537E-06   -0.84369E-06 13741   0.573E-03    0.185E-02
RMM:   5    -0.694581662253E+03    0.14976E-05   -0.34209E-06 11996   0.355E-03    0.141E-02
RMM:   6    -0.694581661774E+03    0.47963E-06   -0.15106E-06 10145   0.274E-03    0.826E-03
RMM:   7    -0.694581661375E+03    0.39861E-06   -0.44080E-07  7474   0.241E-03    0.495E-03
RMM:   8    -0.694581661758E+03   -0.38277E-06   -0.21480E-08  5137   0.206E-03
  79 F= -.69458166E+03 E0= -.69418099E+03  d E =-.143230E-03  mag=    82.4970
       N       E                     dE             d eps       ncg     rms          rms(c)
DAV:   1    -0.694581664487E+03   -0.31115E-05   -0.43173E-03 27776   0.788E-02    0.406E-02
RMM:   2    -0.694581684811E+03   -0.20324E-04   -0.11107E-04 15516   0.163E-02    0.252E-02
RMM:   3    -0.694581691268E+03   -0.64569E-05   -0.14846E-05 14666   0.713E-03    0.180E-02
RMM:   4    -0.694581691047E+03    0.22072E-06   -0.41393E-06 12434   0.407E-03    0.137E-02
RMM:   5    -0.694581689361E+03    0.16857E-05   -0.14625E-06 10340   0.278E-03    0.974E-03
RMM:   6    -0.694581688867E+03    0.49453E-06   -0.33221E-07  6840   0.227E-03    0.620E-03
RMM:   7    -0.694581688025E+03    0.84192E-06   -0.64900E-08  5408   0.215E-03    0.445E-03
RMM:   8    -0.694581688302E+03   -0.27660E-06   -0.25887E-08  4891   0.206E-03
  80 F= -.69458169E+03 E0= -.69418101E+03  d E =-.169774E-03  mag=    82.4974
       N       E                     dE             d eps       ncg     rms          rms(c)
DAV:   1    -0.694581789476E+03   -0.10145E-03   -0.65070E-03 27264   0.938E-02    0.521E-02
RMM:   2    -0.694581818320E+03   -0.28844E-04   -0.16252E-04 16107   0.196E-02    0.323E-02
RMM:   3    -0.694581829466E+03   -0.11146E-04   -0.22765E-05 14795   0.858E-03    0.249E-02
RMM:   4    -0.694581827883E+03    0.15832E-05   -0.65639E-06 13410   0.506E-03    0.176E-02
RMM:   5    -0.694581823668E+03    0.42142E-05   -0.26850E-06 11652   0.322E-03    0.134E-02
RMM:   6    -0.694581820674E+03    0.29942E-05   -0.10639E-06  9085   0.256E-03    0.719E-03
RMM:   7    -0.694581818542E+03    0.21327E-05   -0.28015E-07  6752   0.230E-03    0.479E-03
RMM:   8    -0.694581818013E+03    0.52899E-06   -0.16201E-08  5060   0.205E-03
  81 F= -.69458182E+03 E0= -.69418114E+03  d E =-.129711E-03  mag=    82.4978
       N       E                     dE             d eps       ncg     rms          rms(c)
DAV:   1    -0.694581709626E+03    0.10892E-03   -0.35009E-02 26800   0.217E-01    0.121E-01
RMM:   2    -0.694581863050E+03   -0.15342E-03   -0.84916E-04 23194   0.450E-02    0.724E-02
RMM:   3    -0.694581926469E+03   -0.63418E-04   -0.11782E-04 15550   0.177E-02    0.516E-02
RMM:   4    -0.694581918813E+03    0.76555E-05   -0.38546E-05 14893   0.119E-02    0.411E-02
RMM:   5    -0.694581901768E+03    0.17045E-04   -0.16167E-05 14224   0.711E-03    0.297E-02
RMM:   6    -0.694581887112E+03    0.14656E-04   -0.91766E-06 13480   0.526E-03    0.179E-02
RMM:   7    -0.694581875294E+03    0.11818E-04   -0.46448E-06 12560   0.401E-03    0.143E-02
RMM:   8    -0.694581869835E+03    0.54594E-05   -0.15683E-06 11002   0.285E-03
  82 F= -.69458187E+03 E0= -.69418118E+03  d E =-.181533E-03  mag=    82.4983
       N       E                     dE             d eps       ncg     rms          rms(c)
DAV:   1    -0.694581941796E+03   -0.66501E-04   -0.74741E-03 28704   0.100E-01    0.562E-02
RMM:   2    -0.694581965390E+03   -0.23594E-04   -0.18120E-04 16324   0.206E-02    0.318E-02
RMM:   3    -0.694581976255E+03   -0.10866E-04   -0.22137E-05 14752   0.854E-03    0.192E-02
RMM:   4    -0.694581971279E+03    0.49761E-05   -0.69496E-06 13367   0.504E-03    0.191E-02
RMM:   5    -0.694581960720E+03    0.10559E-04   -0.34537E-06 11899   0.378E-03    0.121E-02
RMM:   6    -0.694581953163E+03    0.75568E-05   -0.14404E-06  9268   0.272E-03    0.753E-03
RMM:   7    -0.694581947342E+03    0.58208E-05   -0.41762E-07  7006   0.238E-03    0.515E-03
RMM:   8    -0.694581945454E+03    0.18887E-05   -0.97447E-09  5002   0.203E-03
  83 F= -.69458195E+03 E0= -.69418125E+03  d E =-.756187E-04  mag=    82.4989
       N       E                     dE             d eps       ncg     rms          rms(c)
DAV:   1    -0.694581910656E+03    0.36687E-04   -0.15105E-02 27664   0.142E-01    0.796E-02
RMM:   2    -0.694581968462E+03   -0.57806E-04   -0.36090E-04 18323   0.292E-02    0.453E-02
RMM:   3    -0.694581996299E+03   -0.27837E-04   -0.45915E-05 14929   0.120E-02    0.316E-02
RMM:   4    -0.694581992079E+03    0.42208E-05   -0.14792E-05 14465   0.741E-03    0.273E-02
RMM:   5    -0.694581977975E+03    0.14104E-04   -0.64192E-06 12659   0.471E-03    0.180E-02
RMM:   6    -0.694581968536E+03    0.94390E-05   -0.35267E-06 11966   0.346E-03    0.109E-02
RMM:   7    -0.694581961020E+03    0.75158E-05   -0.15020E-06 10416   0.282E-03    0.823E-03
RMM:   8    -0.694581958067E+03    0.29532E-05   -0.64218E-08  5841   0.211E-03
  84 F= -.69458196E+03 E0= -.69418125E+03  d E =-.882316E-04  mag=    82.4995
       N       E                     dE             d eps       ncg     rms          rms(c)
DAV:   1    -0.694582034296E+03   -0.73276E-04   -0.34743E-03 27952   0.715E-02    0.360E-02
RMM:   2    -0.694582043085E+03   -0.87889E-05   -0.84397E-05 15232   0.148E-02    0.212E-02
RMM:   3    -0.694582048672E+03   -0.55870E-05   -0.11216E-05 14471   0.653E-03    0.177E-02
RMM:   4    -0.694582047353E+03    0.13188E-05   -0.32287E-06 11815   0.369E-03    0.107E-02
RMM:   5    -0.694582043651E+03    0.37020E-05   -0.77873E-07  8240   0.247E-03    0.793E-03
RMM:   6    -0.694582042185E+03    0.14668E-05   -0.22211E-07  6247   0.219E-03    0.571E-03
RMM:   7    -0.694582041007E+03    0.11781E-05   -0.37328E-08  5035   0.205E-03    0.422E-03
RMM:   8    -0.694582041350E+03   -0.34366E-06   -0.25589E-08  4848   0.204E-03
  85 F= -.69458204E+03 E0= -.69418133E+03  d E =-.832835E-04  mag=    82.5001
       N       E                     dE             d eps       ncg     rms          rms(c)
DAV:   1    -0.694582052729E+03   -0.11723E-04   -0.26585E-03 27664   0.626E-02    0.315E-02
RMM:   2    -0.694582062440E+03   -0.97109E-05   -0.65226E-05 15066   0.130E-02    0.186E-02
RMM:   3    -0.694582068495E+03   -0.60545E-05   -0.83581E-06 14346   0.562E-03    0.137E-02
RMM:   4    -0.694582068383E+03    0.11176E-06   -0.22783E-06 11059   0.317E-03    0.928E-03
RMM:   5    -0.694582068503E+03   -0.12014E-06   -0.33465E-07  7000   0.225E-03    0.576E-03
RMM:   6    -0.694582070007E+03   -0.15041E-05   -0.19863E-08  5016   0.197E-03    0.503E-03
RMM:   7    -0.694582071313E+03   -0.13057E-05   -0.28183E-08  4812   0.199E-03    0.418E-03
RMM:   8    -0.694582072921E+03   -0.16084E-05   -0.31023E-08  4723   0.201E-03
  86 F= -.69458207E+03 E0= -.69418136E+03  d E =-.114854E-03  mag=    82.5007
       N       E                     dE             d eps       ncg     rms          rms(c)
DAV:   1    -0.694582152690E+03   -0.81377E-04   -0.28673E-03 27808   0.644E-02    0.334E-02
RMM:   2    -0.694582163213E+03   -0.10523E-04   -0.66854E-05 15055   0.132E-02    0.204E-02
RMM:   3    -0.694582171129E+03   -0.79162E-05   -0.98776E-06 14334   0.603E-03    0.157E-02
RMM:   4    -0.694582171162E+03   -0.32596E-07   -0.27963E-06 11624   0.347E-03    0.923E-03
RMM:   5    -0.694582172558E+03   -0.13961E-05   -0.70273E-07  8048   0.242E-03    0.727E-03
RMM:   6    -0.694582175379E+03   -0.28210E-05   -0.20321E-07  6043   0.209E-03    0.530E-03
RMM:   7    -0.694582177684E+03   -0.23050E-05   -0.22385E-08  4977   0.198E-03    0.397E-03
RMM:   8    -0.694582180355E+03   -0.26710E-05   -0.19606E-08  4730   0.198E-03
  87 F= -.69458218E+03 E0= -.69418148E+03  d E =-.107434E-03  mag=    82.5012
       N       E                     dE             d eps       ncg     rms          rms(c)
DAV:   1    -0.694582194133E+03   -0.16449E-04   -0.55200E-03 27632   0.893E-02    0.464E-02
RMM:   2    -0.694582214032E+03   -0.19900E-04   -0.12738E-04 15596   0.181E-02    0.282E-02
RMM:   3    -0.694582228527E+03   -0.14495E-04   -0.18932E-05 14601   0.820E-03    0.212E-02
RMM:   4    -0.694582227906E+03    0.62119E-06   -0.54120E-06 12740   0.465E-03    0.126E-02
RMM:   5    -0.694582228666E+03   -0.75996E-06   -0.21746E-06 10849   0.312E-03    0.109E-02
RMM:   6    -0.694582230909E+03   -0.22426E-05   -0.73932E-07  7872   0.244E-03    0.638E-03
RMM:   7    -0.694582233134E+03   -0.22249E-05   -0.16956E-07  6084   0.222E-03    0.458E-03
RMM:   8    -0.694582235760E+03   -0.26263E-05   -0.98017E-09  4811   0.204E-03
  88 F= -.69458224E+03 E0= -.69418155E+03  d E =-.162839E-03  mag=    82.5018
       N       E                     dE             d eps       ncg     rms          rms(c)
DAV:   1    -0.694582293179E+03   -0.60045E-04   -0.16171E-03 26944   0.462E-02    0.269E-02
RMM:   2    -0.694582301836E+03   -0.86566E-05   -0.36173E-05 14829   0.979E-03    0.161E-02
RMM:   3    -0.694582308463E+03   -0.66273E-05   -0.53707E-06 13511   0.444E-03    0.140E-02
RMM:   4    -0.694582309484E+03   -0.10207E-05   -0.13714E-06  9748   0.280E-03    0.684E-03
RMM:   5    -0.694582313004E+03   -0.35204E-05   -0.65657E-08  5391   0.202E-03    0.625E-03
RMM:   6    -0.694582317716E+03   -0.47125E-05   -0.25758E-08  5026   0.192E-03    0.423E-03
RMM:   7    -0.694582321614E+03   -0.38976E-05   -0.23285E-08  4838   0.189E-03    0.312E-03
RMM:   8    -0.694582325329E+03   -0.37150E-05   -0.86638E-09  4617   0.194E-03
  89 F= -.69458233E+03 E0= -.69418164E+03  d E =-.895690E-04  mag=    82.5023
       N       E                     dE             d eps       ncg     rms          rms(c)
DAV:   1    -0.694582345309E+03   -0.23695E-04   -0.14547E-02 26768   0.138E-01    0.800E-02
RMM:   2    -0.694582404564E+03   -0.59255E-04   -0.30462E-04 18030   0.279E-02    0.451E-02
RMM:   3    -0.694582444259E+03   -0.39695E-04   -0.40671E-05 14848   0.116E-02    0.290E-02
RMM:   4    -0.694582443211E+03    0.10477E-05   -0.13531E-05 14112   0.714E-03    0.222E-02
RMM:   5    -0.694582443138E+03    0.73574E-07   -0.54311E-06 12249   0.446E-03    0.142E-02
RMM:   6    -0.694582444957E+03   -0.18189E-05   -0.29114E-06 11693   0.324E-03    0.876E-03
RMM:   7    -0.694582447241E+03   -0.22845E-05   -0.72864E-07  8151   0.250E-03    0.625E-03
RMM:   8    -0.694582449174E+03   -0.19334E-05   -0.37040E-08  5320   0.209E-03
  90 F= -.69458245E+03 E0= -.69418177E+03  d E =-.213414E-03  mag=    82.5028
       N       E                     dE             d eps       ncg     rms          rms(c)
DAV:   1    -0.694582447528E+03   -0.28685E-06   -0.21254E-03 27632   0.530E-02    0.308E-02
RMM:   2    -0.694582458127E+03   -0.10599E-04   -0.47174E-05 14916   0.110E-02    0.178E-02
RMM:   3    -0.694582466102E+03   -0.79749E-05   -0.63184E-06 13800   0.469E-03    0.132E-02
RMM:   4    -0.694582467606E+03   -0.15041E-05   -0.14344E-06  9882   0.280E-03    0.887E-03
RMM:   5    -0.694582470651E+03   -0.30445E-05   -0.13767E-07  6060   0.214E-03    0.667E-03
RMM:   6    -0.694582475220E+03   -0.45691E-05   -0.44019E-08  5077   0.204E-03    0.421E-03
RMM:   7    -0.694582479226E+03   -0.40065E-05   -0.21462E-08  4907   0.199E-03    0.310E-03
RMM:   8    -0.694582482899E+03   -0.36722E-05   -0.20714E-08  4693   0.204E-03
  91 F= -.69458248E+03 E0= -.69418181E+03  d E =-.247139E-03  mag=    82.5033
       N       E                     dE             d eps       ncg     rms          rms(c)
DAV:   1    -0.694582561915E+03   -0.82688E-04   -0.42992E-03 27568   0.771E-02    0.415E-02
RMM:   2    -0.694582581504E+03   -0.19589E-04   -0.91769E-05 15252   0.156E-02    0.249E-02
RMM:   3    -0.694582595391E+03   -0.13887E-04   -0.13650E-05 14516   0.707E-03    0.186E-02
RMM:   4    -0.694582595852E+03   -0.46100E-06   -0.42198E-06 12001   0.411E-03    0.116E-02
RMM:   5    -0.694582599064E+03   -0.32121E-05   -0.13752E-06  9618   0.273E-03    0.790E-03
RMM:   6    -0.694582602588E+03   -0.35241E-05   -0.39256E-07  6777   0.226E-03    0.542E-03
RMM:   7    -0.694582606459E+03   -0.38706E-05   -0.10445E-07  5572   0.209E-03    0.383E-03
RMM:   8    -0.694582609017E+03   -0.25583E-05   -0.11431E-08  4634   0.199E-03
  92 F= -.69458261E+03 E0= -.69418192E+03  d E =-.126119E-03  mag=    82.5038
       N       E                     dE             d eps       ncg     rms          rms(c)
DAV:   1    -0.694582621057E+03   -0.14598E-04   -0.42846E-03 27792   0.770E-02    0.415E-02
RMM:   2    -0.694582640080E+03   -0.19023E-04   -0.91957E-05 15263   0.156E-02    0.253E-02
RMM:   3    -0.694582654448E+03   -0.14368E-04   -0.14068E-05 14553   0.716E-03    0.201E-02
RMM:   4    -0.694582654275E+03    0.17323E-06   -0.43575E-06 11980   0.418E-03    0.119E-02
RMM:   5    -0.694582657608E+03   -0.33332E-05   -0.12881E-06  9427   0.268E-03    0.839E-03
RMM:   6    -0.694582660630E+03   -0.30221E-05   -0.29091E-07  6501   0.222E-03    0.619E-03
RMM:   7    -0.694582664338E+03   -0.37076E-05   -0.47999E-08  5219   0.207E-03    0.388E-03
RMM:   8    -0.694582666893E+03   -0.25546E-05   -0.32512E-08  4908   0.203E-03
  93 F= -.69458267E+03 E0= -.69418198E+03  d E =-.183994E-03  mag=    82.5042
       N       E                     dE             d eps       ncg     rms          rms(c)
DAV:   1    -0.694582729919E+03   -0.65581E-04   -0.31084E-03 27376   0.642E-02    0.356E-02
RMM:   2    -0.694582745073E+03   -0.15154E-04   -0.64721E-05 15007   0.133E-02    0.213E-02
RMM:   3    -0.694582757672E+03   -0.12599E-04   -0.99848E-06 14116   0.602E-03    0.161E-02
RMM:   4    -0.694582758881E+03   -0.12089E-05   -0.30184E-06 11663   0.357E-03    0.949E-03
RMM:   5    -0.694582764457E+03   -0.55758E-05   -0.82268E-07  8470   0.247E-03    0.745E-03
RMM:   6    -0.694582770135E+03   -0.56783E-05   -0.23041E-07  6317   0.213E-03    0.423E-03
RMM:   7    -0.694582775063E+03   -0.49276E-05   -0.32274E-08  5247   0.202E-03    0.322E-03
RMM:   8    -0.694582778227E+03   -0.31637E-05   -0.19792E-08  4933   0.199E-03
  94 F= -.69458278E+03 E0= -.69418209E+03  d E =-.111334E-03  mag=    82.5046
       N       E                     dE             d eps       ncg     rms          rms(c)
DAV:   1    -0.694582787986E+03   -0.12923E-04   -0.53241E-03 27600   0.840E-02    0.466E-02
RMM:   2    -0.694582811968E+03   -0.23982E-04   -0.10948E-04 15479   0.171E-02    0.276E-02
RMM:   3    -0.694582830713E+03   -0.18745E-04   -0.16282E-05 14580   0.757E-03    0.195E-02
RMM:   4    -0.694582831725E+03   -0.10114E-05   -0.49913E-06 12249   0.437E-03    0.131E-02
RMM:   5    -0.694582837126E+03   -0.54017E-05   -0.20438E-06 10842   0.302E-03    0.106E-02
RMM:   6    -0.694582842250E+03   -0.51241E-05   -0.63303E-07  7739   0.237E-03    0.509E-03
RMM:   7    -0.694582847011E+03   -0.47609E-05   -0.94189E-08  5829   0.214E-03    0.380E-03
RMM:   8    -0.694582849610E+03   -0.25984E-05   -0.11816E-08  5059   0.202E-03
  95 F= -.69458285E+03 E0= -.69418216E+03  d E =-.182717E-03  mag=    82.5049
       N       E                     dE             d eps       ncg     rms          rms(c)
DAV:   1    -0.694582910887E+03   -0.63876E-04   -0.24999E-03 26432   0.557E-02    0.329E-02
RMM:   2    -0.694582923991E+03   -0.13104E-04   -0.48891E-05 14939   0.114E-02    0.193E-02
RMM:   3    -0.694582934764E+03   -0.10774E-04   -0.75394E-06 13626   0.529E-03    0.147E-02
RMM:   4    -0.694582935453E+03   -0.68918E-06   -0.23696E-06 11216   0.329E-03    0.917E-03
RMM:   5    -0.694582940192E+03   -0.47386E-05   -0.30324E-07  6828   0.218E-03    0.687E-03
RMM:   6    -0.694582943755E+03   -0.35632E-05   -0.76013E-08  5615   0.201E-03    0.457E-03
RMM:   7    -0.694582947689E+03   -0.39339E-05   -0.14649E-08  5039   0.195E-03    0.318E-03
RMM:   8    -0.694582949948E+03   -0.22594E-05   -0.30559E-08  5018   0.199E-03
  96 F= -.69458295E+03 E0= -.69418225E+03  d E =-.100339E-03  mag=    82.5052
       N       E                     dE             d eps       ncg     rms          rms(c)
DAV:   1    -0.694582942162E+03    0.55274E-05   -0.12045E-02 27856   0.122E-01    0.720E-02
RMM:   2    -0.694582994212E+03   -0.52051E-04   -0.22574E-04 17111   0.242E-02    0.399E-02
RMM:   3    -0.694583029421E+03   -0.35209E-04   -0.30689E-05 14785   0.103E-02    0.245E-02
RMM:   4    -0.694583029781E+03   -0.35949E-06   -0.10908E-05 13339   0.634E-03    0.203E-02
RMM:   5    -0.694583032974E+03   -0.31935E-05   -0.41878E-06 11902   0.399E-03    0.126E-02
RMM:   6    -0.694583034873E+03   -0.18990E-05   -0.19557E-06 10126   0.297E-03    0.891E-03
RMM:   7    -0.694583037474E+03   -0.26012E-05   -0.58727E-07  7720   0.245E-03    0.470E-03
RMM:   8    -0.694583038767E+03   -0.12927E-05   -0.32005E-09  4857   0.203E-03
  97 F= -.69458304E+03 E0= -.69418232E+03  d E =-.189157E-03  mag=    82.5055
       N       E                     dE             d eps       ncg     rms          rms(c)
DAV:   1    -0.694583088095E+03   -0.50621E-04   -0.49161E-03 28240   0.787E-02    0.455E-02
RMM:   2    -0.694583107618E+03   -0.19522E-04   -0.95695E-05 15370   0.158E-02    0.264E-02
RMM:   3    -0.694583125983E+03   -0.18366E-04   -0.14111E-05 14267   0.714E-03    0.215E-02
RMM:   4    -0.694583124302E+03    0.16810E-05   -0.41238E-06 11923   0.408E-03    0.128E-02
RMM:   5    -0.694583127470E+03   -0.31674E-05   -0.90464E-07  8654   0.256E-03    0.902E-03
RMM:   6    -0.694583129427E+03   -0.19576E-05   -0.44113E-07  7460   0.237E-03    0.530E-03
RMM:   7    -0.694583132285E+03   -0.28573E-05   -0.57340E-08  5282   0.214E-03    0.287E-03
RMM:   8    -0.694583133990E+03   -0.17053E-05   -0.68232E-08  4923   0.209E-03
  98 F= -.69458313E+03 E0= -.69418242E+03  d E =-.952231E-04  mag=    82.5058
