 ----------------------------------------------------
    OOO  PPPP  EEEEE N   N M   M PPPP
   O   O P   P E     NN  N MM MM P   P
   O   O PPPP  EEEEE N N N M M M PPPP   -- VERSION
   O   O P     E     N  NN M   M P
    OOO  P     EEEEE N   N M   M P
 ----------------------------------------------------
 running   16 mpi-ranks, with    4 threads/rank
 distrk:  each k-point on   16 cores,    1 groups
 distr:  one band on    1 cores,   16 groups
 vasp.6.2.1 16May21 (build Jul 28 2021 23:24:15) complex                        
  
 POSCAR found type information on POSCAR H IrO 
 POSCAR found :  3 types and     102 ions
 scaLAPACK will be used
 -----------------------------------------------------------------------------
|                                                                             |
|           W    W    AA    RRRRR   N    N  II  N    N   GGGG   !!!           |
|           W    W   A  A   R    R  NN   N  II  NN   N  G    G  !!!           |
|           W    W  A    A  R    R  N N  N  II  N N  N  G       !!!           |
|           W WW W  AAAAAA  RRRRR   N  N N  II  N  N N  G  GGG   !            |
|           WW  WW  A    A  R   R   N   NN  II  N   NN  G    G                |
|           W    W  A    A  R    R  N    N  II  N    N   GGGG   !!!           |
|                                                                             |
|     The real-space projection scheme for the treatment of the non-local     |
|     pseudopotentials has been switched on but on file POTCAR I have not     |
|     found any entries, signalling me that you have never performed a        |
|     real-space optimization of all non-local projectors! BE WARNED that     |
|     a calculation using the real-space projection scheme together with      |
|     non-local projectors which were not real-space optimized (according     |
|     to the plane-wave cutoff used in this calculation) might give more      |
|     or less inaccurate results. I hope you know what you are doing.         |
|                                                                             |
 -----------------------------------------------------------------------------

 LDA part: xc-table for Pade appr. of Perdew
 POSCAR, INCAR and KPOINTS ok, starting setup
 FFT: planning ...
 WAVECAR not read
 WARNING: random wavefunctions but no delay for mixing, default for NELMDL
 entering main loop
       N       E                     dE             d eps       ncg     rms          rms(c)
DAV:   1     0.763900244892E+04    0.76390E+04   -0.29978E+05 15168   0.126E+03
DAV:   2     0.615078776162E+03   -0.70239E+04   -0.63498E+04 15968   0.375E+02
DAV:   3    -0.757583553211E+03   -0.13727E+04   -0.13193E+04 18816   0.166E+02
DAV:   4    -0.833219598638E+03   -0.75636E+02   -0.73674E+02 20400   0.432E+01
DAV:   5    -0.834930064098E+03   -0.17105E+01   -0.16811E+01 19296   0.605E+00    0.187E+02
RMM:   6    -0.697459788289E+03    0.13747E+03   -0.63214E+02 14896   0.403E+01    0.170E+02
RMM:   7    -0.147438339059E+04   -0.77692E+03   -0.42458E+02 16642   0.278E+01    0.384E+02
RMM:   8    -0.135007508322E+04    0.12431E+03   -0.12157E+02 19079   0.114E+01    0.364E+02
RMM:   9    -0.138369372848E+04   -0.33619E+02   -0.55318E+01 15446   0.104E+01    0.375E+02
RMM:  10    -0.115104922475E+04    0.23264E+03   -0.61480E+02 22580   0.283E+01    0.340E+02
RMM:  11    -0.123896555960E+04   -0.87916E+02   -0.85755E+01 17532   0.985E+00    0.305E+02
RMM:  12    -0.122819004679E+04    0.10776E+02   -0.26407E+02 20160   0.145E+01    0.193E+02
RMM:  13    -0.120195704277E+04    0.26233E+02   -0.31539E+02 22809   0.216E+01    0.253E+02
RMM:  14    -0.928959681467E+03    0.27300E+03   -0.26307E+01 15832   0.776E+00    0.187E+02
RMM:  15    -0.718919964796E+03    0.21004E+03   -0.73235E+01 18685   0.109E+01    0.141E+02
RMM:  16    -0.646569349194E+03    0.72351E+02   -0.32295E+01 16862   0.757E+00    0.123E+02
RMM:  17    -0.651890098577E+03   -0.53207E+01   -0.22372E+01 16278   0.677E+00    0.110E+02
RMM:  18    -0.649367324327E+03    0.25228E+01   -0.33096E+00 17208   0.264E+00    0.109E+02
RMM:  19    -0.647689389626E+03    0.16779E+01   -0.11323E+00 15253   0.169E+00    0.105E+02
RMM:  20    -0.648088421754E+03   -0.39903E+00   -0.10320E+00 15219   0.163E+00    0.101E+02
RMM:  21    -0.648290183473E+03   -0.20176E+00   -0.32234E+00 18336   0.267E+00    0.923E+01
RMM:  22    -0.641398007485E+03    0.68922E+01   -0.12007E+01 22441   0.512E+00    0.716E+01
RMM:  23    -0.639916322065E+03    0.14817E+01   -0.29737E+00 19047   0.262E+00    0.576E+01
RMM:  24    -0.640989223092E+03   -0.10729E+01   -0.12361E+00 16287   0.170E+00    0.515E+01
RMM:  25    -0.642678984269E+03   -0.16898E+01   -0.11982E+00 16633   0.157E+00    0.464E+01
RMM:  26    -0.645005305378E+03   -0.23263E+01   -0.11257E+00 16695   0.159E+00    0.436E+01
RMM:  27    -0.650590363796E+03   -0.55851E+01   -0.21261E+00 18861   0.212E+00    0.374E+01
RMM:  28    -0.655937129954E+03   -0.53468E+01   -0.23685E+00 19051   0.218E+00    0.279E+01
RMM:  29    -0.660794316478E+03   -0.48572E+01   -0.19534E+00 17849   0.196E+00    0.216E+01
RMM:  30    -0.662964167337E+03   -0.21699E+01   -0.70536E-01 15697   0.133E+00    0.182E+01
RMM:  31    -0.671436185531E+03   -0.84720E+01   -0.20012E+00 19373   0.205E+00    0.159E+01
RMM:  32    -0.671802153306E+03   -0.36597E+00   -0.16218E+00 18501   0.174E+00    0.142E+01
RMM:  33    -0.676247609241E+03   -0.44455E+01   -0.12230E+00 16790   0.151E+00    0.132E+01
RMM:  34    -0.679064860522E+03   -0.28173E+01   -0.51656E-01 16384   0.118E+00    0.168E+01
RMM:  35    -0.679180330965E+03   -0.11547E+00   -0.68282E-01 17601   0.118E+00    0.197E+01
RMM:  36    -0.679949918183E+03   -0.76959E+00   -0.61701E-01 18177   0.114E+00    0.205E+01
RMM:  37    -0.680767248973E+03   -0.81733E+00   -0.19163E-01 15098   0.759E-01    0.179E+01
RMM:  38    -0.681677831082E+03   -0.91058E+00   -0.25813E-01 16280   0.749E-01    0.163E+01
RMM:  39    -0.682099318830E+03   -0.42149E+00   -0.52455E-01 18756   0.104E+00    0.147E+01
RMM:  40    -0.683305519405E+03   -0.12062E+01   -0.23504E-01 16313   0.673E-01    0.152E+01
RMM:  41    -0.686302941834E+03   -0.29974E+01   -0.75308E-01 19354   0.110E+00    0.168E+01
RMM:  42    -0.687135440067E+03   -0.83250E+00   -0.52315E-01 18699   0.918E-01    0.156E+01
RMM:  43    -0.688282687972E+03   -0.11472E+01   -0.17699E-01 16420   0.587E-01    0.141E+01
RMM:  44    -0.689450679690E+03   -0.11680E+01   -0.33708E-01 18770   0.749E-01    0.108E+01
RMM:  45    -0.690416531241E+03   -0.96585E+00   -0.19768E-01 16842   0.585E-01    0.961E+00
RMM:  46    -0.691515350894E+03   -0.10988E+01   -0.36989E-01 19231   0.777E-01    0.801E+00
RMM:  47    -0.691240924496E+03    0.27443E+00   -0.11593E-01 16565   0.494E-01    0.470E+00
RMM:  48    -0.692492327162E+03   -0.12514E+01   -0.10800E-01 16796   0.458E-01    0.376E+00
RMM:  49    -0.693312791844E+03   -0.82046E+00   -0.62405E-02 15643   0.364E-01    0.359E+00
RMM:  50    -0.693660403063E+03   -0.34761E+00   -0.83516E-02 16573   0.365E-01    0.315E+00
RMM:  51    -0.694448360938E+03   -0.78796E+00   -0.42109E-02 15691   0.300E-01    0.213E+00
RMM:  52    -0.694750649738E+03   -0.30229E+00   -0.25054E-02 15460   0.224E-01    0.203E+00
RMM:  53    -0.694922811939E+03   -0.17216E+00   -0.12233E-02 15190   0.164E-01    0.182E+00
RMM:  54    -0.695078480966E+03   -0.15567E+00   -0.12230E-02 15945   0.149E-01    0.188E+00
RMM:  55    -0.695154200168E+03   -0.75719E-01   -0.67699E-03 15350   0.126E-01    0.155E+00
RMM:  56    -0.695363951484E+03   -0.20975E+00   -0.34474E-02 20100   0.256E-01    0.209E+00
RMM:  57    -0.695235422003E+03    0.12853E+00   -0.46915E-03 15262   0.107E-01    0.143E+00
RMM:  58    -0.695479944697E+03   -0.24452E+00   -0.69810E-03 16662   0.114E-01    0.968E-01
RMM:  59    -0.695638965010E+03   -0.15902E+00   -0.53557E-03 16165   0.998E-02    0.843E-01
RMM:  60    -0.695707457168E+03   -0.68492E-01   -0.20210E-03 14624   0.664E-02    0.635E-01
RMM:  61    -0.695739659377E+03   -0.32202E-01   -0.79394E-03 19690   0.131E-01    0.605E-01
RMM:  62    -0.695810449120E+03   -0.70790E-01   -0.12159E-03 14438   0.544E-02    0.372E-01
RMM:  63    -0.695917960365E+03   -0.10751E+00   -0.14426E-03 14408   0.492E-02    0.376E-01
RMM:  64    -0.696074185013E+03   -0.15622E+00   -0.23211E-03 15248   0.536E-02    0.348E-01
RMM:  65    -0.696147278429E+03   -0.73093E-01   -0.56706E-04 12433   0.314E-02    0.257E-01
RMM:  66    -0.696189425226E+03   -0.42147E-01   -0.71272E-04 12973   0.369E-02    0.382E-01
RMM:  67    -0.696233212505E+03   -0.43787E-01   -0.22482E-04  9867   0.229E-02    0.230E-01
RMM:  68    -0.696267601677E+03   -0.34389E-01   -0.18526E-04  9634   0.182E-02    0.182E-01
RMM:  69    -0.696289900146E+03   -0.22298E-01   -0.12344E-04  9194   0.159E-02    0.131E-01
RMM:  70    -0.696298748866E+03   -0.88487E-02   -0.89384E-05  8960   0.135E-02    0.846E-02
RMM:  71    -0.696302442726E+03   -0.36939E-02   -0.49607E-05  8695   0.110E-02    0.400E-02
RMM:  72    -0.696303495326E+03   -0.10526E-02   -0.21764E-05  7926   0.808E-03    0.343E-02
RMM:  73    -0.696304186616E+03   -0.69129E-03   -0.10505E-05  7104   0.556E-03    0.252E-02
RMM:  74    -0.696305375458E+03   -0.11888E-02   -0.95879E-06  7034   0.469E-03    0.156E-02
RMM:  75    -0.696306128062E+03   -0.75260E-03   -0.64525E-06  5946   0.411E-03    0.130E-02
RMM:  76    -0.696306297363E+03   -0.16930E-03   -0.25553E-06  4425   0.339E-03    0.117E-02
RMM:  77    -0.696306730964E+03   -0.43360E-03   -0.26936E-06  4117   0.323E-03    0.921E-03
RMM:  78    -0.696307150914E+03   -0.41995E-03   -0.46390E-06  5012   0.350E-03    0.848E-03
RMM:  79    -0.696307365310E+03   -0.21440E-03   -0.28853E-06  4436   0.332E-03    0.781E-03
RMM:  80    -0.696307558976E+03   -0.19367E-03   -0.33295E-06  4336   0.330E-03
 -----------------------------------------------------------------------------
|                                                                             |
|           W    W    AA    RRRRR   N    N  II  N    N   GGGG   !!!           |
|           W    W   A  A   R    R  NN   N  II  NN   N  G    G  !!!           |
|           W    W  A    A  R    R  N N  N  II  N N  N  G       !!!           |
|           W WW W  AAAAAA  RRRRR   N  N N  II  N  N N  G  GGG   !            |
|           WW  WW  A    A  R   R   N   NN  II  N   NN  G    G                |
|           W    W  A    A  R    R  N    N  II  N    N   GGGG   !!!           |
|                                                                             |
|     The electronic self-consistency was not achieved in the given           |
|     number of steps (NELM). The forces and other quantities evaluated       |
|     might not be reliable so examine the results carefully. If you find     |
|     spurious results, we suggest increasing NELM, if you were close to      |
|     convergence or switching to a different ALGO or adjusting the           |
|     density mixing parameters otherwise.                                    |
|                                                                             |
 -----------------------------------------------------------------------------

   1 F= -.69630756E+03 E0= -.69574103E+03  d E =-.696308E+03  mag=     3.8052
 curvature:   0.00 expect dE= 0.000E+00 dE for cont linesearch  0.000E+00
 trial: gam= 0.00000 g(F)=  0.155E+01 g(S)=  0.000E+00 ort = 0.000E+00 (trialstep = 0.100E+01)
 search vector abs. value=  0.155E+01
 bond charge predicted
       N       E                     dE             d eps       ncg     rms          rms(c)
DAV:   1    -0.694642110373E+03    0.16653E+01   -0.33246E+02 15296   0.221E+01    0.608E+00
RMM:   2    -0.695925083742E+03   -0.12830E+01   -0.11391E+01 14848   0.418E+00    0.809E+00
RMM:   3    -0.698048130978E+03   -0.21230E+01   -0.18522E+00 15304   0.189E+00    0.194E+01
RMM:   4    -0.695711664977E+03    0.23365E+01   -0.37622E-01 15515   0.100E+00    0.360E+00
RMM:   5    -0.695692702027E+03    0.18963E-01   -0.13013E-01 14939   0.605E-01    0.323E+00
RMM:   6    -0.695683902900E+03    0.87991E-02   -0.62557E-02 14975   0.442E-01    0.227E+00
RMM:   7    -0.695698538112E+03   -0.14635E-01   -0.55466E-02 15350   0.375E-01    0.234E+00
RMM:   8    -0.695692636750E+03    0.59014E-02   -0.34747E-02 15391   0.306E-01    0.202E+00
RMM:   9    -0.695673690342E+03    0.18946E-01   -0.10912E-02 14892   0.192E-01    0.106E+00
RMM:  10    -0.695666743903E+03    0.69464E-02   -0.43845E-03 15138   0.114E-01    0.695E-01
RMM:  11    -0.695663966462E+03    0.27774E-02   -0.22156E-03 14671   0.709E-02    0.414E-01
RMM:  12    -0.695663815469E+03    0.15099E-03   -0.83280E-04 13314   0.494E-02    0.252E-01
RMM:  13    -0.695665087270E+03   -0.12718E-02   -0.54563E-04 12002   0.358E-02    0.146E-01
RMM:  14    -0.695666453990E+03   -0.13667E-02   -0.35720E-04 10925   0.280E-02    0.148E-01
RMM:  15    -0.695667014308E+03   -0.56032E-03   -0.13235E-04  9094   0.203E-02    0.788E-02
RMM:  16    -0.695667742155E+03   -0.72785E-03   -0.53715E-05  8746   0.133E-02    0.557E-02
RMM:  17    -0.695668704180E+03   -0.96202E-03   -0.31751E-05  7870   0.912E-03    0.460E-02
RMM:  18    -0.695669411049E+03   -0.70687E-03   -0.18924E-05  7432   0.684E-03    0.397E-02
RMM:  19    -0.695670103237E+03   -0.69219E-03   -0.15663E-05  7042   0.581E-03    0.279E-02
RMM:  20    -0.695670891338E+03   -0.78810E-03   -0.17656E-05  7003   0.557E-03    0.213E-02
RMM:  21    -0.695671503326E+03   -0.61199E-03   -0.14409E-05  6738   0.526E-03    0.175E-02
RMM:  22    -0.695672087203E+03   -0.58388E-03   -0.18391E-05  6794   0.529E-03    0.162E-02
RMM:  23    -0.695672692831E+03   -0.60563E-03   -0.22898E-05  6885   0.553E-03    0.150E-02
RMM:  24    -0.695673015887E+03   -0.32306E-03   -0.11737E-05  5589   0.476E-03    0.119E-02
RMM:  25    -0.695673276040E+03   -0.26015E-03   -0.84633E-06  5447   0.430E-03    0.123E-02
RMM:  26    -0.695673509591E+03   -0.23355E-03   -0.68739E-06  5099   0.398E-03    0.141E-02
RMM:  27    -0.695673743949E+03   -0.23436E-03   -0.38893E-06  4430   0.363E-03    0.106E-02
RMM:  28    -0.695674047105E+03   -0.30316E-03   -0.53190E-06  4772   0.359E-03    0.778E-03
RMM:  29    -0.695674238342E+03   -0.19124E-03   -0.21806E-06  3829   0.330E-03    0.599E-03
RMM:  30    -0.695674509199E+03   -0.27086E-03   -0.18165E-06  3392   0.304E-03    0.554E-03
RMM:  31    -0.695674728377E+03   -0.21918E-03   -0.95834E-07  3036   0.296E-03    0.544E-03
RMM:  32    -0.695675014512E+03   -0.28613E-03   -0.13574E-06  3118   0.296E-03    0.481E-03
RMM:  33    -0.695675241404E+03   -0.22689E-03   -0.15018E-06  3242   0.299E-03    0.550E-03
RMM:  34    -0.695675361921E+03   -0.12052E-03   -0.57107E-07  2583   0.288E-03    0.557E-03
RMM:  35    -0.695675520521E+03   -0.15860E-03   -0.64643E-07  2511   0.286E-03    0.436E-03
RMM:  36    -0.695675617645E+03   -0.97123E-04   -0.59213E-07  2481   0.286E-03
   2 F= -.69567562E+03 E0= -.69510872E+03  d E =0.631941E+00  mag=     3.8473
 trial-energy change:    0.631941  1 .order    0.178778   -1.548384    1.905941
 step:   0.2871(harm=  0.4482)  dis= 0.01685  next Energy=  -696.519126 (dE=-0.212E+00)
 bond charge predicted
       N       E                     dE             d eps       ncg     rms          rms(c)
DAV:   1    -0.696137755163E+03   -0.46223E+00   -0.17185E+02 14896   0.165E+01    0.401E+00
RMM:   2    -0.696493485049E+03   -0.35573E+00   -0.40125E+00 14848   0.280E+00    0.294E+00
RMM:   3    -0.697281492989E+03   -0.78801E+00   -0.78517E-01 15466   0.124E+00    0.108E+01
RMM:   4    -0.696554871770E+03    0.72662E+00   -0.15180E-01 15563   0.628E-01    0.244E+00
RMM:   5    -0.696549844614E+03    0.50272E-02   -0.49480E-02 14908   0.384E-01    0.211E+00
RMM:   6    -0.696551415736E+03   -0.15711E-02   -0.33101E-02 15110   0.310E-01    0.188E+00
RMM:   7    -0.696545769694E+03    0.56460E-02   -0.18523E-02 15146   0.224E-01    0.143E+00
RMM:   8    -0.696544619248E+03    0.11504E-02   -0.85675E-03 15048   0.161E-01    0.112E+00
RMM:   9    -0.696538577049E+03    0.60422E-02   -0.30887E-03 14637   0.988E-02    0.494E-01
RMM:  10    -0.696538453306E+03    0.12374E-03   -0.15377E-03 14491   0.604E-02    0.330E-01
RMM:  11    -0.696538219426E+03    0.23388E-03   -0.45395E-04 12132   0.360E-02    0.147E-01
RMM:  12    -0.696538567916E+03   -0.34849E-03   -0.24003E-04 10187   0.254E-02    0.192E-01
RMM:  13    -0.696538622862E+03   -0.54947E-04   -0.19830E-04  9577   0.240E-02
   3 F= -.69653862E+03 E0= -.69597213E+03  d E =-.231064E+00  mag=     3.8469
 curvature:  -0.21 expect dE=-0.549E+00 dE for cont linesearch -0.523E-03
 trial: gam= 1.76954 g(F)=  0.268E+01 g(S)=  0.000E+00 ort =-0.629E-01 (trialstep = 0.182E+00)
 search vector abs. value=  0.730E+01
 bond charge predicted
       N       E                     dE             d eps       ncg     rms          rms(c)
DAV:   1    -0.696375574134E+03    0.16299E+00   -0.53099E+01 15040   0.933E+00    0.235E+00
RMM:   2    -0.696456947490E+03   -0.81373E-01   -0.10151E+00 14848   0.151E+00    0.170E+00
RMM:   3    -0.696765169338E+03   -0.30822E+00   -0.20151E-01 15458   0.667E-01    0.671E+00
RMM:   4    -0.696501028853E+03    0.26414E+00   -0.47863E-02 14973   0.395E-01    0.251E+00
RMM:   5    -0.696475869210E+03    0.25160E-01   -0.21336E-02 14937   0.268E-01    0.141E+00
RMM:   6    -0.696472834659E+03    0.30346E-02   -0.98974E-03 14907   0.183E-01    0.109E+00
RMM:   7    -0.696467639329E+03    0.51953E-02   -0.48773E-03 14941   0.126E-01    0.628E-01
RMM:   8    -0.696467629810E+03    0.95192E-05   -0.24195E-03 14373   0.834E-02    0.445E-01
RMM:   9    -0.696467415975E+03    0.21383E-03   -0.92702E-04 13458   0.566E-02    0.262E-01
RMM:  10    -0.696467793066E+03   -0.37709E-03   -0.41791E-04 11613   0.328E-02    0.201E-01
RMM:  11    -0.696468067072E+03   -0.27401E-03   -0.16385E-04  9445   0.234E-02    0.764E-02
RMM:  12    -0.696468444605E+03   -0.37753E-03   -0.92529E-05  8902   0.160E-02    0.684E-02
RMM:  13    -0.696468659921E+03   -0.21532E-03   -0.40946E-05  8389   0.123E-02    0.430E-02
RMM:  14    -0.696468752317E+03   -0.92396E-04   -0.16627E-05  7599   0.748E-03
   4 F= -.69646875E+03 E0= -.69590032E+03  d E =0.698705E-01  mag=     3.8338
 trial-energy change:    0.069871  1 .order    0.009179   -0.466443    0.484801
 step:   0.0725(harm=  0.0891)  dis= 0.00865  next Energy=  -696.627738 (dE=-0.891E-01)
 bond charge predicted
       N       E                     dE             d eps       ncg     rms          rms(c)
DAV:   1    -0.696620639388E+03   -0.15198E+00   -0.19387E+01 15360   0.574E+00    0.129E+00
RMM:   2    -0.696652676013E+03   -0.32037E-01   -0.33605E-01 14848   0.867E-01    0.152E+00
RMM:   3    -0.696727538578E+03   -0.74863E-01   -0.55878E-02 15326   0.382E-01    0.347E+00
RMM:   4    -0.696656941519E+03    0.70597E-01   -0.14911E-02 15145   0.214E-01    0.116E+00
RMM:   5    -0.696656259683E+03    0.68184E-03   -0.78660E-03 14875   0.154E-01    0.110E+00
RMM:   6    -0.696653270883E+03    0.29888E-02   -0.44250E-03 14873   0.124E-01    0.722E-01
RMM:   7    -0.696651808568E+03    0.14623E-02   -0.25654E-03 14335   0.848E-02    0.450E-01
RMM:   8    -0.696651169417E+03    0.63915E-03   -0.10508E-03 13498   0.604E-02    0.282E-01
RMM:   9    -0.696650981161E+03    0.18826E-03   -0.30194E-04 10669   0.329E-02    0.205E-01
RMM:  10    -0.696650974526E+03    0.66343E-05   -0.10652E-04  8968   0.186E-02
   5 F= -.69665097E+03 E0= -.69608409E+03  d E =-.112352E+00  mag=     3.8311
 curvature:  -0.12 expect dE=-0.176E+00 dE for cont linesearch -0.144E-02
 ZBRENT: interpolating
 opt :   0.0651  next Energy=  -696.652057 (dE=-0.113E+00)
 bond charge predicted
       N       E                     dE             d eps       ncg     rms          rms(c)
DAV:   1    -0.696651515993E+03   -0.53483E-03   -0.89068E-02 15344   0.387E-01    0.139E-01
RMM:   2    -0.696658738199E+03   -0.72222E-02   -0.22690E-03 14361   0.728E-02    0.100E+00
RMM:   3    -0.696651807488E+03    0.69307E-02   -0.59070E-04 12884   0.501E-02    0.243E-01
RMM:   4    -0.696651790351E+03    0.17137E-04   -0.19742E-04  9614   0.253E-02    0.150E-01
RMM:   5    -0.696651691894E+03    0.98457E-04   -0.66490E-05  8392   0.177E-02    0.909E-02
RMM:   6    -0.696651674762E+03    0.17132E-04   -0.23500E-05  7969   0.101E-02    0.513E-02
RMM:   7    -0.696651682287E+03   -0.75248E-05   -0.17626E-05  7258   0.755E-03    0.463E-02
RMM:   8    -0.696651681315E+03    0.97215E-06   -0.82737E-06  6818   0.624E-03
   6 F= -.69665168E+03 E0= -.69608488E+03  d E =-.113058E+00  mag=     3.8280
 curvature:  -0.09 expect dE=-0.117E+00 dE for cont linesearch -0.891E-04
 trial: gam= 0.14107 g(F)=  0.126E+01 g(S)=  0.000E+00 ort = 0.839E-01 (trialstep = 0.158E+00)
 search vector abs. value=  0.143E+01
 bond charge predicted
       N       E                     dE             d eps       ncg     rms          rms(c)
DAV:   1    -0.696696947603E+03   -0.45265E-01   -0.78691E+00 15296   0.389E+00    0.949E-01
RMM:   2    -0.696715640517E+03   -0.18693E-01   -0.20923E-01 14848   0.686E-01    0.171E+00
RMM:   3    -0.696727409856E+03   -0.11769E-01   -0.28379E-02 15006   0.289E-01    0.169E+00
RMM:   4    -0.696736109268E+03   -0.86994E-02   -0.89217E-03 14923   0.163E-01    0.217E+00
RMM:   5    -0.696715821441E+03    0.20288E-01   -0.42426E-03 14887   0.124E-01    0.116E+00
RMM:   6    -0.696709603748E+03    0.62177E-02   -0.21076E-03 14121   0.866E-02    0.675E-01
RMM:   7    -0.696708868140E+03    0.73561E-03   -0.13935E-03 13905   0.641E-02    0.382E-01
RMM:   8    -0.696708884435E+03   -0.16295E-04   -0.95353E-04 13517   0.496E-02
   7 F= -.69670888E+03 E0= -.69614153E+03  d E =-.572031E-01  mag=     3.8220
 trial-energy change:   -0.057203  1 .order   -0.079784   -0.201964    0.042396
 step:   0.1130(harm=  0.1310)  dis= 0.01313  next Energy=  -696.715500 (dE=-0.638E-01)
 bond charge predicted
       N       E                     dE             d eps       ncg     rms          rms(c)
DAV:   1    -0.696715573306E+03   -0.67052E-02   -0.65392E-01 15360   0.113E+00    0.320E-01
RMM:   2    -0.696720406796E+03   -0.48335E-02   -0.19562E-02 14848   0.210E-01    0.834E-01
RMM:   3    -0.696718613261E+03    0.17935E-02   -0.27047E-03 14508   0.103E-01    0.530E-01
RMM:   4    -0.696719642106E+03   -0.10288E-02   -0.90764E-04 13705   0.512E-02    0.704E-01
RMM:   5    -0.696717148483E+03    0.24936E-02   -0.32808E-04 10661   0.363E-02    0.257E-01
RMM:   6    -0.696717012771E+03    0.13571E-03   -0.26403E-04  9964   0.280E-02    0.216E-01
RMM:   7    -0.696716948360E+03    0.64412E-04   -0.12712E-04  8517   0.223E-02    0.125E-01
RMM:   8    -0.696717032151E+03   -0.83792E-04   -0.96496E-05  8363   0.170E-02
   8 F= -.69671703E+03 E0= -.69614982E+03  d E =-.653508E-01  mag=     3.8189
 curvature:  -0.04 expect dE=-0.359E-01 dE for cont linesearch -0.274E-05
 trial: gam= 0.71683 g(F)=  0.852E+00 g(S)=  0.000E+00 ort =-0.965E-02 (trialstep = 0.136E+00)
 search vector abs. value=  0.157E+01
 bond charge predicted
       N       E                     dE             d eps       ncg     rms          rms(c)
DAV:   1    -0.696738762495E+03   -0.21814E-01   -0.54851E+00 15312   0.329E+00    0.794E-01
RMM:   2    -0.696752513486E+03   -0.13751E-01   -0.15768E-01 14848   0.568E-01    0.139E+00
RMM:   3    -0.696763964898E+03   -0.11451E-01   -0.19558E-02 14913   0.245E-01    0.172E+00
RMM:   4    -0.696758195784E+03    0.57691E-02   -0.56728E-03 14767   0.136E-01    0.148E+00
RMM:   5    -0.696749514031E+03    0.86818E-02   -0.25688E-03 14503   0.994E-02    0.850E-01
RMM:   6    -0.696748730276E+03    0.78376E-03   -0.15138E-03 13989   0.710E-02    0.738E-01
RMM:   7    -0.696746616047E+03    0.21142E-02   -0.10564E-03 13739   0.573E-02    0.395E-01
RMM:   8    -0.696746535737E+03    0.80311E-04   -0.94567E-04 13509   0.442E-02
   9 F= -.69674654E+03 E0= -.69617835E+03  d E =-.295036E-01  mag=     3.8133
 trial-energy change:   -0.029504  1 .order   -0.044895   -0.114835    0.025044
 step:   0.0919(harm=  0.1115)  dis= 0.01065  next Energy=  -696.751108 (dE=-0.341E-01)
 bond charge predicted
       N       E                     dE             d eps       ncg     rms          rms(c)
DAV:   1    -0.696751782403E+03   -0.51664E-02   -0.58119E-01 15360   0.108E+00    0.290E-01
RMM:   2    -0.696756316893E+03   -0.45345E-02   -0.17911E-02 14848   0.191E-01    0.797E-01
RMM:   3    -0.696755600530E+03    0.71636E-03   -0.24249E-03 14489   0.962E-02    0.658E-01
RMM:   4    -0.696753793626E+03    0.18069E-02   -0.71031E-04 13305   0.486E-02    0.429E-01
RMM:   5    -0.696752994635E+03    0.79899E-03   -0.31288E-04 10188   0.337E-02    0.185E-01
RMM:   6    -0.696753057708E+03   -0.63074E-04   -0.19132E-04  9199   0.248E-02    0.183E-01
RMM:   7    -0.696753069118E+03   -0.11410E-04   -0.11752E-04  8422   0.206E-02    0.149E-01
RMM:   8    -0.696753088382E+03   -0.19264E-04   -0.93300E-05  8331   0.166E-02
  10 F= -.69675309E+03 E0= -.69618518E+03  d E =-.360562E-01  mag=     3.8106
 curvature:  -0.04 expect dE=-0.437E-01 dE for cont linesearch -0.687E-05
 trial: gam= 1.75760 g(F)=  0.121E+01 g(S)=  0.000E+00 ort =-0.173E-01 (trialstep = 0.333E-01)
 search vector abs. value=  0.601E+01
 bond charge predicted
       N       E                     dE             d eps       ncg     rms          rms(c)
DAV:   1    -0.696790662865E+03   -0.37594E-01   -0.10732E+00 15328   0.126E+00    0.410E-01
RMM:   2    -0.696793935090E+03   -0.32722E-02   -0.36513E-02 14797   0.206E-01    0.736E-01
RMM:   3    -0.696803361807E+03   -0.94267E-02   -0.43569E-03 14160   0.983E-02    0.139E+00
RMM:   4    -0.696792025490E+03    0.11336E-01   -0.14508E-03 13876   0.707E-02    0.488E-01
RMM:   5    -0.696791365788E+03    0.65970E-03   -0.50485E-04 12095   0.444E-02    0.300E-01
RMM:   6    -0.696791311289E+03    0.54499E-04   -0.29753E-04 10327   0.306E-02    0.273E-01
RMM:   7    -0.696791058752E+03    0.25254E-03   -0.20308E-04  9289   0.258E-02    0.140E-01
RMM:   8    -0.696791164350E+03   -0.10560E-03   -0.18743E-04  9010   0.202E-02    0.116E-01
RMM:   9    -0.696791206972E+03   -0.42622E-04   -0.58492E-05  8141   0.157E-02
  11 F= -.69679121E+03 E0= -.69622296E+03  d E =-.381186E-01  mag=     3.8062
 ZBRENT: can't locate minimum, use default step
 trial-energy change:   -0.038119  1 .order   -0.036953   -0.039150   -0.034755
 step:   0.1332(harm=  0.2965)  dis= 0.03469  next Energy=  -696.927454 (dE=-0.174E+00)
 bond charge predicted
       N       E                     dE             d eps       ncg     rms          rms(c)
DAV:   1    -0.696659318199E+03    0.13185E+00   -0.96126E+00 15232   0.380E+00    0.122E+00
RMM:   2    -0.696700761955E+03   -0.41444E-01   -0.32237E-01 14848   0.619E-01    0.257E+00
RMM:   3    -0.696758022121E+03   -0.57260E-01   -0.40389E-02 14886   0.297E-01    0.392E+00
RMM:   4    -0.696670431745E+03    0.87590E-01   -0.13165E-02 14900   0.212E-01    0.127E+00
RMM:   5    -0.696667071770E+03    0.33600E-02   -0.42138E-03 14614   0.127E-01    0.953E-01
RMM:   6    -0.696666954557E+03    0.11721E-03   -0.23469E-03 14034   0.850E-02    0.850E-01
RMM:   7    -0.696664889693E+03    0.20649E-02   -0.19380E-03 14097   0.723E-02    0.463E-01
RMM:   8    -0.696664835904E+03    0.53789E-04   -0.18077E-03 14208   0.568E-02    0.268E-01
RMM:   9    -0.696665065400E+03   -0.22950E-03   -0.49198E-04 12385   0.391E-02    0.206E-01
RMM:  10    -0.696665136862E+03   -0.71463E-04   -0.16524E-04  9271   0.243E-02
  12 F= -.69666514E+03 E0= -.69609583E+03  d E =0.879515E-01  mag=     3.7991
 curvature:  -0.47 expect dE=-0.221E+01 dE for cont linesearch -0.103E+01
 ZBRENT: interpolating
 opt :   0.0555  next Energy=  -696.802811 (dE=-0.497E-01)
 bond charge predicted
       N       E                     dE             d eps       ncg     rms          rms(c)
DAV:   1    -0.696802329655E+03   -0.13726E+00   -0.58202E+00 15248   0.302E+00    0.103E+00
RMM:   2    -0.696845904044E+03   -0.43574E-01   -0.21972E-01 14853   0.484E-01    0.250E+00
RMM:   3    -0.696878076254E+03   -0.32172E-01   -0.26088E-02 14880   0.246E-01    0.340E+00
RMM:   4    -0.696810636572E+03    0.67440E-01   -0.95117E-03 14870   0.182E-01    0.103E+00
RMM:   5    -0.696808658982E+03    0.19776E-02   -0.33403E-03 14258   0.106E-01    0.751E-01
RMM:   6    -0.696807712825E+03    0.94616E-03   -0.17959E-03 13956   0.709E-02    0.605E-01
RMM:   7    -0.696806172313E+03    0.15405E-02   -0.11253E-03 13519   0.552E-02    0.326E-01
RMM:   8    -0.696806260784E+03   -0.88472E-04   -0.99773E-04 13531   0.463E-02
  13 F= -.69680626E+03 E0= -.69623791E+03  d E =-.531724E-01  mag=     3.7988
 curvature:  -0.01 expect dE=-0.673E-02 dE for cont linesearch -0.210E-04
 trial: gam= 0.23000 g(F)=  0.128E+01 g(S)=  0.000E+00 ort = 0.155E+00 (trialstep = 0.377E-01)
 search vector abs. value=  0.167E+01
 bond charge predicted
       N       E                     dE             d eps       ncg     rms          rms(c)
DAV:   1    -0.696834932998E+03   -0.28761E-01   -0.47985E-01 15520   0.107E+00    0.260E-01
RMM:   2    -0.696837563543E+03   -0.26305E-02   -0.12980E-02 14839   0.199E-01    0.591E-01
RMM:   3    -0.696837587051E+03   -0.23509E-04   -0.20952E-03 14536   0.922E-02    0.502E-01
RMM:   4    -0.696836991341E+03    0.59571E-03   -0.71814E-04 13628   0.472E-02    0.428E-01
RMM:   5    -0.696836167409E+03    0.82393E-03   -0.22344E-04  9499   0.302E-02    0.162E-01
RMM:   6    -0.696836307657E+03   -0.14025E-03   -0.14597E-04  8908   0.230E-02    0.190E-01
RMM:   7    -0.696836255861E+03    0.51796E-04   -0.14474E-04  8785   0.217E-02    0.180E-01
RMM:   8    -0.696836070482E+03    0.18538E-03   -0.84274E-05  8494   0.192E-02    0.602E-02
RMM:   9    -0.696836058324E+03    0.12157E-04   -0.29202E-05  7989   0.106E-02
  14 F= -.69683606E+03 E0= -.69626768E+03  d E =-.297975E-01  mag=     3.7964
 trial-energy change:   -0.029798  1 .order   -0.028419   -0.049776   -0.007063
 step:   0.0428(harm=  0.0440)  dis= 0.00355  next Energy=  -696.836540 (dE=-0.303E-01)
 bond charge predicted
       N       E                     dE             d eps       ncg     rms          rms(c)
DAV:   1    -0.696836524474E+03   -0.45399E-03   -0.87553E-03 15312   0.144E-01    0.537E-02
RMM:   2    -0.696838224954E+03   -0.17005E-02   -0.36569E-04 10469   0.317E-02    0.498E-01
RMM:   3    -0.696836502690E+03    0.17223E-02   -0.12499E-04  8284   0.248E-02    0.688E-02
RMM:   4    -0.696836542673E+03   -0.39982E-04   -0.31489E-05  8018   0.121E-02    0.462E-02
RMM:   5    -0.696836540121E+03    0.25522E-05   -0.87422E-06  7281   0.662E-03    0.352E-02
RMM:   6    -0.696836547965E+03   -0.78441E-05   -0.33118E-06  5640   0.409E-03    0.301E-02
RMM:   7    -0.696836553314E+03   -0.53493E-05   -0.16202E-06  4358   0.340E-03    0.233E-02
RMM:   8    -0.696836563585E+03   -0.10271E-04   -0.40916E-07  2836   0.288E-03
  15 F= -.69683656E+03 E0= -.69626819E+03  d E =-.303028E-01  mag=     3.7944
 curvature:  -0.03 expect dE=-0.110E-01 dE for cont linesearch -0.119E-05
 trial: gam= 0.27176 g(F)=  0.407E+00 g(S)=  0.000E+00 ort = 0.858E-02 (trialstep = 0.388E-01)
 search vector abs. value=  0.535E+00
 bond charge predicted
       N       E                     dE             d eps       ncg     rms          rms(c)
DAV:   1    -0.696849295882E+03   -0.12743E-01   -0.16694E-01 15360   0.588E-01    0.121E-01
RMM:   2    -0.696850324640E+03   -0.10288E-02   -0.35907E-03 14745   0.104E-01    0.361E-01
RMM:   3    -0.696849610061E+03    0.71458E-03   -0.60533E-04 11958   0.424E-02    0.117E-01
RMM:   4    -0.696849692237E+03   -0.82176E-04   -0.14961E-04  8782   0.232E-02    0.134E-01
RMM:   5    -0.696849623918E+03    0.68319E-04   -0.76822E-05  8368   0.175E-02    0.115E-01
RMM:   6    -0.696849617432E+03    0.64862E-05   -0.42043E-05  8239   0.127E-02    0.105E-01
RMM:   7    -0.696849555013E+03    0.62419E-04   -0.24898E-05  7708   0.998E-03    0.442E-02
RMM:   8    -0.696849554067E+03    0.94651E-06   -0.10456E-05  6909   0.663E-03
  16 F= -.69684955E+03 E0= -.69628119E+03  d E =-.129905E-01  mag=     3.7918
 trial-energy change:   -0.012990  1 .order   -0.012858   -0.015853   -0.009864
 step:   0.1026(harm=  0.1026)  dis= 0.00402  next Energy=  -696.857545 (dE=-0.210E-01)
 bond charge predicted
       N       E                     dE             d eps       ncg     rms          rms(c)
DAV:   1    -0.696851435263E+03   -0.18802E-02   -0.45286E-01 15296   0.969E-01    0.198E-01
RMM:   2    -0.696854835011E+03   -0.33997E-02   -0.98279E-03 14839   0.172E-01    0.662E-01
RMM:   3    -0.696852269606E+03    0.25654E-02   -0.16538E-03 14255   0.706E-02    0.187E-01
RMM:   4    -0.696852539294E+03   -0.26969E-03   -0.43923E-04 11145   0.364E-02    0.211E-01
RMM:   5    -0.696852554439E+03   -0.15146E-04   -0.22393E-04  9682   0.276E-02    0.248E-01
RMM:   6    -0.696852383041E+03    0.17140E-03   -0.12945E-04  8703   0.229E-02    0.173E-01
RMM:   7    -0.696852234434E+03    0.14861E-03   -0.72000E-05  8448   0.166E-02    0.799E-02
RMM:   8    -0.696852236302E+03   -0.18683E-05   -0.37256E-05  8080   0.118E-02
  17 F= -.69685224E+03 E0= -.69628388E+03  d E =-.156727E-01  mag=     3.7886
 curvature:  -0.07 expect dE=-0.333E-01 dE for cont linesearch -0.575E-02
 ZBRENT: interpolating
 opt :   0.0734  next Energy=  -696.855360 (dE=-0.188E-01)
 bond charge predicted
       N       E                     dE             d eps       ncg     rms          rms(c)
DAV:   1    -0.696854579726E+03   -0.23453E-02   -0.94803E-02 15344   0.444E-01    0.939E-02
RMM:   2    -0.696856108707E+03   -0.15290E-02   -0.21493E-03 14556   0.807E-02    0.445E-01
RMM:   3    -0.696854874251E+03    0.12345E-02   -0.36385E-04 10283   0.350E-02    0.113E-01
RMM:   4    -0.696854930878E+03   -0.56627E-04   -0.10309E-04  8340   0.203E-02    0.114E-01
RMM:   5    -0.696854958998E+03   -0.28120E-04   -0.37805E-05  8080   0.129E-02    0.743E-02
RMM:   6    -0.696855020076E+03   -0.61078E-04   -0.33052E-05  7919   0.105E-02    0.941E-02
RMM:   7    -0.696855055597E+03   -0.35521E-04   -0.20515E-05  7451   0.941E-03    0.550E-02
RMM:   8    -0.696855074408E+03   -0.18811E-04   -0.95360E-06  6912   0.608E-03
  18 F= -.69685507E+03 E0= -.69628675E+03  d E =-.185108E-01  mag=     3.7867
 curvature:  -0.04 expect dE=-0.990E-02 dE for cont linesearch -0.947E-04
 trial: gam= 0.46645 g(F)=  0.272E+00 g(S)=  0.000E+00 ort = 0.373E-01 (trialstep = 0.457E-01)
 search vector abs. value=  0.423E+00
 bond charge predicted
       N       E                     dE             d eps       ncg     rms          rms(c)
DAV:   1    -0.696860883139E+03   -0.58275E-02   -0.19670E-01 15360   0.628E-01    0.117E-01
RMM:   2    -0.696861641006E+03   -0.75787E-03   -0.42465E-03 14221   0.108E-01    0.308E-01
RMM:   3    -0.696861327553E+03    0.31345E-03   -0.65922E-04 11710   0.435E-02    0.123E-01
RMM:   4    -0.696861758174E+03   -0.43062E-03   -0.17388E-04  8945   0.238E-02    0.289E-01
RMM:   5    -0.696861408077E+03    0.35010E-03   -0.72981E-05  8383   0.180E-02    0.172E-01
RMM:   6    -0.696861280349E+03    0.12773E-03   -0.44103E-05  8246   0.128E-02    0.116E-01
RMM:   7    -0.696861231967E+03    0.48382E-04   -0.30860E-05  7907   0.106E-02    0.594E-02
RMM:   8    -0.696861220300E+03    0.11667E-04   -0.12434E-05  7047   0.743E-03
  19 F= -.69686122E+03 E0= -.69629271E+03  d E =-.614589E-02  mag=     3.7842
 trial-energy change:   -0.006146  1 .order   -0.006059   -0.013207    0.001089
 step:   0.0422(harm=  0.0422)  dis= 0.00292  next Energy=  -696.861175 (dE=-0.610E-02)
 bond charge predicted
       N       E                     dE             d eps       ncg     rms          rms(c)
DAV:   1    -0.696861267595E+03   -0.35628E-04   -0.11805E-03 14816   0.507E-02    0.453E-02
RMM:   2    -0.696861672833E+03   -0.40524E-03   -0.80597E-05  8014   0.146E-02    0.239E-01
RMM:   3    -0.696861402073E+03    0.27076E-03   -0.48533E-05  7938   0.147E-02    0.125E-01
RMM:   4    -0.696861316883E+03    0.85190E-04   -0.14689E-05  7307   0.811E-03    0.375E-02
RMM:   5    -0.696861332580E+03   -0.15697E-04   -0.52261E-06  6388   0.499E-03    0.302E-02
RMM:   6    -0.696861359656E+03   -0.27075E-04   -0.15039E-06  3951   0.337E-03    0.140E-02
RMM:   7    -0.696861375102E+03   -0.15446E-04   -0.16675E-07  1776   0.261E-03    0.797E-03
RMM:   8    -0.696861392443E+03   -0.17341E-04   -0.14579E-07  1718   0.258E-03
  20 F= -.69686139E+03 E0= -.69629291E+03  d E =-.631803E-02  mag=     3.7825
 curvature:  -0.03 expect dE=-0.565E-02 dE for cont linesearch -0.580E-08
 trial: gam= 0.50072 g(F)=  0.183E+00 g(S)=  0.000E+00 ort =-0.282E-03 (trialstep = 0.450E-01)
 search vector abs. value=  0.289E+00
 bond charge predicted
       N       E                     dE             d eps       ncg     rms          rms(c)
DAV:   1    -0.696867989715E+03   -0.66146E-02   -0.10780E-01 15232   0.446E-01    0.100E-01
RMM:   2    -0.696868183974E+03   -0.19426E-03   -0.19753E-03 13133   0.644E-02    0.116E-01
RMM:   3    -0.696868607610E+03   -0.42364E-03   -0.28664E-04  9411   0.285E-02    0.258E-01
RMM:   4    -0.696868323949E+03    0.28366E-03   -0.11707E-04  8363   0.208E-02    0.182E-01
RMM:   5    -0.696868245132E+03    0.78817E-04   -0.49235E-05  8175   0.152E-02    0.120E-01
RMM:   6    -0.696868162449E+03    0.82683E-04   -0.20825E-05  7605   0.908E-03    0.505E-02
RMM:   7    -0.696868157503E+03    0.49464E-05   -0.11350E-05  7013   0.677E-03    0.302E-02
RMM:   8    -0.696868171081E+03   -0.13578E-04   -0.40878E-06  6105   0.459E-03
  21 F= -.69686817E+03 E0= -.69629965E+03  d E =-.677864E-02  mag=     3.7806
 trial-energy change:   -0.006779  1 .order   -0.006536   -0.008230   -0.004842
 step:   0.1093(harm=  0.1093)  dis= 0.00655  next Energy=  -696.871388 (dE=-0.100E-01)
 bond charge predicted
       N       E                     dE             d eps       ncg     rms          rms(c)
DAV:   1    -0.696866568121E+03    0.15894E-02   -0.22005E-01 15104   0.639E-01    0.145E-01
RMM:   2    -0.696866906843E+03   -0.33872E-03   -0.40223E-03 14307   0.920E-02    0.134E-01
RMM:   3    -0.696867545082E+03   -0.63824E-03   -0.55909E-04 11467   0.403E-02    0.307E-01
RMM:   4    -0.696867732894E+03   -0.18781E-03   -0.25442E-04  9939   0.274E-02    0.375E-01
RMM:   5    -0.696867031272E+03    0.70162E-03   -0.10928E-04  8453   0.223E-02    0.162E-01
RMM:   6    -0.696866944041E+03    0.87231E-04   -0.56645E-05  8218   0.142E-02    0.101E-01
RMM:   7    -0.696866895767E+03    0.48274E-04   -0.28268E-05  7802   0.109E-02    0.416E-02
RMM:   8    -0.696866905311E+03   -0.95435E-05   -0.12237E-05  7172   0.697E-03
  22 F= -.69686691E+03 E0= -.69629835E+03  d E =-.551287E-02  mag=     3.7788
 curvature:  -0.09 expect dE=-0.308E-01 dE for cont linesearch -0.910E-02
 ZBRENT: interpolating
 opt :   0.0695  next Energy=  -696.869491 (dE=-0.810E-02)
 bond charge predicted
       N       E                     dE             d eps       ncg     rms          rms(c)
DAV:   1    -0.696869670497E+03   -0.27747E-02   -0.84513E-02 15328   0.397E-01    0.906E-02
RMM:   2    -0.696870041359E+03   -0.37086E-03   -0.15542E-03 12815   0.573E-02    0.204E-01
RMM:   3    -0.696869922479E+03    0.11888E-03   -0.21911E-04  8928   0.258E-02    0.124E-01
RMM:   4    -0.696869986490E+03   -0.64011E-04   -0.84535E-05  8265   0.179E-02    0.148E-01
RMM:   5    -0.696869917910E+03    0.68580E-04   -0.36471E-05  8039   0.133E-02    0.673E-02
RMM:   6    -0.696869957419E+03   -0.39509E-04   -0.21114E-05  7376   0.826E-03    0.774E-02
RMM:   7    -0.696869947471E+03    0.99478E-05   -0.11721E-05  7003   0.741E-03    0.212E-02
RMM:   8    -0.696869959797E+03   -0.12326E-04   -0.39478E-06  5674   0.421E-03
  23 F= -.69686996E+03 E0= -.69630139E+03  d E =-.856735E-02  mag=     3.7777
 curvature:  -0.01 expect dE=-0.192E-02 dE for cont linesearch -0.190E-04
 trial: gam= 0.45110 g(F)=  0.154E+00 g(S)=  0.000E+00 ort = 0.209E-01 (trialstep = 0.499E-01)
 search vector abs. value=  0.231E+00
 bond charge predicted
       N       E                     dE             d eps       ncg     rms          rms(c)
DAV:   1    -0.696872549681E+03   -0.26022E-02   -0.11401E-01 15344   0.482E-01    0.108E-01
RMM:   2    -0.696872944603E+03   -0.39492E-03   -0.22990E-03 13718   0.760E-02    0.202E-01
RMM:   3    -0.696873061092E+03   -0.11649E-03   -0.34084E-04  9986   0.328E-02    0.249E-01
RMM:   4    -0.696872729237E+03    0.33186E-03   -0.95974E-05  8370   0.208E-02    0.707E-02
RMM:   5    -0.696872790408E+03   -0.61171E-04   -0.53795E-05  8216   0.144E-02    0.106E-01
RMM:   6    -0.696872781951E+03    0.84561E-05   -0.36192E-05  8038   0.122E-02    0.831E-02
RMM:   7    -0.696872770076E+03    0.11876E-04   -0.21905E-05  7420   0.931E-03    0.488E-02
RMM:   8    -0.696872769687E+03    0.38884E-06   -0.93292E-06  6629   0.624E-03
  24 F= -.69687277E+03 E0= -.69630433E+03  d E =-.280989E-02  mag=     3.7769
 trial-energy change:   -0.002810  1 .order   -0.002501   -0.008142    0.003140
 step:   0.0360(harm=  0.0360)  dis= 0.00174  next Energy=  -696.872898 (dE=-0.294E-02)
 bond charge predicted
       N       E                     dE             d eps       ncg     rms          rms(c)
DAV:   1    -0.696873163491E+03   -0.39342E-03   -0.88778E-03 15328   0.135E-01    0.391E-02
RMM:   2    -0.696873592280E+03   -0.42879E-03   -0.21770E-04  8554   0.231E-02    0.250E-01
RMM:   3    -0.696873201201E+03    0.39108E-03   -0.53125E-05  7980   0.156E-02    0.719E-02
RMM:   4    -0.696873197690E+03    0.35117E-05   -0.13145E-05  7392   0.774E-03    0.323E-02
RMM:   5    -0.696873200249E+03   -0.25595E-05   -0.42917E-06  5979   0.461E-03    0.187E-02
RMM:   6    -0.696873216225E+03   -0.15976E-04   -0.35401E-06  5287   0.401E-03    0.313E-02
RMM:   7    -0.696873219555E+03   -0.33302E-05   -0.13425E-06  4187   0.343E-03    0.154E-02
RMM:   8    -0.696873226138E+03   -0.65830E-05   -0.55730E-07  2476   0.290E-03
  25 F= -.69687323E+03 E0= -.69630475E+03  d E =-.326634E-02  mag=     3.7762
 curvature:  -0.03 expect dE=-0.912E-03 dE for cont linesearch -0.324E-05
 trial: gam= 0.07205 g(F)=  0.357E-01 g(S)=  0.000E+00 ort = 0.542E-02 (trialstep = 0.471E-01)
 search vector abs. value=  0.377E-01
 bond charge predicted
       N       E                     dE             d eps       ncg     rms          rms(c)
DAV:   1    -0.696874089054E+03   -0.86950E-03   -0.17021E-02 15360   0.182E-01    0.379E-02
RMM:   2    -0.696874122900E+03   -0.33846E-04   -0.34263E-04  8981   0.281E-02    0.504E-02
RMM:   3    -0.696874134237E+03   -0.11337E-04   -0.43177E-05  7909   0.132E-02    0.426E-02
RMM:   4    -0.696874187466E+03   -0.53229E-04   -0.14146E-05  7135   0.689E-03    0.962E-02
RMM:   5    -0.696874140068E+03    0.47397E-04   -0.75093E-06  6665   0.586E-03    0.397E-02
RMM:   6    -0.696874139748E+03    0.32059E-06   -0.35127E-06  5833   0.425E-03    0.297E-02
RMM:   7    -0.696874143163E+03   -0.34156E-05   -0.18278E-06  4340   0.350E-03    0.846E-03
RMM:   8    -0.696874147372E+03   -0.42089E-05   -0.19909E-07  1847   0.275E-03
  26 F= -.69687415E+03 E0= -.69630571E+03  d E =-.921234E-03  mag=     3.7756
 trial-energy change:   -0.000921  1 .order   -0.000903   -0.001701   -0.000105
 step:   0.0502(harm=  0.0502)  dis= 0.00091  next Energy=  -696.874133 (dE=-0.906E-03)
 bond charge predicted
       N       E                     dE             d eps       ncg     rms          rms(c)
DAV:   1    -0.696874152385E+03   -0.92215E-05   -0.71736E-05 10896   0.128E-02    0.101E-02
RMM:   2    -0.696874165906E+03   -0.13521E-04   -0.62226E-06  6067   0.525E-03    0.390E-02
RMM:   3    -0.696874158180E+03    0.77265E-05   -0.18144E-06  4934   0.362E-03    0.140E-02
RMM:   4    -0.696874158654E+03   -0.47420E-06   -0.16313E-08  1181   0.214E-03    0.137E-02
RMM:   5    -0.696874160006E+03   -0.13526E-05   -0.46372E-09  1124   0.209E-03    0.769E-03
RMM:   6    -0.696874162300E+03   -0.22937E-05   -0.17880E-09  1031   0.206E-03    0.758E-03
RMM:   7    -0.696874166278E+03   -0.39779E-05   -0.76000E-10   999   0.205E-03    0.571E-03
RMM:   8    -0.696874168051E+03   -0.17728E-05    0.00000E+00   979   0.207E-03
  27 F= -.69687417E+03 E0= -.69630574E+03  d E =-.941913E-03  mag=     3.7751
 curvature:  -0.03 expect dE=-0.307E-03 dE for cont linesearch -0.602E-07
 trial: gam= 0.34908 g(F)=  0.117E-01 g(S)=  0.000E+00 ort =-0.294E-03 (trialstep = 0.477E-01)
 search vector abs. value=  0.161E-01
 bond charge predicted
       N       E                     dE             d eps       ncg     rms          rms(c)
DAV:   1    -0.696874630666E+03   -0.46439E-03   -0.34244E-03 14992   0.780E-02    0.196E-02
RMM:   2    -0.696874650414E+03   -0.19748E-04   -0.73496E-05  7934   0.162E-02    0.518E-02
RMM:   3    -0.696874645846E+03    0.45682E-05   -0.12960E-05  7605   0.825E-03    0.301E-02
RMM:   4    -0.696874650467E+03   -0.46219E-05   -0.40752E-06  6246   0.418E-03    0.443E-02
RMM:   5    -0.696874652792E+03   -0.23245E-05   -0.18642E-06  4661   0.354E-03    0.382E-02
RMM:   6    -0.696874646623E+03    0.61689E-05   -0.98043E-07  3789   0.321E-03    0.209E-02
RMM:   7    -0.696874646070E+03    0.55315E-06   -0.42487E-07  2511   0.292E-03    0.735E-03
RMM:   8    -0.696874647834E+03   -0.17637E-05   -0.20877E-07  1645   0.279E-03
  28 F= -.69687465E+03 E0= -.69630623E+03  d E =-.479783E-03  mag=     3.7746
 trial-energy change:   -0.000480  1 .order   -0.000465   -0.000555   -0.000376
 step:   0.1479(harm=  0.1479)  dis= 0.00113  next Energy=  -696.875028 (dE=-0.860E-03)
 bond charge predicted
       N       E                     dE             d eps       ncg     rms          rms(c)
DAV:   1    -0.696875031730E+03   -0.38566E-03   -0.15041E-02 15360   0.164E-01    0.422E-02
RMM:   2    -0.696875074698E+03   -0.42969E-04   -0.31235E-04  9450   0.330E-02    0.695E-02
RMM:   3    -0.696875071722E+03    0.29760E-05   -0.54244E-05  7961   0.158E-02    0.521E-02
RMM:   4    -0.696875087641E+03   -0.15919E-04   -0.15758E-05  7384   0.799E-03    0.622E-02
RMM:   5    -0.696875120394E+03   -0.32753E-04   -0.14688E-05  7189   0.656E-03    0.985E-02
RMM:   6    -0.696875071177E+03    0.49217E-04   -0.80690E-06  7082   0.635E-03    0.464E-02
RMM:   7    -0.696875061730E+03    0.94466E-05   -0.34514E-06  5759   0.407E-03    0.195E-02
RMM:   8    -0.696875062212E+03   -0.48137E-06   -0.14972E-06  3851   0.327E-03
  29 F= -.69687506E+03 E0= -.69630669E+03  d E =-.894161E-03  mag=     3.7741
 curvature:  -0.10 expect dE=-0.242E-02 dE for cont linesearch -0.578E-06
 trial: gam= 1.98149 g(F)=  0.236E-01 g(S)=  0.000E+00 ort = 0.302E-03 (trialstep = 0.124E-01)
 search vector abs. value=  0.881E-01
 bond charge predicted
       N       E                     dE             d eps       ncg     rms          rms(c)
DAV:   1    -0.696875342288E+03   -0.28056E-03   -0.95575E-04 14816   0.399E-02    0.126E-02
RMM:   2    -0.696875346870E+03   -0.45825E-05   -0.17663E-05  7790   0.878E-03    0.233E-02
RMM:   3    -0.696875347520E+03   -0.65006E-06   -0.37137E-06  6528   0.456E-03    0.170E-02
RMM:   4    -0.696875353706E+03   -0.61857E-05   -0.63553E-07  2893   0.283E-03    0.376E-02
RMM:   5    -0.696875350021E+03    0.36847E-05   -0.18011E-07  2315   0.273E-03    0.233E-02
RMM:   6    -0.696875349405E+03    0.61604E-06   -0.32829E-08  1516   0.263E-03    0.163E-02
RMM:   7    -0.696875349247E+03    0.15862E-06   -0.56478E-08  1320   0.253E-03    0.830E-03
RMM:   8    -0.696875349702E+03   -0.45507E-06   -0.13991E-08  1190   0.245E-03
  30 F= -.69687535E+03 E0= -.69630698E+03  d E =-.287490E-03  mag=     3.7736
 ZBRENT: can't locate minimum, use default step
 trial-energy change:   -0.000287  1 .order   -0.000283   -0.000300   -0.000266
 step:   0.0496(harm=  0.1083)  dis= 0.00104  next Energy=  -696.876374 (dE=-0.131E-02)
 bond charge predicted
       N       E                     dE             d eps       ncg     rms          rms(c)
DAV:   1    -0.696875954988E+03   -0.60574E-03   -0.85297E-03 15344   0.118E-01    0.326E-02
RMM:   2    -0.696875981264E+03   -0.26276E-04   -0.13868E-04  8272   0.245E-02    0.622E-02
RMM:   3    -0.696875976376E+03    0.48873E-05   -0.29097E-05  7796   0.119E-02    0.394E-02
RMM:   4    -0.696876007565E+03   -0.31189E-04   -0.11747E-05  6974   0.656E-03    0.835E-02
RMM:   5    -0.696875979515E+03    0.28050E-04   -0.79723E-06  7407   0.599E-03    0.433E-02
RMM:   6    -0.696875973984E+03    0.55309E-05   -0.38840E-06  6321   0.417E-03    0.311E-02
RMM:   7    -0.696875970721E+03    0.32635E-05   -0.12999E-06  3986   0.339E-03    0.948E-03
RMM:   8    -0.696875971455E+03   -0.73429E-06   -0.10305E-07  1786   0.273E-03
  31 F= -.69687597E+03 E0= -.69630762E+03  d E =-.909244E-03  mag=     3.7731
 curvature:  -0.12 expect dE=-0.916E-03 dE for cont linesearch -0.169E-03
 ZBRENT: increasing intervall
 opt :   0.1240  next Energy=  -696.876013 (dE=-0.950E-03)
 bond charge predicted
       N       E                     dE             d eps       ncg     rms          rms(c)
DAV:   1    -0.696875741561E+03    0.22916E-03   -0.33857E-02 15264   0.234E-01    0.633E-02
RMM:   2    -0.696876012180E+03   -0.27062E-03   -0.53763E-04 13123   0.482E-02    0.202E-01
RMM:   3    -0.696875789279E+03    0.22290E-03   -0.13592E-04  8474   0.206E-02    0.708E-02
RMM:   4    -0.696875851734E+03   -0.62455E-04   -0.38449E-05  8047   0.135E-02    0.116E-01
RMM:   5    -0.696875851000E+03    0.73369E-06   -0.27373E-05  7956   0.958E-03    0.108E-01
RMM:   6    -0.696875809761E+03    0.41239E-04   -0.21632E-05  7686   0.932E-03    0.730E-02
RMM:   7    -0.696875800694E+03    0.90677E-05   -0.10856E-05  6943   0.675E-03    0.515E-02
RMM:   8    -0.696875794884E+03    0.58099E-05   -0.37718E-06  5692   0.415E-03
  32 F= -.69687579E+03 E0= -.69630753E+03  d E =-.732672E-03  mag=     3.7726
 curvature:  -0.03 expect dE=-0.408E-03 dE for cont linesearch -0.856E-04
 ZBRENT: bracketing found
 ZBRENT: interpolating
 opt :   0.0801  next Energy=  -696.876139 (dE=-0.108E-02)
 bond charge predicted
       N       E                     dE             d eps       ncg     rms          rms(c)
DAV:   1    -0.696876131875E+03   -0.33118E-03   -0.11802E-02 15376   0.139E-01    0.450E-02
RMM:   2    -0.696876875567E+03   -0.74369E-03   -0.25199E-04  9716   0.313E-02    0.330E-01
RMM:   3    -0.696876107610E+03    0.76796E-03   -0.66942E-05  8018   0.189E-02    0.548E-02
RMM:   4    -0.696876147681E+03   -0.40071E-04   -0.18705E-05  7752   0.893E-03    0.440E-02
RMM:   5    -0.696876173023E+03   -0.25342E-04   -0.83546E-06  6980   0.604E-03    0.623E-02
RMM:   6    -0.696876173707E+03   -0.68391E-06   -0.74700E-06  7153   0.541E-03    0.612E-02
RMM:   7    -0.696876162379E+03    0.11328E-04   -0.52516E-06  6613   0.452E-03    0.296E-02
RMM:   8    -0.696876160812E+03    0.15667E-05   -0.14654E-06  3907   0.334E-03
  33 F= -.69687616E+03 E0= -.69630786E+03  d E =-.109860E-02  mag=     3.7723
 curvature:  -0.06 expect dE=-0.297E-03 dE for cont linesearch -0.299E-08
 trial: gam= 0.06957 g(F)=  0.506E-02 g(S)=  0.000E+00 ort = 0.670E-04 (trialstep = 0.259E-01)
 search vector abs. value=  0.549E-02
 bond charge predicted
       N       E                     dE             d eps       ncg     rms          rms(c)
DAV:   1    -0.696876258469E+03   -0.96090E-04   -0.73045E-04 14800   0.405E-02    0.120E-02
RMM:   2    -0.696876267897E+03   -0.94279E-05   -0.18938E-05  7794   0.785E-03    0.369E-02
RMM:   3    -0.696876268373E+03   -0.47680E-06   -0.35523E-06  6493   0.457E-03    0.322E-02
RMM:   4    -0.696876262773E+03    0.56008E-05   -0.13469E-07  1865   0.253E-03    0.131E-02
RMM:   5    -0.696876262905E+03   -0.13239E-06   -0.30219E-08  1381   0.232E-03    0.644E-03
RMM:   6    -0.696876264591E+03   -0.16865E-05   -0.65152E-08  1225   0.240E-03    0.764E-03
RMM:   7    -0.696876266652E+03   -0.20606E-05   -0.36421E-08  1204   0.239E-03    0.421E-03
RMM:   8    -0.696876267711E+03   -0.10590E-05   -0.18046E-09  1087   0.242E-03
  34 F= -.69687627E+03 E0= -.69630797E+03  d E =-.106899E-03  mag=     3.7720
 trial-energy change:   -0.000107  1 .order   -0.000097   -0.000131   -0.000062
 step:   0.0493(harm=  0.0493)  dis= 0.00034  next Energy=  -696.876286 (dE=-0.125E-03)
 bond charge predicted
       N       E                     dE             d eps       ncg     rms          rms(c)
DAV:   1    -0.696876295667E+03   -0.29015E-04   -0.58656E-04 14880   0.363E-02    0.765E-03
RMM:   2    -0.696876298368E+03   -0.27009E-05   -0.13799E-05  7552   0.683E-03    0.141E-02
RMM:   3    -0.696876298258E+03    0.10952E-06   -0.13247E-06  3901   0.347E-03    0.634E-03
RMM:   4    -0.696876303504E+03   -0.52452E-05   -0.43947E-08  1329   0.253E-03    0.265E-02
RMM:   5    -0.696876300142E+03    0.33611E-05   -0.14825E-08  1306   0.251E-03    0.106E-02
RMM:   6    -0.696876301644E+03   -0.15015E-05   -0.11508E-08  1125   0.246E-03    0.973E-03
RMM:   7    -0.696876302721E+03   -0.10775E-05   -0.33701E-08  1100   0.245E-03    0.726E-03
RMM:   8    -0.696876303662E+03   -0.94021E-06   -0.39349E-08  1048   0.243E-03
  35 F= -.69687630E+03 E0= -.69630801E+03  d E =-.142849E-03  mag=     3.7718
 curvature:  -0.03 expect dE=-0.539E-04 dE for cont linesearch -0.162E-07
 trial: gam= 0.40310 g(F)=  0.202E-02 g(S)=  0.000E+00 ort =-0.577E-04 (trialstep = 0.306E-01)
 search vector abs. value=  0.286E-02
 bond charge predicted
       N       E                     dE             d eps       ncg     rms          rms(c)
DAV:   1    -0.696876357513E+03   -0.54791E-04   -0.34093E-04 14208   0.252E-02    0.602E-03
RMM:   2    -0.696876359618E+03   -0.21048E-05   -0.89880E-06  7670   0.621E-03    0.847E-03
RMM:   3    -0.696876359937E+03   -0.31957E-06   -0.78577E-07  3271   0.308E-03    0.539E-03
RMM:   4    -0.696876361372E+03   -0.14344E-05   -0.26253E-08  1232   0.254E-03    0.117E-02
RMM:   5    -0.696876361890E+03   -0.51805E-06   -0.29063E-09  1193   0.255E-03    0.114E-02
RMM:   6    -0.696876361993E+03   -0.10339E-06   -0.23597E-09  1073   0.256E-03    0.493E-03
RMM:   7    -0.696876363097E+03   -0.11039E-05   -0.46963E-09   953   0.257E-03    0.262E-03
RMM:   8    -0.696876363830E+03   -0.73309E-06   -0.46347E-09   942   0.258E-03
  36 F= -.69687636E+03 E0= -.69630808E+03  d E =-.601685E-04  mag=     3.7716
 trial-energy change:   -0.000060  1 .order   -0.000053   -0.000061   -0.000044
 step:   0.1128(harm=  0.1128)  dis= 0.00064  next Energy=  -696.876416 (dE=-0.112E-03)
 bond charge predicted
       N       E                     dE             d eps       ncg     rms          rms(c)
DAV:   1    -0.696876429865E+03   -0.66768E-04   -0.24359E-03 14928   0.671E-02    0.150E-02
RMM:   2    -0.696876441287E+03   -0.11422E-04   -0.52732E-05  7824   0.151E-02    0.411E-02
RMM:   3    -0.696876435410E+03    0.58770E-05   -0.10016E-05  7715   0.731E-03    0.161E-02
RMM:   4    -0.696876443021E+03   -0.76106E-05   -0.27560E-06  5676   0.382E-03    0.387E-02
RMM:   5    -0.696876439149E+03    0.38715E-05   -0.68903E-07  3541   0.317E-03    0.267E-02
RMM:   6    -0.696876436773E+03    0.23767E-05   -0.48185E-07  2559   0.300E-03    0.120E-02
RMM:   7    -0.696876438070E+03   -0.12971E-05   -0.75167E-07  2714   0.298E-03    0.841E-03
RMM:   8    -0.696876438434E+03   -0.36437E-06   -0.84864E-08  1364   0.265E-03
  37 F= -.69687644E+03 E0= -.69630816E+03  d E =-.134772E-03  mag=     3.7714
 curvature:  -0.08 expect dE=-0.116E-03 dE for cont linesearch -0.377E-06
 trial: gam= 0.64942 g(F)=  0.143E-02 g(S)=  0.000E+00 ort = 0.115E-03 (trialstep = 0.470E-01)
 search vector abs. value=  0.279E-02
 bond charge predicted
       N       E                     dE             d eps       ncg     rms          rms(c)
DAV:   1    -0.696876486381E+03   -0.48312E-04   -0.97791E-04 14848   0.430E-02    0.115E-02
RMM:   2    -0.696876500112E+03   -0.13731E-04   -0.21505E-05  7840   0.891E-03    0.381E-02
RMM:   3    -0.696876492702E+03    0.74106E-05   -0.47886E-06  7149   0.489E-03    0.333E-02
RMM:   4    -0.696876489858E+03    0.28441E-05   -0.33728E-07  2667   0.282E-03    0.178E-02
RMM:   5    -0.696876490384E+03   -0.52665E-06   -0.95933E-09  1486   0.259E-03    0.180E-02
RMM:   6    -0.696876489824E+03    0.56003E-06   -0.52299E-08  1285   0.267E-03    0.107E-02
RMM:   7    -0.696876490482E+03   -0.65794E-06   -0.87282E-08  1335   0.274E-03    0.719E-03
RMM:   8    -0.696876490607E+03   -0.12435E-06   -0.52557E-08  1171   0.268E-03
  38 F= -.69687649E+03 E0= -.69630822E+03  d E =-.521725E-04  mag=     3.7712
 trial-energy change:   -0.000052  1 .order   -0.000049   -0.000071   -0.000028
 step:   0.0778(harm=  0.0778)  dis= 0.00039  next Energy=  -696.876497 (dE=-0.587E-04)
 reached required accuracy - stopping structural energy minimisation
 writing wavefunctions
