 ----------------------------------------------------
    OOO  PPPP  EEEEE N   N M   M PPPP
   O   O P   P E     NN  N MM MM P   P
   O   O PPPP  EEEEE N N N M M M PPPP   -- VERSION
   O   O P     E     N  NN M   M P
    OOO  P     EEEEE N   N M   M P
 ----------------------------------------------------
 running   16 mpi-ranks, with    4 threads/rank
 distrk:  each k-point on   16 cores,    1 groups
 distr:  one band on    1 cores,   16 groups
 vasp.6.2.1 16May21 (build Jul 28 2021 23:24:15) complex                        
  
 POSCAR found type information on POSCAR H IrO 
 POSCAR found :  3 types and     102 ions
 scaLAPACK will be used
 -----------------------------------------------------------------------------
|                                                                             |
|           W    W    AA    RRRRR   N    N  II  N    N   GGGG   !!!           |
|           W    W   A  A   R    R  NN   N  II  NN   N  G    G  !!!           |
|           W    W  A    A  R    R  N N  N  II  N N  N  G       !!!           |
|           W WW W  AAAAAA  RRRRR   N  N N  II  N  N N  G  GGG   !            |
|           WW  WW  A    A  R   R   N   NN  II  N   NN  G    G                |
|           W    W  A    A  R    R  N    N  II  N    N   GGGG   !!!           |
|                                                                             |
|     The real-space projection scheme for the treatment of the non-local     |
|     pseudopotentials has been switched on but on file POTCAR I have not     |
|     found any entries, signalling me that you have never performed a        |
|     real-space optimization of all non-local projectors! BE WARNED that     |
|     a calculation using the real-space projection scheme together with      |
|     non-local projectors which were not real-space optimized (according     |
|     to the plane-wave cutoff used in this calculation) might give more      |
|     or less inaccurate results. I hope you know what you are doing.         |
|                                                                             |
 -----------------------------------------------------------------------------

 LDA part: xc-table for Pade appr. of Perdew
 POSCAR, INCAR and KPOINTS ok, starting setup
 FFT: planning ...
 WAVECAR not read
 WARNING: random wavefunctions but no delay for mixing, default for NELMDL
 entering main loop
       N       E                     dE             d eps       ncg     rms          rms(c)
DAV:   1     0.764326941828E+04    0.76433E+04   -0.29975E+05 15152   0.126E+03
DAV:   2     0.607352448197E+03   -0.70359E+04   -0.63516E+04 16096   0.375E+02
DAV:   3    -0.758646318166E+03   -0.13660E+04   -0.13139E+04 18656   0.166E+02
DAV:   4    -0.833166730421E+03   -0.74520E+02   -0.72648E+02 20640   0.431E+01
DAV:   5    -0.834771382306E+03   -0.16047E+01   -0.15767E+01 19360   0.583E+00    0.187E+02
RMM:   6    -0.697992523046E+03    0.13678E+03   -0.63389E+02 14895   0.403E+01    0.171E+02
RMM:   7    -0.147263657794E+04   -0.77464E+03   -0.42493E+02 16666   0.277E+01    0.384E+02
RMM:   8    -0.134443938848E+04    0.12820E+03   -0.12009E+02 18985   0.113E+01    0.364E+02
RMM:   9    -0.136840086984E+04   -0.23961E+02   -0.54181E+01 15443   0.104E+01    0.375E+02
RMM:  10    -0.118201546112E+04    0.18639E+03   -0.63885E+02 22699   0.287E+01    0.344E+02
RMM:  11    -0.126842385768E+04   -0.86408E+02   -0.91156E+01 17642   0.984E+00    0.310E+02
RMM:  12    -0.124349791029E+04    0.24926E+02   -0.26912E+02 20341   0.148E+01    0.194E+02
RMM:  13    -0.117851170182E+04    0.64986E+02   -0.32464E+02 23009   0.217E+01    0.249E+02
RMM:  14    -0.940631932253E+03    0.23788E+03   -0.21866E+01 15571   0.733E+00    0.187E+02
RMM:  15    -0.722821969898E+03    0.21781E+03   -0.76328E+01 18919   0.111E+01    0.141E+02
RMM:  16    -0.643136158682E+03    0.79686E+02   -0.28742E+01 16705   0.693E+00    0.123E+02
RMM:  17    -0.650547109322E+03   -0.74110E+01   -0.22464E+01 16405   0.673E+00    0.111E+02
RMM:  18    -0.647049734386E+03    0.34974E+01   -0.31464E+00 17108   0.260E+00    0.109E+02
RMM:  19    -0.645895225220E+03    0.11545E+01   -0.15283E+00 15085   0.198E+00    0.104E+02
RMM:  20    -0.648199275873E+03   -0.23041E+01   -0.16464E+00 15362   0.200E+00    0.996E+01
RMM:  21    -0.652519661768E+03   -0.43204E+01   -0.56606E+00 18986   0.352E+00    0.890E+01
RMM:  22    -0.648333508827E+03    0.41862E+01   -0.15175E+01 22157   0.579E+00    0.642E+01
RMM:  23    -0.650213434833E+03   -0.18799E+01   -0.53421E+00 19532   0.346E+00    0.487E+01
RMM:  24    -0.649827250703E+03    0.38618E+00   -0.47273E-01 16056   0.110E+00    0.466E+01
RMM:  25    -0.649899742235E+03   -0.72492E-01   -0.21536E-01 16365   0.690E-01    0.453E+01
RMM:  26    -0.650075961167E+03   -0.17622E+00   -0.53599E-01 16957   0.106E+00    0.429E+01
RMM:  27    -0.650720124651E+03   -0.64416E+00   -0.92430E-01 19123   0.140E+00    0.379E+01
RMM:  28    -0.655557863348E+03   -0.48377E+01   -0.22432E+00 21545   0.210E+00    0.294E+01
RMM:  29    -0.661367796360E+03   -0.58099E+01   -0.20569E+00 20935   0.205E+00    0.235E+01
RMM:  30    -0.666235916747E+03   -0.48681E+01   -0.24868E+00 21822   0.228E+00    0.202E+01
RMM:  31    -0.665071466555E+03    0.11645E+01   -0.53975E-01 17708   0.108E+00    0.155E+01
RMM:  32    -0.670586951021E+03   -0.55155E+01   -0.99690E-01 18905   0.143E+00    0.141E+01
RMM:  33    -0.674779459566E+03   -0.41925E+01   -0.84703E-01 18359   0.128E+00    0.142E+01
RMM:  34    -0.676887614752E+03   -0.21082E+01   -0.11861E+00 19631   0.157E+00    0.171E+01
RMM:  35    -0.677088926724E+03   -0.20131E+00   -0.59628E-01 18730   0.113E+00    0.158E+01
RMM:  36    -0.677976668915E+03   -0.88774E+00   -0.52584E-01 18766   0.107E+00    0.192E+01
RMM:  37    -0.680218483695E+03   -0.22418E+01   -0.23672E-01 16414   0.756E-01    0.182E+01
RMM:  38    -0.681690882123E+03   -0.14724E+01   -0.57254E-01 19400   0.111E+00    0.147E+01
RMM:  39    -0.682286105681E+03   -0.59522E+00   -0.21641E-01 16502   0.665E-01    0.142E+01
RMM:  40    -0.683288117780E+03   -0.10020E+01   -0.20556E-01 16565   0.670E-01    0.139E+01
RMM:  41    -0.686507258523E+03   -0.32191E+01   -0.84955E-01 20174   0.114E+00    0.141E+01
RMM:  42    -0.686834320842E+03   -0.32706E+00   -0.16563E-01 16586   0.581E-01    0.126E+01
RMM:  43    -0.689318968350E+03   -0.24846E+01   -0.27718E-01 18523   0.699E-01    0.100E+01
RMM:  44    -0.690070025493E+03   -0.75106E+00   -0.29885E-01 19170   0.725E-01    0.770E+00
RMM:  45    -0.690964589700E+03   -0.89456E+00   -0.12583E-01 16634   0.491E-01    0.723E+00
RMM:  46    -0.692178935620E+03   -0.12143E+01   -0.87587E-02 15931   0.419E-01    0.679E+00
RMM:  47    -0.692350019129E+03   -0.17108E+00   -0.22599E-01 18903   0.614E-01    0.641E+00
RMM:  48    -0.692639148567E+03   -0.28913E+00   -0.16268E-01 17652   0.518E-01    0.615E+00
RMM:  49    -0.692685904852E+03   -0.46756E-01   -0.87092E-02 16733   0.405E-01    0.512E+00
RMM:  50    -0.693365783866E+03   -0.67988E+00   -0.47626E-02 15780   0.297E-01    0.513E+00
RMM:  51    -0.693835468226E+03   -0.46968E+00   -0.58103E-02 17463   0.353E-01    0.394E+00
RMM:  52    -0.694309181125E+03   -0.47371E+00   -0.27641E-02 15440   0.249E-01    0.351E+00
RMM:  53    -0.694721922480E+03   -0.41274E+00   -0.27260E-02 16170   0.235E-01    0.289E+00
RMM:  54    -0.695063533522E+03   -0.34161E+00   -0.21629E-02 16263   0.220E-01    0.268E+00
RMM:  55    -0.695116136094E+03   -0.52603E-01   -0.80801E-03 15106   0.143E-01    0.274E+00
RMM:  56    -0.694867894682E+03    0.24824E+00   -0.12983E-01 22023   0.419E-01    0.605E+00
RMM:  57    -0.694238301522E+03    0.62959E+00   -0.93209E-03 15528   0.170E-01    0.474E+00
RMM:  58    -0.694633947614E+03   -0.39565E+00   -0.24117E-02 18048   0.194E-01    0.312E+00
RMM:  59    -0.694950824900E+03   -0.31688E+00   -0.16311E-02 17996   0.174E-01    0.215E+00
RMM:  60    -0.695095037150E+03   -0.14421E+00   -0.38581E-03 15194   0.102E-01    0.197E+00
RMM:  61    -0.695133124770E+03   -0.38088E-01   -0.15080E-02 19204   0.177E-01    0.230E+00
RMM:  62    -0.695297094764E+03   -0.16397E+00   -0.86320E-03 16826   0.123E-01    0.166E+00
RMM:  63    -0.695563517964E+03   -0.26642E+00   -0.82212E-03 17003   0.110E-01    0.131E+00
RMM:  64    -0.695679501038E+03   -0.11598E+00   -0.28760E-03 15295   0.744E-02    0.919E-01
RMM:  65    -0.695809405125E+03   -0.12990E+00   -0.24691E-03 15722   0.703E-02    0.583E-01
RMM:  66    -0.695829145976E+03   -0.19741E-01   -0.14618E-03 14821   0.599E-02    0.560E-01
RMM:  67    -0.695897998340E+03   -0.68852E-01   -0.83537E-04 13610   0.469E-02    0.333E-01
RMM:  68    -0.696042105537E+03   -0.14411E+00   -0.17204E-03 14814   0.520E-02    0.283E-01
RMM:  69    -0.696120194617E+03   -0.78089E-01   -0.62532E-04 12874   0.351E-02    0.284E-01
RMM:  70    -0.696192344721E+03   -0.72150E-01   -0.60126E-04 12344   0.319E-02    0.293E-01
RMM:  71    -0.696223819806E+03   -0.31475E-01   -0.22271E-04  9870   0.232E-02    0.259E-01
RMM:  72    -0.696254089467E+03   -0.30270E-01   -0.20677E-04  9731   0.220E-02    0.181E-01
RMM:  73    -0.696281890570E+03   -0.27801E-01   -0.28448E-04 10187   0.210E-02    0.139E-01
RMM:  74    -0.696290398255E+03   -0.85077E-02   -0.17052E-04  9462   0.182E-02    0.958E-02
RMM:  75    -0.696291789474E+03   -0.13912E-02   -0.92862E-05  9000   0.152E-02    0.567E-02
RMM:  76    -0.696294942192E+03   -0.31527E-02   -0.62223E-05  8884   0.124E-02    0.623E-02
RMM:  77    -0.696293796250E+03    0.11459E-02   -0.40714E-05  8339   0.103E-02    0.565E-02
RMM:  78    -0.696293404752E+03    0.39150E-03   -0.44446E-05  8375   0.899E-03    0.405E-02
RMM:  79    -0.696298419767E+03   -0.50150E-02   -0.46162E-05  8126   0.819E-03    0.330E-02
RMM:  80    -0.696302897052E+03   -0.44773E-02   -0.43894E-05  8234   0.786E-03
 -----------------------------------------------------------------------------
|                                                                             |
|           W    W    AA    RRRRR   N    N  II  N    N   GGGG   !!!           |
|           W    W   A  A   R    R  NN   N  II  NN   N  G    G  !!!           |
|           W    W  A    A  R    R  N N  N  II  N N  N  G       !!!           |
|           W WW W  AAAAAA  RRRRR   N  N N  II  N  N N  G  GGG   !            |
|           WW  WW  A    A  R   R   N   NN  II  N   NN  G    G                |
|           W    W  A    A  R    R  N    N  II  N    N   GGGG   !!!           |
|                                                                             |
|     The electronic self-consistency was not achieved in the given           |
|     number of steps (NELM). The forces and other quantities evaluated       |
|     might not be reliable so examine the results carefully. If you find     |
|     spurious results, we suggest increasing NELM, if you were close to      |
|     convergence or switching to a different ALGO or adjusting the           |
|     density mixing parameters otherwise.                                    |
|                                                                             |
 -----------------------------------------------------------------------------

   1 F= -.69630290E+03 E0= -.69572866E+03  d E =-.696303E+03  mag=     2.6512
 curvature:   0.00 expect dE= 0.000E+00 dE for cont linesearch  0.000E+00
 trial: gam= 0.00000 g(F)=  0.190E+01 g(S)=  0.000E+00 ort = 0.000E+00 (trialstep = 0.100E+01)
 search vector abs. value=  0.190E+01
 bond charge predicted
       N       E                     dE             d eps       ncg     rms          rms(c)
DAV:   1    -0.693881691832E+03    0.24167E+01   -0.41398E+02 15312   0.249E+01    0.617E+00
RMM:   2    -0.695535353020E+03   -0.16537E+01   -0.15016E+01 14848   0.498E+00    0.953E+00
RMM:   3    -0.697296920181E+03   -0.17616E+01   -0.26183E+00 15751   0.219E+00    0.179E+01
RMM:   4    -0.695442703815E+03    0.18542E+01   -0.41954E-01 15289   0.108E+00    0.548E+00
RMM:   5    -0.695348032901E+03    0.94671E-01   -0.17105E-01 14944   0.708E-01    0.421E+00
RMM:   6    -0.695373363734E+03   -0.25331E-01   -0.83834E-02 14969   0.485E-01    0.421E+00
RMM:   7    -0.695291304434E+03    0.82059E-01   -0.59792E-02 15163   0.416E-01    0.211E+00
RMM:   8    -0.695294230388E+03   -0.29260E-02   -0.38158E-02 15272   0.309E-01    0.228E+00
RMM:   9    -0.695275685506E+03    0.18545E-01   -0.12586E-02 14922   0.212E-01    0.117E+00
RMM:  10    -0.695274776739E+03    0.90877E-03   -0.47596E-03 15112   0.123E-01    0.976E-01
RMM:  11    -0.695272557929E+03    0.22188E-02   -0.25988E-03 14446   0.855E-02    0.653E-01
RMM:  12    -0.695271112678E+03    0.14453E-02   -0.10095E-03 13591   0.544E-02    0.292E-01
RMM:  13    -0.695271614412E+03   -0.50173E-03   -0.63295E-04 12952   0.389E-02    0.208E-01
RMM:  14    -0.695272153773E+03   -0.53936E-03   -0.38311E-04 11337   0.284E-02    0.144E-01
RMM:  15    -0.695272558840E+03   -0.40507E-03   -0.13584E-04  9177   0.198E-02    0.122E-01
RMM:  16    -0.695272848615E+03   -0.28978E-03   -0.54825E-05  8766   0.142E-02    0.102E-01
RMM:  17    -0.695273119834E+03   -0.27122E-03   -0.27649E-05  8193   0.928E-03    0.657E-02
RMM:  18    -0.695273551951E+03   -0.43212E-03   -0.26778E-05  8257   0.806E-03    0.381E-02
RMM:  19    -0.695273806564E+03   -0.25461E-03   -0.13386E-05  7537   0.647E-03    0.291E-02
RMM:  20    -0.695273956019E+03   -0.14946E-03   -0.61397E-06  6120   0.446E-03    0.207E-02
RMM:  21    -0.695274133199E+03   -0.17718E-03   -0.40872E-06  5356   0.372E-03    0.124E-02
RMM:  22    -0.695274352625E+03   -0.21943E-03   -0.37218E-06  5089   0.355E-03    0.878E-03
RMM:  23    -0.695274637834E+03   -0.28521E-03   -0.38564E-06  5000   0.350E-03    0.685E-03
RMM:  24    -0.695274845277E+03   -0.20744E-03   -0.22902E-06  4223   0.323E-03    0.584E-03
RMM:  25    -0.695275109113E+03   -0.26384E-03   -0.29546E-06  4294   0.323E-03    0.661E-03
RMM:  26    -0.695275348896E+03   -0.23978E-03   -0.25236E-06  4085   0.317E-03    0.576E-03
RMM:  27    -0.695275675666E+03   -0.32677E-03   -0.35659E-06  4330   0.327E-03    0.513E-03
RMM:  28    -0.695275963993E+03   -0.28833E-03   -0.31190E-06  4186   0.323E-03    0.504E-03
RMM:  29    -0.695276129830E+03   -0.16584E-03   -0.15848E-06  3465   0.308E-03    0.394E-03
RMM:  30    -0.695276473150E+03   -0.34332E-03   -0.33713E-06  4064   0.320E-03    0.391E-03
RMM:  31    -0.695276698989E+03   -0.22584E-03   -0.20718E-06  3740   0.315E-03    0.302E-03
RMM:  32    -0.695276850662E+03   -0.15167E-03   -0.11026E-06  3067   0.301E-03    0.270E-03
RMM:  33    -0.695276962241E+03   -0.11158E-03   -0.61835E-07  2700   0.292E-03    0.199E-03
RMM:  34    -0.695277046091E+03   -0.83851E-04   -0.42449E-07  2534   0.288E-03
   2 F= -.69527705E+03 E0= -.69470591E+03  d E =0.102585E+01  mag=     2.7041
 trial-energy change:    1.025851  1 .order    0.628657   -1.901023    3.158337
 step:   0.2806(harm=  0.3757)  dis= 0.01956  next Energy=  -696.560876 (dE=-0.258E+00)
 bond charge predicted
       N       E                     dE             d eps       ncg     rms          rms(c)
DAV:   1    -0.696015683603E+03   -0.73872E+00   -0.22082E+02 14944   0.193E+01    0.472E+00
RMM:   2    -0.696522648228E+03   -0.50696E+00   -0.53256E+00 14848   0.327E+00    0.357E+00
RMM:   3    -0.698455489160E+03   -0.19328E+01   -0.11583E+00 15570   0.149E+00    0.171E+01
RMM:   4    -0.696641329473E+03    0.18142E+01   -0.23549E-01 15020   0.852E-01    0.415E+00
RMM:   5    -0.696597091341E+03    0.44238E-01   -0.97279E-02 15031   0.541E-01    0.267E+00
RMM:   6    -0.696604640242E+03   -0.75489E-02   -0.54732E-02 14986   0.389E-01    0.257E+00
RMM:   7    -0.696574779165E+03    0.29861E-01   -0.27347E-02 15008   0.304E-01    0.178E+00
RMM:   8    -0.696564970334E+03    0.98088E-02   -0.83950E-03 14895   0.162E-01    0.884E-01
RMM:   9    -0.696562768838E+03    0.22015E-02   -0.65931E-03 15760   0.115E-01    0.717E-01
RMM:  10    -0.696561792777E+03    0.97606E-03   -0.21462E-03 14136   0.837E-02    0.574E-01
RMM:  11    -0.696560209247E+03    0.15835E-02   -0.97897E-04 13613   0.544E-02    0.254E-01
RMM:  12    -0.696560038683E+03    0.17056E-03   -0.40185E-04 11717   0.345E-02    0.135E-01
RMM:  13    -0.696560240353E+03   -0.20167E-03   -0.19432E-04  9716   0.238E-02    0.127E-01
RMM:  14    -0.696560388545E+03   -0.14819E-03   -0.99433E-05  8984   0.182E-02    0.102E-01
RMM:  15    -0.696560583452E+03   -0.19491E-03   -0.63853E-05  8717   0.134E-02    0.765E-02
RMM:  16    -0.696560746082E+03   -0.16263E-03   -0.30995E-05  7973   0.968E-03    0.456E-02
RMM:  17    -0.696560930752E+03   -0.18467E-03   -0.19788E-05  7415   0.699E-03    0.413E-02
RMM:  18    -0.696561151933E+03   -0.22118E-03   -0.21032E-05  7411   0.649E-03    0.362E-02
RMM:  19    -0.696561253132E+03   -0.10120E-03   -0.26566E-05  7601   0.669E-03    0.269E-02
RMM:  20    -0.696561235312E+03    0.17820E-04   -0.17849E-05  6873   0.606E-03
   3 F= -.69656124E+03 E0= -.69598818E+03  d E =-.258338E+00  mag=     2.7146
 curvature:  -0.18 expect dE=-0.646E+00 dE for cont linesearch -0.200E-02
 trial: gam= 1.92797 g(F)=  0.352E+01 g(S)=  0.000E+00 ort =-0.144E+00 (trialstep = 0.162E+00)
 search vector abs. value=  0.100E+02
 bond charge predicted
       N       E                     dE             d eps       ncg     rms          rms(c)
DAV:   1    -0.696297607765E+03    0.26365E+00   -0.57391E+01 14976   0.972E+00    0.232E+00
RMM:   2    -0.696397193681E+03   -0.99586E-01   -0.11223E+00 14848   0.154E+00    0.217E+00
RMM:   3    -0.696799726472E+03   -0.40253E+00   -0.21839E-01 15355   0.693E-01    0.786E+00
RMM:   4    -0.696423207683E+03    0.37652E+00   -0.54931E-02 14938   0.430E-01    0.222E+00
RMM:   5    -0.696417251334E+03    0.59563E-02   -0.26750E-02 14889   0.296E-01    0.189E+00
RMM:   6    -0.696410231541E+03    0.70198E-02   -0.13070E-02 14935   0.208E-01    0.142E+00
RMM:   7    -0.696398969661E+03    0.11262E-01   -0.69708E-03 14911   0.151E-01    0.559E-01
RMM:   8    -0.696398938770E+03    0.30891E-04   -0.28832E-03 14569   0.916E-02    0.419E-01
RMM:   9    -0.696398586042E+03    0.35273E-03   -0.10180E-03 13383   0.594E-02    0.306E-01
RMM:  10    -0.696398498038E+03    0.88004E-04   -0.46296E-04 11810   0.330E-02
   4 F= -.69639850E+03 E0= -.69582520E+03  d E =0.162737E+00  mag=     2.7135
 trial-energy change:    0.162737  1 .order    0.076461   -0.526173    0.679096
 step:   0.0552(harm=  0.0708)  dis= 0.00769  next Energy=  -696.647331 (dE=-0.861E-01)
 bond charge predicted
       N       E                     dE             d eps       ncg     rms          rms(c)
DAV:   1    -0.696626549437E+03   -0.22796E+00   -0.25282E+01 15280   0.659E+00    0.141E+00
RMM:   2    -0.696667508938E+03   -0.40960E-01   -0.44752E-01 14848   0.973E-01    0.172E+00
RMM:   3    -0.696689849608E+03   -0.22341E-01   -0.64348E-02 15219   0.423E-01    0.211E+00
RMM:   4    -0.696716184644E+03   -0.26335E-01   -0.21097E-02 15368   0.224E-01    0.284E+00
RMM:   5    -0.696680804249E+03    0.35380E-01   -0.12266E-02 14970   0.186E-01    0.189E+00
RMM:   6    -0.696670362848E+03    0.10441E-01   -0.62785E-03 14910   0.149E-01    0.117E+00
RMM:   7    -0.696663290876E+03    0.70720E-02   -0.53228E-03 14929   0.117E-01    0.392E-01
RMM:   8    -0.696663848415E+03   -0.55754E-03   -0.15356E-03 13783   0.705E-02    0.437E-01
RMM:   9    -0.696663086961E+03    0.76145E-03   -0.46002E-04 12101   0.436E-02    0.207E-01
RMM:  10    -0.696662952632E+03    0.13433E-03   -0.16935E-04  9432   0.224E-02    0.126E-01
RMM:  11    -0.696662878819E+03    0.73813E-04   -0.74941E-05  8681   0.162E-02
   5 F= -.69666288E+03 E0= -.69608995E+03  d E =-.101644E+00  mag=     2.7102
 curvature:  -0.11 expect dE=-0.174E+00 dE for cont linesearch -0.181E-02
 ZBRENT: interpolating
 opt :   0.0489  next Energy=  -696.664169 (dE=-0.103E+00)
 bond charge predicted
       N       E                     dE             d eps       ncg     rms          rms(c)
DAV:   1    -0.696663565163E+03   -0.61253E-03   -0.86039E-02 15376   0.382E-01    0.109E-01
RMM:   2    -0.696663991623E+03   -0.42646E-03   -0.16935E-03 13158   0.609E-02    0.256E-01
RMM:   3    -0.696664174046E+03   -0.18242E-03   -0.32228E-04 10213   0.320E-02    0.310E-01
RMM:   4    -0.696663607528E+03    0.56652E-03   -0.11283E-04  8615   0.206E-02    0.120E-01
RMM:   5    -0.696663497987E+03    0.10954E-03   -0.43813E-05  8223   0.134E-02    0.689E-02
RMM:   6    -0.696663429572E+03    0.68415E-04   -0.20909E-05  7655   0.883E-03    0.489E-02
RMM:   7    -0.696663334372E+03    0.95199E-04   -0.20095E-05  7565   0.783E-03    0.811E-02
RMM:   8    -0.696663258496E+03    0.75876E-04   -0.10001E-05  7135   0.699E-03
   6 F= -.69666326E+03 E0= -.69609051E+03  d E =-.102023E+00  mag=     2.7051
 curvature:  -0.08 expect dE=-0.119E+00 dE for cont linesearch -0.153E-03
 trial: gam=-0.02433 g(F)=  0.157E+01 g(S)=  0.000E+00 ort = 0.142E+00 (trialstep = 0.140E+00)
 search vector abs. value=  0.156E+01
 bond charge predicted
       N       E                     dE             d eps       ncg     rms          rms(c)
DAV:   1    -0.696744204644E+03   -0.80870E-01   -0.69696E+00 15216   0.373E+00    0.886E-01
RMM:   2    -0.696773453169E+03   -0.29249E-01   -0.18209E-01 14848   0.629E-01    0.213E+00
RMM:   3    -0.696759203122E+03    0.14250E-01   -0.21416E-02 14900   0.265E-01    0.109E+00
RMM:   4    -0.696774175698E+03   -0.14973E-01   -0.72646E-03 15702   0.132E-01    0.180E+00
RMM:   5    -0.696766872096E+03    0.73036E-02   -0.42056E-03 14941   0.110E-01    0.140E+00
RMM:   6    -0.696756530203E+03    0.10342E-01   -0.21147E-03 14159   0.913E-02    0.708E-01
RMM:   7    -0.696756076553E+03    0.45365E-03   -0.13421E-03 13629   0.616E-02    0.522E-01
RMM:   8    -0.696754761678E+03    0.13149E-02   -0.95043E-04 13387   0.476E-02    0.235E-01
RMM:   9    -0.696754516308E+03    0.24537E-03   -0.40038E-04 11426   0.312E-02    0.177E-01
RMM:  10    -0.696754425837E+03    0.90471E-04   -0.89845E-05  8776   0.185E-02
   7 F= -.69675443E+03 E0= -.69618142E+03  d E =-.911673E-01  mag=     2.6976
 trial-energy change:   -0.091167  1 .order   -0.107183   -0.218036    0.003670
 step:   0.1356(harm=  0.1373)  dis= 0.02338  next Energy=  -696.754479 (dE=-0.912E-01)
 bond charge predicted
       N       E                     dE             d eps       ncg     rms          rms(c)
DAV:   1    -0.696754403732E+03    0.11258E-03   -0.56750E-03 15184   0.109E-01    0.134E-01
RMM:   2    -0.696760722858E+03   -0.63191E-02   -0.81620E-04 13193   0.377E-02    0.993E-01
RMM:   3    -0.696754804041E+03    0.59188E-02   -0.44246E-04 12334   0.429E-02    0.324E-01
RMM:   4    -0.696754345302E+03    0.45874E-03   -0.16253E-04  8877   0.257E-02    0.115E-01
RMM:   5    -0.696754304973E+03    0.40329E-04   -0.45605E-05  8074   0.139E-02    0.901E-02
RMM:   6    -0.696754269519E+03    0.35453E-04   -0.18332E-05  7126   0.831E-03    0.426E-02
RMM:   7    -0.696754269230E+03    0.28958E-06   -0.75877E-06  6397   0.525E-03    0.217E-02
RMM:   8    -0.696754285919E+03   -0.16689E-04   -0.28223E-06  4922   0.377E-03
   8 F= -.69675429E+03 E0= -.69618134E+03  d E =-.910274E-01  mag=     2.6905
 curvature:  -0.03 expect dE=-0.329E-01 dE for cont linesearch -0.582E-06
 trial: gam= 0.66356 g(F)=  0.101E+01 g(S)=  0.000E+00 ort = 0.530E-02 (trialstep = 0.127E+00)
 search vector abs. value=  0.171E+01
 bond charge predicted
       N       E                     dE             d eps       ncg     rms          rms(c)
DAV:   1    -0.696775830217E+03   -0.21561E-01   -0.56424E+00 15200   0.333E+00    0.840E-01
RMM:   2    -0.696801960555E+03   -0.26130E-01   -0.15647E-01 14848   0.532E-01    0.167E+00
RMM:   3    -0.696831553882E+03   -0.29593E-01   -0.20702E-02 14891   0.238E-01    0.284E+00
RMM:   4    -0.696785605782E+03    0.45948E-01   -0.62148E-03 14802   0.152E-01    0.733E-01
RMM:   5    -0.696785493847E+03    0.11193E-03   -0.18360E-03 14345   0.846E-02    0.534E-01
RMM:   6    -0.696785667384E+03   -0.17354E-03   -0.12728E-03 13981   0.631E-02    0.563E-01
RMM:   7    -0.696784177495E+03    0.14899E-02   -0.88249E-04 13410   0.554E-02    0.297E-01
RMM:   8    -0.696784116763E+03    0.60732E-04   -0.54410E-04 11867   0.377E-02
   9 F= -.69678412E+03 E0= -.69621103E+03  d E =-.298308E-01  mag=     2.6834
 trial-energy change:   -0.029831  1 .order   -0.009488   -0.129233    0.110258
 step:   0.0831(harm=  0.0685)  dis= 0.01482  next Energy=  -696.802310 (dE=-0.480E-01)
 bond charge predicted
       N       E                     dE             d eps       ncg     rms          rms(c)
DAV:   1    -0.696800564914E+03   -0.16387E-01   -0.68098E-01 15312   0.115E+00    0.311E-01
RMM:   2    -0.696803776175E+03   -0.32113E-02   -0.20428E-02 14811   0.190E-01    0.661E-01
RMM:   3    -0.696804852317E+03   -0.10761E-02   -0.23416E-03 14335   0.890E-02    0.735E-01
RMM:   4    -0.696802392891E+03    0.24594E-02   -0.79274E-04 13006   0.503E-02    0.460E-01
RMM:   5    -0.696801481556E+03    0.91133E-03   -0.27279E-04 10164   0.331E-02    0.213E-01
RMM:   6    -0.696801317871E+03    0.16368E-03   -0.16421E-04  8721   0.244E-02    0.166E-01
RMM:   7    -0.696801237916E+03    0.79955E-04   -0.12187E-04  8441   0.205E-02    0.116E-01
RMM:   8    -0.696801271851E+03   -0.33935E-04   -0.78855E-05  8179   0.160E-02
  10 F= -.69680127E+03 E0= -.69622828E+03  d E =-.469859E-01  mag=     2.6754
 curvature:  -0.05 expect dE=-0.318E-01 dE for cont linesearch -0.154E-04
 trial: gam= 0.53954 g(F)=  0.589E+00 g(S)=  0.000E+00 ort =-0.221E-01 (trialstep = 0.118E+00)
 search vector abs. value=  0.106E+01
 bond charge predicted
       N       E                     dE             d eps       ncg     rms          rms(c)
DAV:   1    -0.696795473047E+03    0.57649E-02   -0.23225E+00 15344   0.221E+00    0.579E-01
RMM:   2    -0.696818803700E+03   -0.23331E-01   -0.69671E-02 14847   0.392E-01    0.171E+00
RMM:   3    -0.696811993884E+03    0.68098E-02   -0.99027E-03 14959   0.174E-01    0.150E+00
RMM:   4    -0.696800357203E+03    0.11637E-01   -0.41916E-03 14648   0.117E-01    0.597E-01
RMM:   5    -0.696799084366E+03    0.12728E-02   -0.80639E-04 13253   0.576E-02    0.273E-01
RMM:   6    -0.696800320301E+03   -0.12359E-02   -0.70101E-04 13397   0.426E-02    0.496E-01
RMM:   7    -0.696799227137E+03    0.10932E-02   -0.55344E-04 12551   0.436E-02    0.222E-01
RMM:   8    -0.696799220254E+03    0.68830E-05   -0.24688E-04 10003   0.287E-02
  11 F= -.69679922E+03 E0= -.69622639E+03  d E =0.205160E-02  mag=     2.6694
 trial-energy change:    0.002052  1 .order    0.009590   -0.068249    0.087429
 step:   0.0604(harm=  0.0518)  dis= 0.00564  next Energy=  -696.819715 (dE=-0.184E-01)
 bond charge predicted
       N       E                     dE             d eps       ncg     rms          rms(c)
DAV:   1    -0.696820591061E+03   -0.21364E-01   -0.56040E-01 15344   0.108E+00    0.301E-01
RMM:   2    -0.696824393003E+03   -0.38019E-02   -0.17509E-02 14836   0.195E-01    0.673E-01
RMM:   3    -0.696826656661E+03   -0.22637E-02   -0.25775E-03 14555   0.880E-02    0.949E-01
RMM:   4    -0.696822183902E+03    0.44728E-02   -0.94727E-04 13741   0.584E-02    0.442E-01
RMM:   5    -0.696821164238E+03    0.10197E-02   -0.29188E-04 10449   0.350E-02    0.142E-01
RMM:   6    -0.696821189963E+03   -0.25725E-04   -0.14132E-04  8677   0.218E-02    0.160E-01
RMM:   7    -0.696821172520E+03    0.17443E-04   -0.13601E-04  8648   0.216E-02    0.131E-01
RMM:   8    -0.696821213508E+03   -0.40988E-04   -0.84046E-05  8250   0.173E-02
  12 F= -.69682121E+03 E0= -.69624835E+03  d E =-.199417E-01  mag=     2.6631
 curvature:  -0.05 expect dE=-0.215E-01 dE for cont linesearch -0.978E-05
 trial: gam= 0.49706 g(F)=  0.459E+00 g(S)=  0.000E+00 ort =-0.149E-01 (trialstep = 0.107E+00)
 search vector abs. value=  0.707E+00
 bond charge predicted
       N       E                     dE             d eps       ncg     rms          rms(c)
DAV:   1    -0.696852650064E+03   -0.31478E-01   -0.12261E+00 15216   0.164E+00    0.325E-01
RMM:   2    -0.696856826087E+03   -0.41760E-02   -0.27889E-02 14848   0.276E-01    0.675E-01
RMM:   3    -0.696856372859E+03    0.45323E-03   -0.42122E-03 15407   0.112E-01    0.471E-01
RMM:   4    -0.696857351286E+03   -0.97843E-03   -0.10657E-03 13862   0.581E-02    0.595E-01
RMM:   5    -0.696856778645E+03    0.57264E-03   -0.53668E-04 12901   0.423E-02    0.467E-01
RMM:   6    -0.696855636593E+03    0.11421E-02   -0.32823E-04 11184   0.362E-02    0.218E-01
RMM:   7    -0.696855683176E+03   -0.46583E-04   -0.31619E-04 10283   0.295E-02    0.134E-01
RMM:   8    -0.696855690754E+03   -0.75788E-05   -0.87652E-05  8561   0.197E-02
  13 F= -.69685569E+03 E0= -.69628309E+03  d E =-.344772E-01  mag=     2.6587
 trial-energy change:   -0.034477  1 .order   -0.025816   -0.048154   -0.003478
 step:   0.1104(harm=  0.1149)  dis= 0.00504  next Energy=  -696.855753 (dE=-0.345E-01)
 bond charge predicted
       N       E                     dE             d eps       ncg     rms          rms(c)
DAV:   1    -0.696855750153E+03   -0.66977E-04   -0.16826E-03 15264   0.659E-02    0.563E-02
RMM:   2    -0.696855925785E+03   -0.17563E-03   -0.10309E-04  8243   0.177E-02    0.130E-01
RMM:   3    -0.696855897727E+03    0.28058E-04   -0.54629E-05  7917   0.161E-02    0.104E-01
RMM:   4    -0.696855900657E+03   -0.29306E-05   -0.15659E-05  7627   0.746E-03    0.921E-02
RMM:   5    -0.696855907610E+03   -0.69528E-05   -0.10175E-05  6898   0.637E-03    0.484E-02
RMM:   6    -0.696855968004E+03   -0.60394E-04   -0.45794E-06  6395   0.501E-03    0.171E-02
RMM:   7    -0.696856007857E+03   -0.39853E-04   -0.67884E-07  3001   0.280E-03    0.151E-02
RMM:   8    -0.696856038750E+03   -0.30893E-04   -0.12494E-07  2116   0.258E-03
  14 F= -.69685604E+03 E0= -.69628342E+03  d E =-.348252E-01  mag=     2.6553
 curvature:  -0.06 expect dE=-0.344E-01 dE for cont linesearch -0.145E-05
 trial: gam= 0.90804 g(F)=  0.545E+00 g(S)=  0.000E+00 ort =-0.403E-02 (trialstep = 0.678E-01)
 search vector abs. value=  0.112E+01
 bond charge predicted
       N       E                     dE             d eps       ncg     rms          rms(c)
DAV:   1    -0.696856208310E+03   -0.20045E-03   -0.85853E-01 15024   0.126E+00    0.279E-01
RMM:   2    -0.696858394083E+03   -0.21858E-02   -0.17188E-02 14688   0.181E-01    0.481E-01
RMM:   3    -0.696858476839E+03   -0.82756E-04   -0.18765E-03 13874   0.747E-02    0.439E-01
RMM:   4    -0.696859010661E+03   -0.53382E-03   -0.60317E-04 12661   0.411E-02    0.505E-01
RMM:   5    -0.696858353647E+03    0.65701E-03   -0.43293E-04 11864   0.373E-02    0.359E-01
RMM:   6    -0.696857697026E+03    0.65662E-03   -0.24572E-04 10010   0.311E-02    0.172E-01
RMM:   7    -0.696857640326E+03    0.56701E-04   -0.13574E-04  8705   0.227E-02    0.792E-02
RMM:   8    -0.696857643795E+03   -0.34692E-05   -0.51123E-05  7969   0.134E-02
  15 F= -.69685764E+03 E0= -.69628512E+03  d E =-.160504E-02  mag=     2.6523
 trial-energy change:   -0.001605  1 .order   -0.003871   -0.036666    0.028925
 step:   0.0344(harm=  0.0379)  dis= 0.00188  next Energy=  -696.865042 (dE=-0.900E-02)
 bond charge predicted
       N       E                     dE             d eps       ncg     rms          rms(c)
DAV:   1    -0.696865586071E+03   -0.79457E-02   -0.20875E-01 15200   0.624E-01    0.147E-01
RMM:   2    -0.696866487462E+03   -0.90139E-03   -0.42438E-03 14044   0.915E-02    0.336E-01
RMM:   3    -0.696866696805E+03   -0.20934E-03   -0.55771E-04 11597   0.425E-02    0.363E-01
RMM:   4    -0.696865951363E+03    0.74544E-03   -0.15774E-04  8477   0.244E-02    0.138E-01
RMM:   5    -0.696866071276E+03   -0.11991E-03   -0.94098E-05  8197   0.181E-02    0.158E-01
RMM:   6    -0.696865991641E+03    0.79635E-04   -0.72762E-05  8021   0.170E-02    0.967E-02
RMM:   7    -0.696866023347E+03   -0.31707E-04   -0.37705E-05  7746   0.124E-02    0.685E-02
RMM:   8    -0.696866030284E+03   -0.69362E-05   -0.16957E-05  6981   0.807E-03
  16 F= -.69686603E+03 E0= -.69629342E+03  d E =-.999153E-02  mag=     2.6499
 curvature:  -0.04 expect dE=-0.844E-02 dE for cont linesearch -0.407E-06
 trial: gam= 0.01845 g(F)=  0.218E+00 g(S)=  0.000E+00 ort =-0.343E-02 (trialstep = 0.611E-01)
 search vector abs. value=  0.218E+00
 bond charge predicted
       N       E                     dE             d eps       ncg     rms          rms(c)
DAV:   1    -0.696871810334E+03   -0.57870E-02   -0.18303E-01 15360   0.655E-01    0.125E-01
RMM:   2    -0.696874096649E+03   -0.22863E-02   -0.38111E-03 14838   0.121E-01    0.607E-01
RMM:   3    -0.696872157537E+03    0.19391E-02   -0.71201E-04 13358   0.494E-02    0.191E-01
RMM:   4    -0.696872430140E+03   -0.27260E-03   -0.17984E-04  9127   0.255E-02    0.249E-01
RMM:   5    -0.696872301329E+03    0.12881E-03   -0.74919E-05  8397   0.187E-02    0.191E-01
RMM:   6    -0.696872206835E+03    0.94494E-04   -0.63644E-05  8400   0.143E-02    0.156E-01
RMM:   7    -0.696872123761E+03    0.83074E-04   -0.54516E-05  8264   0.142E-02    0.782E-02
RMM:   8    -0.696872102502E+03    0.21259E-04   -0.23189E-05  7708   0.999E-03
  17 F= -.69687210E+03 E0= -.69629950E+03  d E =-.607222E-02  mag=     2.6469
 trial-energy change:   -0.006072  1 .order   -0.006533   -0.013321    0.000255
 step:   0.0596(harm=  0.0599)  dis= 0.00227  next Energy=  -696.872105 (dE=-0.608E-02)
 bond charge predicted
       N       E                     dE             d eps       ncg     rms          rms(c)
DAV:   1    -0.696872096640E+03    0.27121E-04   -0.12328E-04 10800   0.217E-02    0.443E-02
RMM:   2    -0.696873227432E+03   -0.11308E-02   -0.11277E-04  8219   0.176E-02    0.421E-01
RMM:   3    -0.696872120246E+03    0.11072E-02   -0.76539E-05  7998   0.192E-02    0.926E-02
RMM:   4    -0.696872098789E+03    0.21457E-04   -0.17123E-05  7301   0.907E-03    0.309E-02
RMM:   5    -0.696872097036E+03    0.17530E-05   -0.35064E-06  6180   0.458E-03    0.228E-02
RMM:   6    -0.696872100516E+03   -0.34797E-05   -0.21534E-07  2284   0.268E-03    0.147E-02
RMM:   7    -0.696872104853E+03   -0.43373E-05   -0.62269E-08  1626   0.259E-03    0.131E-02
RMM:   8    -0.696872118221E+03   -0.13368E-04   -0.44830E-07  2348   0.285E-03
  18 F= -.69687212E+03 E0= -.69629954E+03  d E =-.608794E-02  mag=     2.6444
 curvature:  -0.03 expect dE=-0.219E-02 dE for cont linesearch -0.665E-09
 trial: gam= 0.35588 g(F)=  0.779E-01 g(S)=  0.000E+00 ort =-0.718E-04 (trialstep = 0.608E-01)
 search vector abs. value=  0.106E+00
 bond charge predicted
       N       E                     dE             d eps       ncg     rms          rms(c)
DAV:   1    -0.696875158928E+03   -0.30541E-02   -0.60759E-02 15408   0.366E-01    0.772E-02
RMM:   2    -0.696875882586E+03   -0.72366E-03   -0.12593E-03 14699   0.736E-02    0.360E-01
RMM:   3    -0.696875378406E+03    0.50418E-03   -0.26885E-04 10021   0.293E-02    0.185E-01
RMM:   4    -0.696875578137E+03   -0.19973E-03   -0.60341E-05  8121   0.169E-02    0.249E-01
RMM:   5    -0.696875304868E+03    0.27327E-03   -0.35149E-05  8068   0.116E-02    0.119E-01
RMM:   6    -0.696875299677E+03    0.51913E-05   -0.30100E-05  7827   0.101E-02    0.919E-02
RMM:   7    -0.696875284819E+03    0.14858E-04   -0.20311E-05  7493   0.923E-03    0.596E-02
RMM:   8    -0.696875279593E+03    0.52262E-05   -0.64916E-06  6755   0.561E-03
  19 F= -.69687528E+03 E0= -.69630276E+03  d E =-.316137E-02  mag=     2.6418
 trial-energy change:   -0.003161  1 .order   -0.003114   -0.004735   -0.001494
 step:   0.0888(harm=  0.0888)  dis= 0.00143  next Energy=  -696.875577 (dE=-0.346E-02)
 bond charge predicted
       N       E                     dE             d eps       ncg     rms          rms(c)
DAV:   1    -0.696875580806E+03   -0.29599E-03   -0.12904E-02 15696   0.169E-01    0.439E-02
RMM:   2    -0.696875689439E+03   -0.10863E-03   -0.27239E-04  9241   0.334E-02    0.132E-01
RMM:   3    -0.696875636553E+03    0.52886E-04   -0.47689E-05  8004   0.153E-02    0.748E-02
RMM:   4    -0.696875733707E+03   -0.97154E-04   -0.22444E-05  7869   0.869E-03    0.151E-01
RMM:   5    -0.696875618126E+03    0.11558E-03   -0.13891E-05  7083   0.770E-03    0.311E-02
RMM:   6    -0.696875618623E+03   -0.49767E-06   -0.68215E-06  6652   0.544E-03    0.434E-02
RMM:   7    -0.696875617801E+03    0.82284E-06   -0.12916E-06  4724   0.352E-03    0.267E-02
RMM:   8    -0.696875629898E+03   -0.12097E-04   -0.45948E-07  2752   0.294E-03
  20 F= -.69687563E+03 E0= -.69630314E+03  d E =-.351168E-02  mag=     2.6394
 curvature:  -0.06 expect dE=-0.363E-02 dE for cont linesearch -0.177E-05
 trial: gam= 0.75717 g(F)=  0.603E-01 g(S)=  0.000E+00 ort =-0.176E-02 (trialstep = 0.593E-01)
 search vector abs. value=  0.118E+00
 bond charge predicted
       N       E                     dE             d eps       ncg     rms          rms(c)
DAV:   1    -0.696878183360E+03   -0.25656E-02   -0.34045E-02 15296   0.255E-01    0.713E-02
RMM:   2    -0.696878328104E+03   -0.14474E-03   -0.65369E-04 12242   0.496E-02    0.160E-01
RMM:   3    -0.696878283707E+03    0.44397E-04   -0.13853E-04  8465   0.203E-02    0.892E-02
RMM:   4    -0.696878566675E+03   -0.28297E-03   -0.45140E-05  7979   0.121E-02    0.230E-01
RMM:   5    -0.696878335230E+03    0.23144E-03   -0.40983E-05  8039   0.122E-02    0.969E-02
RMM:   6    -0.696878327026E+03    0.82049E-05   -0.22802E-05  7446   0.973E-03    0.630E-02
RMM:   7    -0.696878338236E+03   -0.11211E-04   -0.10037E-05  7010   0.679E-03    0.463E-02
RMM:   8    -0.696878367688E+03   -0.29452E-04   -0.39722E-06  5821   0.429E-03
  21 F= -.69687837E+03 E0= -.69630592E+03  d E =-.273779E-02  mag=     2.6373
 trial-energy change:   -0.002738  1 .order   -0.002549   -0.003498   -0.001601
 step:   0.1093(harm=  0.1093)  dis= 0.00106  next Energy=  -696.878855 (dE=-0.322E-02)
 bond charge predicted
       N       E                     dE             d eps       ncg     rms          rms(c)
DAV:   1    -0.696878897640E+03   -0.55940E-03   -0.24225E-02 15360   0.216E-01    0.705E-02
RMM:   2    -0.696878989196E+03   -0.91556E-04   -0.47562E-04 10847   0.419E-02    0.950E-02
RMM:   3    -0.696878991351E+03   -0.21550E-05   -0.10074E-04  8223   0.191E-02    0.834E-02
RMM:   4    -0.696879048277E+03   -0.56926E-04   -0.33057E-05  7862   0.115E-02    0.109E-01
RMM:   5    -0.696879100626E+03   -0.52349E-04   -0.25342E-05  7806   0.906E-03    0.123E-01
RMM:   6    -0.696879045780E+03    0.54845E-04   -0.23169E-05  7622   0.987E-03    0.684E-02
RMM:   7    -0.696879043259E+03    0.25216E-05   -0.86338E-06  6810   0.673E-03    0.238E-02
RMM:   8    -0.696879052810E+03   -0.95508E-05   -0.19711E-06  4480   0.347E-03
  22 F= -.69687905E+03 E0= -.69630667E+03  d E =-.342291E-02  mag=     2.6356
 curvature:  -0.11 expect dE=-0.108E-01 dE for cont linesearch -0.204E-04
 trial: gam= 1.41537 g(F)=  0.986E-01 g(S)=  0.000E+00 ort =-0.470E-02 (trialstep = 0.254E-01)
 search vector abs. value=  0.322E+00
 bond charge predicted
       N       E                     dE             d eps       ncg     rms          rms(c)
DAV:   1    -0.696881189479E+03   -0.21462E-02   -0.85433E-03 15376   0.121E-01    0.397E-02
RMM:   2    -0.696881349176E+03   -0.15970E-03   -0.15674E-04  8338   0.233E-02    0.151E-01
RMM:   3    -0.696881225326E+03    0.12385E-03   -0.29897E-05  7970   0.123E-02    0.444E-02
RMM:   4    -0.696881242809E+03   -0.17483E-04   -0.11639E-05  6944   0.615E-03    0.624E-02
RMM:   5    -0.696881261058E+03   -0.18250E-04   -0.68359E-06  6733   0.555E-03    0.524E-02
RMM:   6    -0.696881266281E+03   -0.52228E-05   -0.34662E-06  5504   0.408E-03    0.375E-02
RMM:   7    -0.696881267374E+03   -0.10931E-05   -0.11473E-06  3965   0.332E-03    0.203E-02
RMM:   8    -0.696881273779E+03   -0.64050E-05   -0.16115E-07  1966   0.280E-03
  23 F= -.69688127E+03 E0= -.69630893E+03  d E =-.222097E-02  mag=     2.6341
 ZBRENT: can't locate minimum, use default step
 trial-energy change:   -0.002221  1 .order   -0.002139   -0.002339   -0.001939
 step:   0.1017(harm=  0.1485)  dis= 0.00133  next Energy=  -696.885884 (dE=-0.683E-02)
 bond charge predicted
       N       E                     dE             d eps       ncg     rms          rms(c)
DAV:   1    -0.696884775277E+03   -0.35079E-02   -0.76532E-02 15184   0.361E-01    0.107E-01
RMM:   2    -0.696885371003E+03   -0.59573E-03   -0.13085E-03 14296   0.686E-02    0.309E-01
RMM:   3    -0.696884923440E+03    0.44756E-03   -0.29576E-04 10074   0.295E-02    0.140E-01
RMM:   4    -0.696885105977E+03   -0.18254E-03   -0.82455E-05  8376   0.191E-02    0.202E-01
RMM:   5    -0.696885064021E+03    0.41956E-04   -0.61510E-05  8183   0.145E-02    0.168E-01
RMM:   6    -0.696885057426E+03    0.65947E-05   -0.52676E-05  8064   0.142E-02    0.145E-01
RMM:   7    -0.696884947702E+03    0.10972E-03   -0.28132E-05  7993   0.110E-02    0.386E-02
RMM:   8    -0.696884953174E+03   -0.54720E-05   -0.89967E-06  6940   0.620E-03
  24 F= -.69688495E+03 E0= -.69631275E+03  d E =-.590036E-02  mag=     2.6328
 curvature:  -0.22 expect dE=-0.148E-01 dE for cont linesearch -0.625E-04
 trial: gam= 0.31396 g(F)=  0.668E-01 g(S)=  0.000E+00 ort = 0.952E-02 (trialstep = 0.407E-01)
 search vector abs. value=  0.104E+00
 bond charge predicted
       N       E                     dE             d eps       ncg     rms          rms(c)
DAV:   1    -0.696886452839E+03   -0.15051E-02   -0.25832E-02 15360   0.234E-01    0.494E-02
RMM:   2    -0.696886631486E+03   -0.17865E-03   -0.61943E-04 10735   0.437E-02    0.158E-01
RMM:   3    -0.696886531016E+03    0.10047E-03   -0.97093E-05  8258   0.188E-02    0.631E-02
RMM:   4    -0.696886589740E+03   -0.58724E-04   -0.30286E-05  7955   0.109E-02    0.119E-01
RMM:   5    -0.696886538857E+03    0.50883E-04   -0.12124E-05  7235   0.762E-03    0.576E-02
RMM:   6    -0.696886535295E+03    0.35622E-05   -0.93329E-06  6937   0.572E-03    0.560E-02
RMM:   7    -0.696886536615E+03   -0.13207E-05   -0.33898E-06  6038   0.445E-03    0.510E-02
RMM:   8    -0.696886532188E+03    0.44272E-05   -0.11504E-06  3564   0.308E-03
  25 F= -.69688653E+03 E0= -.69631433E+03  d E =-.157901E-02  mag=     2.6315
 trial-energy change:   -0.001579  1 .order   -0.001545   -0.002838   -0.000252
 step:   0.0447(harm=  0.0447)  dis= 0.00139  next Energy=  -696.886510 (dE=-0.156E-02)
 bond charge predicted
       N       E                     dE             d eps       ncg     rms          rms(c)
DAV:   1    -0.696886538249E+03   -0.16334E-05   -0.24880E-04 14432   0.239E-02    0.247E-02
RMM:   2    -0.696886745918E+03   -0.20767E-03   -0.30470E-05  7713   0.843E-03    0.175E-01
RMM:   3    -0.696886558576E+03    0.18734E-03   -0.19070E-05  7495   0.929E-03    0.584E-02
RMM:   4    -0.696886553006E+03    0.55693E-05   -0.41562E-06  6231   0.475E-03    0.380E-02
RMM:   5    -0.696886551674E+03    0.13322E-05   -0.66564E-07  3158   0.296E-03    0.203E-02
RMM:   6    -0.696886554527E+03   -0.28529E-05   -0.43827E-08  1699   0.246E-03    0.959E-03
RMM:   7    -0.696886560750E+03   -0.62234E-05   -0.20829E-08  1507   0.231E-03    0.778E-03
RMM:   8    -0.696886563569E+03   -0.28185E-05   -0.15806E-09  1299   0.226E-03
  26 F= -.69688656E+03 E0= -.69631439E+03  d E =-.161039E-02  mag=     2.6303
 curvature:  -0.03 expect dE=-0.278E-03 dE for cont linesearch -0.318E-07
 trial: gam= 0.15113 g(F)=  0.831E-02 g(S)=  0.000E+00 ort =-0.315E-03 (trialstep = 0.415E-01)
 search vector abs. value=  0.106E-01
 bond charge predicted
       N       E                     dE             d eps       ncg     rms          rms(c)
DAV:   1    -0.696886824423E+03   -0.26367E-03   -0.34358E-03 15248   0.861E-02    0.147E-02
RMM:   2    -0.696886847905E+03   -0.23481E-04   -0.73520E-05  7916   0.179E-02    0.472E-02
RMM:   3    -0.696886842637E+03    0.52674E-05   -0.12371E-05  7791   0.815E-03    0.243E-02
RMM:   4    -0.696886855360E+03   -0.12723E-04   -0.38726E-06  6462   0.424E-03    0.468E-02
RMM:   5    -0.696886851050E+03    0.43102E-05   -0.66031E-07  3458   0.309E-03    0.215E-02
RMM:   6    -0.696886855503E+03   -0.44532E-05   -0.30807E-07  2317   0.286E-03    0.162E-02
RMM:   7    -0.696886861040E+03   -0.55366E-05   -0.30584E-07  2210   0.277E-03    0.172E-02
RMM:   8    -0.696886870924E+03   -0.98848E-05   -0.73311E-07  2574   0.289E-03
  27 F= -.69688687E+03 E0= -.69631470E+03  d E =-.307355E-03  mag=     2.6293
 trial-energy change:   -0.000307  1 .order   -0.000265   -0.000343   -0.000186
 step:   0.0909(harm=  0.0909)  dis= 0.00058  next Energy=  -696.886939 (dE=-0.375E-03)
 bond charge predicted
       N       E                     dE             d eps       ncg     rms          rms(c)
DAV:   1    -0.696886971707E+03   -0.11067E-03   -0.48776E-03 15568   0.102E-01    0.190E-02
RMM:   2    -0.696887028033E+03   -0.56326E-04   -0.10583E-04  7994   0.214E-02    0.857E-02
RMM:   3    -0.696887017537E+03    0.10496E-04   -0.17990E-05  7881   0.977E-03    0.678E-02
RMM:   4    -0.696887001170E+03    0.16367E-04   -0.47962E-06  6750   0.481E-03    0.439E-02
RMM:   5    -0.696887010441E+03   -0.92713E-05   -0.21109E-06  5182   0.355E-03    0.411E-02
RMM:   6    -0.696887014055E+03   -0.36136E-05   -0.67919E-07  3233   0.307E-03    0.367E-02
RMM:   7    -0.696887018269E+03   -0.42142E-05   -0.88254E-07  3185   0.309E-03    0.217E-02
RMM:   8    -0.696887021785E+03   -0.35159E-05   -0.55469E-07  2565   0.294E-03
  28 F= -.69688702E+03 E0= -.69631485E+03  d E =-.458216E-03  mag=     2.6286
 curvature:  -0.06 expect dE=-0.229E-03 dE for cont linesearch -0.698E-06
 trial: gam= 0.51673 g(F)=  0.392E-02 g(S)=  0.000E+00 ort =-0.356E-03 (trialstep = 0.514E-01)
 search vector abs. value=  0.638E-02
 bond charge predicted
       N       E                     dE             d eps       ncg     rms          rms(c)
DAV:   1    -0.696887130846E+03   -0.11258E-03   -0.32591E-03 15232   0.826E-02    0.231E-02
RMM:   2    -0.696887168158E+03   -0.37312E-04   -0.75967E-05  7938   0.175E-02    0.707E-02
RMM:   3    -0.696887149610E+03    0.18549E-04   -0.13307E-05  7750   0.858E-03    0.321E-02
RMM:   4    -0.696887185964E+03   -0.36354E-04   -0.61623E-06  6500   0.458E-03    0.835E-02
RMM:   5    -0.696887161023E+03    0.24941E-04   -0.34127E-06  6071   0.433E-03    0.370E-02
RMM:   6    -0.696887160885E+03    0.13774E-06   -0.12534E-06  3966   0.325E-03    0.245E-02
RMM:   7    -0.696887165129E+03   -0.42442E-05   -0.19977E-07  2418   0.290E-03    0.145E-02
RMM:   8    -0.696887169961E+03   -0.48314E-05   -0.10666E-07  1651   0.283E-03
  29 F= -.69688717E+03 E0= -.69631498E+03  d E =-.148175E-03  mag=     2.6280
 trial-energy change:   -0.000148  1 .order   -0.000110   -0.000192   -0.000028
 step:   0.0601(harm=  0.0601)  dis= 0.00034  next Energy=  -696.887134 (dE=-0.112E-03)
 bond charge predicted
       N       E                     dE             d eps       ncg     rms          rms(c)
DAV:   1    -0.696887176507E+03   -0.11378E-04   -0.94207E-05  9456   0.148E-02    0.145E-02
RMM:   2    -0.696887265604E+03   -0.89097E-04   -0.14684E-05  7399   0.749E-03    0.113E-01
RMM:   3    -0.696887183971E+03    0.81633E-04   -0.71694E-06  6968   0.618E-03    0.324E-02
RMM:   4    -0.696887187288E+03   -0.33176E-05   -0.97263E-07  3734   0.312E-03    0.198E-02
RMM:   5    -0.696887188292E+03   -0.10039E-05   -0.75330E-08  1486   0.258E-03    0.914E-03
RMM:   6    -0.696887189035E+03   -0.74245E-06   -0.11502E-25  1054   0.238E-03    0.340E-03
RMM:   7    -0.696887195923E+03   -0.68879E-05   -0.67658E-09  1066   0.233E-03    0.654E-03
RMM:   8    -0.696887199194E+03   -0.32709E-05   -0.65952E-10  1073   0.231E-03
  30 F= -.69688720E+03 E0= -.69631502E+03  d E =-.177408E-03  mag=     2.6276
 curvature:  -0.05 expect dE=-0.114E-03 dE for cont linesearch -0.178E-07
 trial: gam= 0.48197 g(F)=  0.222E-02 g(S)=  0.000E+00 ort =-0.471E-04 (trialstep = 0.531E-01)
 search vector abs. value=  0.365E-02
 bond charge predicted
       N       E                     dE             d eps       ncg     rms          rms(c)
DAV:   1    -0.696887301430E+03   -0.10551E-03   -0.16547E-03 14928   0.535E-02    0.147E-02
RMM:   2    -0.696887312091E+03   -0.10661E-04   -0.35520E-05  7848   0.123E-02    0.389E-02
RMM:   3    -0.696887309016E+03    0.30754E-05   -0.67723E-06  7340   0.615E-03    0.202E-02
RMM:   4    -0.696887323177E+03   -0.14161E-04   -0.16894E-06  3880   0.323E-03    0.523E-02
RMM:   5    -0.696887312412E+03    0.10765E-04   -0.96827E-07  3767   0.323E-03    0.244E-02
RMM:   6    -0.696887313790E+03   -0.13776E-05   -0.52600E-07  2787   0.296E-03    0.137E-02
RMM:   7    -0.696887316790E+03   -0.30003E-05   -0.28323E-07  1889   0.282E-03    0.108E-02
RMM:   8    -0.696887318633E+03   -0.18429E-05   -0.51651E-08  1114   0.272E-03
  31 F= -.69688732E+03 E0= -.69631515E+03  d E =-.119439E-03  mag=     2.6273
 trial-energy change:   -0.000119  1 .order   -0.000099   -0.000117   -0.000082
 step:   0.1818(harm=  0.1818)  dis= 0.00070  next Energy=  -696.887399 (dE=-0.199E-03)
 bond charge predicted
       N       E                     dE             d eps       ncg     rms          rms(c)
DAV:   1    -0.696887394644E+03   -0.77854E-04   -0.96674E-03 15376   0.130E-01    0.381E-02
RMM:   2    -0.696887437952E+03   -0.43309E-04   -0.19957E-04  8732   0.288E-02    0.845E-02
RMM:   3    -0.696887425441E+03    0.12512E-04   -0.41569E-05  7897   0.140E-02    0.619E-02
RMM:   4    -0.696887416200E+03    0.92411E-05   -0.11227E-05  7220   0.686E-03    0.427E-02
RMM:   5    -0.696887424938E+03   -0.87389E-05   -0.69430E-06  6981   0.532E-03    0.525E-02
RMM:   6    -0.696887428374E+03   -0.34355E-05   -0.84345E-06  7188   0.541E-03    0.481E-02
RMM:   7    -0.696887421526E+03    0.68480E-05   -0.67353E-06  6912   0.542E-03    0.221E-02
RMM:   8    -0.696887420776E+03    0.74960E-06   -0.18473E-06  4275   0.347E-03
  32 F= -.69688742E+03 E0= -.69631531E+03  d E =-.221583E-03  mag=     2.6270
 curvature:  -0.15 expect dE=-0.710E-03 dE for cont linesearch -0.956E-06
 trial: gam= 2.34781 g(F)=  0.469E-02 g(S)=  0.000E+00 ort =-0.152E-03 (trialstep = 0.119E-01)
 search vector abs. value=  0.241E-01
 bond charge predicted
       N       E                     dE             d eps       ncg     rms          rms(c)
DAV:   1    -0.696887468807E+03   -0.47282E-04   -0.50413E-04 14800   0.291E-02    0.145E-02
RMM:   2    -0.696887523415E+03   -0.54608E-04   -0.16838E-05  7831   0.766E-03    0.910E-02
RMM:   3    -0.696887475130E+03    0.48285E-04   -0.71336E-06  6943   0.581E-03    0.428E-02
RMM:   4    -0.696887473021E+03    0.21094E-05   -0.11898E-06  4234   0.328E-03    0.195E-02
RMM:   5    -0.696887472518E+03    0.50343E-06   -0.22564E-08  1304   0.249E-03    0.140E-02
RMM:   6    -0.696887473595E+03   -0.10774E-05   -0.64453E-08  1328   0.241E-03    0.116E-02
RMM:   7    -0.696887475639E+03   -0.20437E-05   -0.39865E-08  1300   0.246E-03    0.610E-03
RMM:   8    -0.696887476625E+03   -0.98637E-06   -0.25542E-08  1168   0.250E-03
  33 F= -.69688748E+03 E0= -.69631536E+03  d E =-.558488E-04  mag=     2.6267
 ZBRENT: can't locate minimum, use default step
 trial-energy change:   -0.000056  1 .order   -0.000048   -0.000052   -0.000044
 step:   0.0478(harm=  0.0781)  dis= 0.00047  next Energy=  -696.887590 (dE=-0.169E-03)
 bond charge predicted
       N       E                     dE             d eps       ncg     rms          rms(c)
DAV:   1    -0.696887566290E+03   -0.90651E-04   -0.45428E-03 15584   0.853E-02    0.278E-02
RMM:   2    -0.696887586854E+03   -0.20564E-04   -0.89846E-05  7984   0.190E-02    0.666E-02
RMM:   3    -0.696887576613E+03    0.10241E-04   -0.17964E-05  7767   0.968E-03    0.396E-02
RMM:   4    -0.696887581089E+03   -0.44768E-05   -0.50310E-06  6252   0.436E-03    0.446E-02
RMM:   5    -0.696887594177E+03   -0.13088E-04   -0.69295E-06  6892   0.495E-03    0.605E-02
RMM:   6    -0.696887577220E+03    0.16957E-04   -0.42934E-06  6528   0.457E-03    0.310E-02
RMM:   7    -0.696887577928E+03   -0.70762E-06   -0.11260E-06  3599   0.318E-03    0.182E-02
RMM:   8    -0.696887578220E+03   -0.29220E-06   -0.17863E-07  1925   0.280E-03
  34 F= -.69688758E+03 E0= -.69631547E+03  d E =-.157444E-03  mag=     2.6265
 curvature:  -0.17 expect dE=-0.414E-03 dE for cont linesearch -0.136E-04
 ZBRENT: increasing intervall
 opt :   0.1194  next Energy=  -696.887513 (dE=-0.925E-04)
 bond charge predicted
       N       E                     dE             d eps       ncg     rms          rms(c)
DAV:   1    -0.696887500142E+03    0.77785E-04   -0.18064E-02 15328   0.171E-01    0.562E-02
RMM:   2    -0.696887563490E+03   -0.63347E-04   -0.34345E-04 10615   0.373E-02    0.120E-01
RMM:   3    -0.696887539549E+03    0.23941E-04   -0.77242E-05  8026   0.174E-02    0.744E-02
RMM:   4    -0.696887819762E+03   -0.28021E-03   -0.39539E-05  7815   0.113E-02    0.228E-01
RMM:   5    -0.696887512193E+03    0.30757E-03   -0.25776E-05  7818   0.109E-02    0.587E-02
RMM:   6    -0.696887551575E+03   -0.39382E-04   -0.17264E-05  7499   0.774E-03    0.799E-02
RMM:   7    -0.696887528574E+03    0.23001E-04   -0.79743E-06  6892   0.651E-03    0.342E-02
RMM:   8    -0.696887533807E+03   -0.52326E-05   -0.17594E-06  4026   0.331E-03
  35 F= -.69688753E+03 E0= -.69631544E+03  d E =-.113031E-03  mag=     2.6263
 curvature:   0.82 expect dE= 0.586E-02 dE for cont linesearch  0.255E-03
 ZBRENT: bracketing found
 ZBRENT: interpolating
 opt :   0.0718  next Energy=  -696.887595 (dE=-0.174E-03)
 bond charge predicted
       N       E                     dE             d eps       ncg     rms          rms(c)
DAV:   1    -0.696887592357E+03   -0.63783E-04   -0.79645E-03 15552   0.114E-01    0.474E-02
RMM:   2    -0.696888126760E+03   -0.53440E-03   -0.21219E-04  9158   0.283E-02    0.292E-01
RMM:   3    -0.696887586828E+03    0.53993E-03   -0.60476E-05  7938   0.177E-02    0.863E-02
RMM:   4    -0.696887601767E+03   -0.14939E-04   -0.15805E-05  7622   0.850E-03    0.445E-02
RMM:   5    -0.696887629163E+03   -0.27396E-04   -0.51451E-06  6498   0.488E-03    0.729E-02
RMM:   6    -0.696887624108E+03    0.50544E-05   -0.80666E-06  7210   0.516E-03    0.637E-02
RMM:   7    -0.696887602246E+03    0.21863E-04   -0.61668E-06  6730   0.498E-03    0.260E-02
RMM:   8    -0.696887606775E+03   -0.45289E-05   -0.22543E-06  5124   0.367E-03
  36 F= -.69688761E+03 E0= -.69631550E+03  d E =-.185998E-03  mag=     2.6262
 curvature:  -0.05 expect dE=-0.158E-03 dE for cont linesearch -0.180E-08
 trial: gam= 0.39272 g(F)=  0.297E-02 g(S)=  0.000E+00 ort =-0.285E-04 (trialstep = 0.239E-01)
 search vector abs. value=  0.667E-02
 bond charge predicted
       N       E                     dE             d eps       ncg     rms          rms(c)
DAV:   1    -0.696887670579E+03   -0.68334E-04   -0.46706E-04 14848   0.288E-02    0.120E-02
RMM:   2    -0.696887676808E+03   -0.62293E-05   -0.11972E-05  7727   0.699E-03    0.379E-02
RMM:   3    -0.696887673066E+03    0.37428E-05   -0.26062E-06  5913   0.414E-03    0.206E-02
RMM:   4    -0.696887673044E+03    0.22090E-07   -0.12591E-08  1187   0.218E-03    0.174E-02
RMM:   5    -0.696887675904E+03   -0.28601E-05   -0.15039E-08  1048   0.223E-03    0.261E-02
RMM:   6    -0.696887673553E+03    0.23510E-05   -0.56450E-08  1322   0.222E-03    0.189E-02
RMM:   7    -0.696887674181E+03   -0.62824E-06   -0.81674E-08  1304   0.241E-03    0.157E-02
RMM:   8    -0.696887674369E+03   -0.18858E-06   -0.51009E-08  1150   0.243E-03
  37 F= -.69688767E+03 E0= -.69631557E+03  d E =-.675949E-04  mag=     2.6261
 ZBRENT: can't locate minimum, use default step
 trial-energy change:   -0.000068  1 .order   -0.000064   -0.000071   -0.000058
 step:   0.0957(harm=  0.1299)  dis= 0.00061  next Energy=  -696.887799 (dE=-0.192E-03)
 bond charge predicted
       N       E                     dE             d eps       ncg     rms          rms(c)
DAV:   1    -0.696887798793E+03   -0.12461E-03   -0.42121E-03 15408   0.858E-02    0.260E-02
RMM:   2    -0.696887812124E+03   -0.13331E-04   -0.81700E-05  7967   0.182E-02    0.596E-02
RMM:   3    -0.696887806443E+03    0.56816E-05   -0.15826E-05  7668   0.906E-03    0.334E-02
RMM:   4    -0.696887881966E+03   -0.75524E-04   -0.92573E-06  6776   0.515E-03    0.116E-01
RMM:   5    -0.696887800618E+03    0.81348E-04   -0.55105E-06  6638   0.539E-03    0.352E-02
RMM:   6    -0.696887807438E+03   -0.68194E-05   -0.22690E-06  4750   0.352E-03    0.317E-02
RMM:   7    -0.696887806166E+03    0.12717E-05   -0.78891E-07  3568   0.317E-03    0.175E-02
RMM:   8    -0.696887807498E+03   -0.13317E-05   -0.66192E-08  1422   0.260E-03
  38 F= -.69688781E+03 E0= -.69631572E+03  d E =-.200723E-03  mag=     2.6260
 curvature:  -0.13 expect dE=-0.388E-03 dE for cont linesearch -0.220E-04
 ZBRENT: increasing intervall
 opt :   0.2392  next Energy=  -696.887765 (dE=-0.158E-03)
 bond charge predicted
       N       E                     dE             d eps       ncg     rms          rms(c)
DAV:   1    -0.696887711470E+03    0.94696E-04   -0.16706E-02 15408   0.171E-01    0.520E-02
RMM:   2    -0.696887907932E+03   -0.19646E-03   -0.31892E-04 10155   0.355E-02    0.193E-01
RMM:   3    -0.696887766080E+03    0.14185E-03   -0.68897E-05  8005   0.170E-02    0.112E-01
RMM:   4    -0.696887820308E+03   -0.54228E-04   -0.20764E-05  7617   0.923E-03    0.142E-01
RMM:   5    -0.696887747452E+03    0.72856E-04   -0.18850E-05  7682   0.813E-03    0.777E-02
RMM:   6    -0.696887753697E+03   -0.62450E-05   -0.16821E-05  7440   0.824E-03    0.766E-02
RMM:   7    -0.696887751843E+03    0.18539E-05   -0.63244E-06  6863   0.572E-03    0.614E-02
RMM:   8    -0.696887735493E+03    0.16350E-04   -0.13731E-06  3490   0.303E-03
  39 F= -.69688774E+03 E0= -.69631571E+03  d E =-.128719E-03  mag=     2.6258
 curvature:   0.26 expect dE= 0.420E-02 dE for cont linesearch  0.207E-03
 ZBRENT: bracketing found
 ZBRENT: interpolating
 opt :   0.1406  next Energy=  -696.887831 (dE=-0.224E-03)
 bond charge predicted
       N       E                     dE             d eps       ncg     rms          rms(c)
DAV:   1    -0.696887826911E+03   -0.75068E-04   -0.78635E-03 15616   0.118E-01    0.453E-02
RMM:   2    -0.696888694668E+03   -0.86776E-03   -0.21274E-04  8979   0.273E-02    0.371E-01
RMM:   3    -0.696887772793E+03    0.92188E-03   -0.65689E-05  7952   0.189E-02    0.624E-02
RMM:   4    -0.696887830622E+03   -0.57829E-04   -0.14487E-05  7250   0.826E-03    0.416E-02
RMM:   5    -0.696887881015E+03   -0.50393E-04   -0.51792E-06  6727   0.489E-03    0.891E-02
RMM:   6    -0.696887867145E+03    0.13870E-04   -0.54069E-06  6737   0.462E-03    0.780E-02
RMM:   7    -0.696887830341E+03    0.36804E-04   -0.69278E-06  7003   0.493E-03    0.187E-02
RMM:   8    -0.696887841306E+03   -0.10965E-04   -0.24325E-06  5503   0.389E-03
  40 F= -.69688784E+03 E0= -.69631578E+03  d E =-.234531E-03  mag=     2.6257
 curvature:  -0.03 expect dE=-0.157E-03 dE for cont linesearch -0.173E-06
 trial: gam= 1.76217 g(F)=  0.536E-02 g(S)=  0.000E+00 ort = 0.198E-03 (trialstep = 0.118E-01)
 search vector abs. value=  0.268E-01
 bond charge predicted
       N       E                     dE             d eps       ncg     rms          rms(c)
DAV:   1    -0.696887903505E+03   -0.73164E-04   -0.37244E-04 14368   0.251E-02    0.148E-02
RMM:   2    -0.696887982057E+03   -0.78552E-04   -0.15934E-05  7786   0.738E-03    0.108E-01
RMM:   3    -0.696887902737E+03    0.79320E-04   -0.77807E-06  7036   0.606E-03    0.447E-02
RMM:   4    -0.696887907265E+03   -0.45282E-05   -0.12609E-06  4281   0.333E-03    0.257E-02
RMM:   5    -0.696887904741E+03    0.25235E-05   -0.54785E-08  1174   0.242E-03    0.187E-02
RMM:   6    -0.696887904374E+03    0.36731E-06   -0.61375E-08  1109   0.232E-03    0.125E-02
RMM:   7    -0.696887905135E+03   -0.76131E-06   -0.36660E-08  1154   0.233E-03    0.845E-03
RMM:   8    -0.696887905868E+03   -0.73232E-06   -0.84119E-08  1253   0.257E-03
  41 F= -.69688791E+03 E0= -.69631586E+03  d E =-.645618E-04  mag=     2.6257
 ZBRENT: can't locate minimum, use default step
 trial-energy change:   -0.000065  1 .order   -0.000063   -0.000067   -0.000059
 step:   0.0471(harm=  0.0931)  dis= 0.00068  next Energy=  -696.888107 (dE=-0.266E-03)
 bond charge predicted
       N       E                     dE             d eps       ncg     rms          rms(c)
DAV:   1    -0.696888040612E+03   -0.13548E-03   -0.33945E-03 15248   0.744E-02    0.243E-02
RMM:   2    -0.696888050981E+03   -0.10369E-04   -0.62021E-05  7875   0.162E-02    0.500E-02
RMM:   3    -0.696888046643E+03    0.43377E-05   -0.12792E-05  7627   0.818E-03    0.287E-02
RMM:   4    -0.696888105093E+03   -0.58450E-04   -0.75282E-06  6690   0.479E-03    0.106E-01
RMM:   5    -0.696888037451E+03    0.67643E-04   -0.52562E-06  6505   0.512E-03    0.235E-02
RMM:   6    -0.696888048526E+03   -0.11075E-04   -0.19747E-06  4806   0.351E-03    0.302E-02
RMM:   7    -0.696888047207E+03    0.13184E-05   -0.42633E-07  2981   0.295E-03    0.176E-02
RMM:   8    -0.696888048432E+03   -0.12244E-05   -0.27201E-08  1163   0.258E-03
  42 F= -.69688805E+03 E0= -.69631602E+03  d E =-.207126E-03  mag=     2.6256
 curvature:  -0.15 expect dE=-0.405E-03 dE for cont linesearch -0.383E-04
 ZBRENT: increasing intervall
 opt :   0.1177  next Energy=  -696.888067 (dE=-0.226E-03)
 bond charge predicted
       N       E                     dE             d eps       ncg     rms          rms(c)
DAV:   1    -0.696888027241E+03    0.19967E-04   -0.13493E-02 15488   0.148E-01    0.482E-02
RMM:   2    -0.696888127048E+03   -0.99807E-04   -0.24359E-04  9338   0.320E-02    0.137E-01
RMM:   3    -0.696888086268E+03    0.40780E-04   -0.55521E-05  7962   0.153E-02    0.108E-01
RMM:   4    -0.696888096787E+03   -0.10519E-04   -0.18991E-05  7515   0.842E-03    0.120E-01
RMM:   5    -0.696888038901E+03    0.57886E-04   -0.11900E-05  7150   0.655E-03    0.589E-02
RMM:   6    -0.696888056546E+03   -0.17645E-04   -0.15025E-05  7744   0.674E-03    0.571E-02
RMM:   7    -0.696888067391E+03   -0.10845E-04   -0.68683E-06  6905   0.572E-03    0.669E-02
RMM:   8    -0.696888049531E+03    0.17860E-04   -0.29209E-06  5153   0.379E-03
  43 F= -.69688805E+03 E0= -.69631607E+03  d E =-.208225E-03  mag=     2.6257
 curvature:  -0.07 expect dE=-0.403E-03 dE for cont linesearch -0.237E-04
 ZBRENT: bracketing found
 ZBRENT: interpolating
 opt :   0.0804  next Energy=  -696.888092 (dE=-0.251E-03)
 bond charge predicted
       N       E                     dE             d eps       ncg     rms          rms(c)
DAV:   1    -0.696888098223E+03   -0.30832E-04   -0.37577E-03 15456   0.785E-02    0.441E-02
RMM:   2    -0.696888497345E+03   -0.39912E-03   -0.10243E-04  8027   0.203E-02    0.250E-01
RMM:   3    -0.696888080863E+03    0.41648E-03   -0.36848E-05  7919   0.137E-02    0.697E-02
RMM:   4    -0.696888101881E+03   -0.21018E-04   -0.10461E-05  7080   0.712E-03    0.238E-02
RMM:   5    -0.696888120515E+03   -0.18634E-04   -0.52274E-06  6400   0.462E-03    0.539E-02
RMM:   6    -0.696888107416E+03    0.13099E-04   -0.27744E-06  5210   0.385E-03    0.459E-02
RMM:   7    -0.696888097631E+03    0.97848E-05   -0.16319E-06  4286   0.340E-03    0.176E-02
RMM:   8    -0.696888099562E+03   -0.19308E-05   -0.38998E-07  2279   0.294E-03
  44 F= -.69688810E+03 E0= -.69631610E+03  d E =-.258256E-03  mag=     2.6257
 curvature:  -0.13 expect dE=-0.377E-03 dE for cont linesearch -0.303E-06
 trial: gam= 0.23946 g(F)=  0.280E-02 g(S)=  0.000E+00 ort = 0.245E-03 (trialstep = 0.255E-01)
 search vector abs. value=  0.445E-02
 bond charge predicted
       N       E                     dE             d eps       ncg     rms          rms(c)
DAV:   1    -0.696888157364E+03   -0.59733E-04   -0.50506E-04 14832   0.334E-02    0.103E-02
RMM:   2    -0.696888165158E+03   -0.77944E-05   -0.13867E-05  7748   0.726E-03    0.377E-02
RMM:   3    -0.696888155754E+03    0.94036E-05   -0.29202E-06  6294   0.441E-03    0.857E-03
RMM:   4    -0.696888158001E+03   -0.22471E-05   -0.27354E-08  1144   0.208E-03    0.622E-03
RMM:   5    -0.696888161866E+03   -0.38650E-05   -0.12151E-08  1104   0.214E-03    0.244E-02
RMM:   6    -0.696888157137E+03    0.47298E-05   -0.15286E-08  1231   0.213E-03    0.841E-03
RMM:   7    -0.696888158385E+03   -0.12486E-05   -0.23829E-08  1115   0.220E-03    0.782E-03
RMM:   8    -0.696888158151E+03    0.23450E-06   -0.14695E-08   957   0.218E-03
  45 F= -.69688816E+03 E0= -.69631617E+03  d E =-.585893E-04  mag=     2.6258
 trial-energy change:   -0.000059  1 .order   -0.000057   -0.000073   -0.000041
 step:   0.0593(harm=  0.0593)  dis= 0.00028  next Energy=  -696.888184 (dE=-0.846E-04)
 bond charge predicted
       N       E                     dE             d eps       ncg     rms          rms(c)
DAV:   1    -0.696888186025E+03   -0.27640E-04   -0.89293E-04 14832   0.442E-02    0.963E-03
RMM:   2    -0.696888187837E+03   -0.18115E-05   -0.19887E-05  7758   0.878E-03    0.188E-02
RMM:   3    -0.696888187800E+03    0.36882E-07   -0.30632E-06  6091   0.430E-03    0.123E-02
RMM:   4    -0.696888189190E+03   -0.13901E-05   -0.79346E-08  1583   0.237E-03    0.162E-02
RMM:   5    -0.696888188602E+03    0.58804E-06   -0.47807E-08  1489   0.239E-03    0.151E-02
RMM:   6    -0.696888188452E+03    0.14985E-06   -0.11630E-08  1282   0.234E-03    0.117E-02
RMM:   7    -0.696888187855E+03    0.59699E-06   -0.12112E-08  1034   0.229E-03    0.572E-03
RMM:   8    -0.696888188233E+03   -0.37784E-06   -0.58993E-09   926   0.231E-03
  46 F= -.69688819E+03 E0= -.69631622E+03  d E =-.886716E-04  mag=     2.6258
 curvature:  -0.05 expect dE=-0.411E-04 dE for cont linesearch -0.403E-06
 ZBRENT: extrapolating
 opt :   0.0639  next Energy=  -696.888189 (dE=-0.891E-04)
 bond charge predicted
       N       E                     dE             d eps       ncg     rms          rms(c)
DAV:   1    -0.696888188707E+03   -0.85161E-06   -0.17603E-05  8608   0.657E-03    0.476E-03
RMM:   2    -0.696888192356E+03   -0.36488E-05   -0.67112E-07  2872   0.288E-03    0.225E-02
RMM:   3    -0.696888187538E+03    0.48179E-05   -0.85317E-08  1399   0.258E-03    0.348E-03
RMM:   4    -0.696888189176E+03   -0.16384E-05   -0.69773E-09  1045   0.248E-03    0.534E-03
RMM:   5    -0.696888189081E+03    0.95053E-07    0.00000E+00   838   0.244E-03    0.221E-03
RMM:   6    -0.696888189177E+03   -0.95570E-07    0.00000E+00   838   0.245E-03    0.130E-03
RMM:   7    -0.696888189266E+03   -0.88970E-07    0.00000E+00   779   0.246E-03    0.141E-03
RMM:   8    -0.696888189331E+03   -0.65753E-07    0.00000E+00   780   0.246E-03
  47 F= -.69688819E+03 E0= -.69631622E+03  d E =-.897699E-04  mag=     2.6259
 curvature:  -0.05 expect dE=-0.563E-04 dE for cont linesearch -0.416E-07
 trial: gam= 0.41185 g(F)=  0.107E-02 g(S)=  0.000E+00 ort =-0.593E-04 (trialstep = 0.332E-01)
 search vector abs. value=  0.178E-02
 bond charge predicted
       N       E                     dE             d eps       ncg     rms          rms(c)
DAV:   1    -0.696888218236E+03   -0.28970E-04   -0.27309E-04 13952   0.230E-02    0.545E-03
RMM:   2    -0.696888219542E+03   -0.13065E-05   -0.73896E-06  7472   0.560E-03    0.148E-02
RMM:   3    -0.696888218555E+03    0.98718E-06   -0.52778E-07  2473   0.276E-03    0.989E-03
RMM:   4    -0.696888218836E+03   -0.28038E-06   -0.20015E-08  1027   0.242E-03    0.809E-03
RMM:   5    -0.696888219348E+03   -0.51218E-06   -0.18538E-09   922   0.242E-03    0.109E-02
RMM:   6    -0.696888219096E+03    0.25133E-06   -0.11756E-08  1049   0.245E-03    0.872E-03
RMM:   7    -0.696888218796E+03    0.30083E-06   -0.81078E-08  1247   0.255E-03    0.353E-03
RMM:   8    -0.696888219064E+03   -0.26832E-06   -0.43112E-08   998   0.250E-03
  48 F= -.69688822E+03 E0= -.69631626E+03  d E =-.297325E-04  mag=     2.6259
 trial-energy change:   -0.000030  1 .order   -0.000029   -0.000035   -0.000022
 step:   0.0924(harm=  0.0924)  dis= 0.00028  next Energy=  -696.888238 (dE=-0.484E-04)
 bond charge predicted
       N       E                     dE             d eps       ncg     rms          rms(c)
DAV:   1    -0.696888238295E+03   -0.19499E-04   -0.86303E-04 14704   0.409E-02    0.103E-02
RMM:   2    -0.696888247401E+03   -0.91059E-05   -0.19292E-05  7802   0.853E-03    0.388E-02
RMM:   3    -0.696888238195E+03    0.92052E-05   -0.35683E-06  6726   0.451E-03    0.174E-02
RMM:   4    -0.696888239421E+03   -0.12258E-05   -0.79022E-08  1928   0.242E-03    0.788E-03
RMM:   5    -0.696888241152E+03   -0.17309E-05   -0.35559E-08  1431   0.246E-03    0.158E-02
RMM:   6    -0.696888240729E+03    0.42283E-06   -0.68809E-08  1517   0.256E-03    0.146E-02
RMM:   7    -0.696888239123E+03    0.16061E-05   -0.55235E-08  1262   0.263E-03    0.547E-03
RMM:   8    -0.696888239729E+03   -0.60604E-06   -0.17345E-08   960   0.258E-03
  49 F= -.69688824E+03 E0= -.69631629E+03  d E =-.503977E-04  mag=     2.6259
 curvature:  -0.08 expect dE=-0.586E-04 dE for cont linesearch -0.940E-07
 trial: gam= 0.72264 g(F)=  0.748E-03 g(S)=  0.000E+00 ort =-0.462E-04 (trialstep = 0.450E-01)
 search vector abs. value=  0.161E-02
 bond charge predicted
       N       E                     dE             d eps       ncg     rms          rms(c)
DAV:   1    -0.696888259903E+03   -0.20780E-04   -0.51372E-04 14800   0.318E-02    0.711E-03
RMM:   2    -0.696888261102E+03   -0.11993E-05   -0.11334E-05  7578   0.681E-03    0.172E-02
RMM:   3    -0.696888260617E+03    0.48594E-06   -0.12325E-06  4038   0.337E-03    0.937E-03
RMM:   4    -0.696888261570E+03   -0.95306E-06   -0.16054E-08  1296   0.248E-03    0.141E-02
RMM:   5    -0.696888260630E+03    0.93941E-06   -0.32912E-08  1294   0.249E-03    0.835E-03
RMM:   6    -0.696888260879E+03   -0.24922E-06   -0.79026E-09  1163   0.249E-03    0.596E-03
RMM:   7    -0.696888260939E+03   -0.59648E-07   -0.11025E-08   987   0.250E-03    0.416E-03
RMM:   8    -0.696888260945E+03   -0.60536E-08   -0.31066E-08   973   0.252E-03
  50 F= -.69688826E+03 E0= -.69631632E+03  d E =-.212160E-04  mag=     2.6259
 trial-energy change:   -0.000021  1 .order   -0.000019   -0.000032   -0.000007
 step:   0.0566(harm=  0.0566)  dis= 0.00018  next Energy=  -696.888260 (dE=-0.202E-04)
 reached required accuracy - stopping structural energy minimisation
 writing wavefunctions
