       N       E                     dE             d eps       ncg     rms          rms(c)
DAV:   1     0.781546843458E+04    0.78155E+04   -0.31241E+05 13648   0.127E+03
DAV:   2     0.586106343736E+03   -0.72294E+04   -0.65405E+04 14464   0.374E+02
DAV:   3    -0.808294090344E+03   -0.13944E+04   -0.13385E+04 16672   0.165E+02
DAV:   4    -0.885913137982E+03   -0.77619E+02   -0.75795E+02 18640   0.435E+01
DAV:   5    -0.887563124846E+03   -0.16500E+01   -0.16291E+01 17440   0.590E+00    0.190E+02
RMM:   6    -0.746068787642E+03    0.14149E+03   -0.67299E+02 13495   0.409E+01    0.194E+02
RMM:   7    -0.105732168245E+04   -0.31125E+03   -0.21748E+02 14204   0.229E+01    0.352E+02
RMM:   8    -0.892363393774E+03    0.16496E+03   -0.54933E+01 16220   0.856E+00    0.292E+02
RMM:   9    -0.109389941073E+04   -0.20154E+03   -0.16570E+02 16933   0.175E+01    0.334E+02
RMM:  10    -0.805837208378E+03    0.28806E+03   -0.13666E+02 17011   0.157E+01    0.123E+02
RMM:  11    -0.653177753530E+03    0.15266E+03   -0.70719E+01 14374   0.141E+01    0.694E+01
RMM:  12    -0.672371749970E+03   -0.19194E+02   -0.24479E+01 13619   0.805E+00    0.739E+01
RMM:  13    -0.663220845791E+03    0.91509E+01   -0.24894E+01 13847   0.828E+00    0.346E+01
RMM:  14    -0.669344053696E+03   -0.61232E+01   -0.78257E+00 14108   0.400E+00    0.349E+01
RMM:  15    -0.676007045859E+03   -0.66630E+01   -0.48550E+00 13649   0.355E+00    0.228E+01
RMM:  16    -0.687382909606E+03   -0.11376E+02   -0.97132E+00 15285   0.409E+00    0.199E+01
RMM:  17    -0.704847425690E+03   -0.17465E+02   -0.92547E+00 15074   0.405E+00    0.190E+01
RMM:  18    -0.711488945182E+03   -0.66415E+01   -0.48825E+00 14508   0.301E+00    0.165E+01
RMM:  19    -0.713653981103E+03   -0.21650E+01   -0.17921E+00 13716   0.190E+00    0.122E+01
RMM:  20    -0.717005721092E+03   -0.33517E+01   -0.11023E+00 13787   0.162E+00    0.105E+01
RMM:  21    -0.720069131612E+03   -0.30634E+01   -0.10239E+00 14192   0.141E+00    0.941E+00
RMM:  22    -0.724569288627E+03   -0.45002E+01   -0.13175E+00 15213   0.149E+00    0.790E+00
RMM:  23    -0.730586485332E+03   -0.60172E+01   -0.23226E+00 16728   0.182E+00    0.761E+00
RMM:  24    -0.733574672251E+03   -0.29882E+01   -0.88272E-01 14766   0.116E+00    0.665E+00
RMM:  25    -0.734659823475E+03   -0.10852E+01   -0.31098E-01 14034   0.747E-01    0.671E+00
RMM:  26    -0.735176057182E+03   -0.51623E+00   -0.16730E-01 14069   0.508E-01    0.606E+00
RMM:  27    -0.736362082169E+03   -0.11860E+01   -0.14486E-01 14379   0.453E-01    0.533E+00
RMM:  28    -0.737699473077E+03   -0.13374E+01   -0.23188E-01 15479   0.557E-01    0.437E+00
RMM:  29    -0.738473520489E+03   -0.77405E+00   -0.93111E-02 14176   0.384E-01    0.350E+00
RMM:  30    -0.738904801302E+03   -0.43128E+00   -0.76538E-02 14528   0.346E-01    0.287E+00
RMM:  31    -0.739394620123E+03   -0.48982E+00   -0.77592E-02 14942   0.325E-01    0.213E+00
RMM:  32    -0.739757077370E+03   -0.36246E+00   -0.49702E-02 14652   0.265E-01    0.160E+00
RMM:  33    -0.739876945499E+03   -0.11987E+00   -0.45190E-02 15178   0.235E-01    0.132E+00
RMM:  34    -0.739991178042E+03   -0.11423E+00   -0.26675E-02 14586   0.179E-01    0.133E+00
RMM:  35    -0.740125055007E+03   -0.13388E+00   -0.10969E-02 14042   0.134E-01    0.146E+00
RMM:  36    -0.740242168213E+03   -0.11711E+00   -0.42900E-03 14367   0.883E-02    0.132E+00
RMM:  37    -0.740336169146E+03   -0.94001E-01   -0.20505E-03 13711   0.695E-02    0.123E+00
RMM:  38    -0.740434969222E+03   -0.98800E-01   -0.17921E-03 13743   0.609E-02    0.104E+00
RMM:  39    -0.740492788689E+03   -0.57819E-01   -0.82061E-04 12611   0.434E-02    0.818E-01
RMM:  40    -0.740557615945E+03   -0.64827E-01   -0.59722E-04 11924   0.368E-02    0.679E-01
RMM:  41    -0.740587284026E+03   -0.29668E-01   -0.41061E-04 11108   0.284E-02    0.520E-01
RMM:  42    -0.740599456749E+03   -0.12173E-01   -0.21297E-04  8916   0.212E-02    0.417E-01
RMM:  43    -0.740621459287E+03   -0.22003E-01   -0.44787E-04 10270   0.278E-02    0.292E-01
RMM:  44    -0.740629824866E+03   -0.83656E-02   -0.22450E-04  8731   0.220E-02    0.189E-01
RMM:  45    -0.740636446646E+03   -0.66218E-02   -0.16871E-04  8549   0.190E-02    0.125E-01
RMM:  46    -0.740638180224E+03   -0.17336E-02   -0.58395E-05  8163   0.137E-02    0.101E-01
RMM:  47    -0.740638747867E+03   -0.56764E-03   -0.26147E-05  7996   0.899E-03    0.911E-02
RMM:  48    -0.740640258170E+03   -0.15103E-02   -0.33437E-05  8087   0.833E-03    0.719E-02
RMM:  49    -0.740640762231E+03   -0.50406E-03   -0.14140E-05  7232   0.619E-03    0.639E-02
RMM:  50    -0.740640984273E+03   -0.22204E-03   -0.61521E-06  5344   0.423E-03    0.554E-02
RMM:  51    -0.740640829294E+03    0.15498E-03   -0.33463E-05  8069   0.714E-03    0.514E-02
RMM:  52    -0.740641167449E+03   -0.33815E-03   -0.91945E-06  6412   0.527E-03    0.290E-02
RMM:  53    -0.740641640745E+03   -0.47330E-03   -0.56282E-06  5205   0.401E-03    0.243E-02
RMM:  54    -0.740641765556E+03   -0.12481E-03   -0.37387E-06  4788   0.353E-03    0.117E-02
RMM:  55    -0.740641829811E+03   -0.64255E-04   -0.24658E-06  4389   0.322E-03
   1 F= -.74064183E+03 E0= -.74004787E+03  d E =-.740642E+03  mag=    -0.0013
       N       E                     dE             d eps       ncg     rms          rms(c)
DAV:   1    -0.733728993030E+03    0.69128E+01   -0.15854E+03 13808   0.622E+01    0.115E+01
RMM:   2    -0.739386336395E+03   -0.56573E+01   -0.54672E+01 13440   0.128E+01    0.189E+01
RMM:   3    -0.740308420242E+03   -0.92208E+00   -0.90966E+00 14275   0.511E+00    0.154E+01
RMM:   4    -0.740614840222E+03   -0.30642E+00   -0.21584E+00 14148   0.257E+00    0.181E+01
RMM:   5    -0.739338808356E+03    0.12760E+01   -0.61228E-01 13527   0.151E+00    0.116E+01
RMM:   6    -0.739290019159E+03    0.48789E-01   -0.80076E-01 14019   0.132E+00    0.970E+00
RMM:   7    -0.738799705434E+03    0.49031E+00   -0.34518E-01 13507   0.995E-01    0.479E+00
RMM:   8    -0.738730778141E+03    0.68927E-01   -0.13982E-01 13619   0.651E-01    0.297E+00
RMM:   9    -0.738720185183E+03    0.10593E-01   -0.42518E-02 14164   0.346E-01    0.212E+00
RMM:  10    -0.738702735989E+03    0.17449E-01   -0.17608E-02 13747   0.214E-01    0.147E+00
RMM:  11    -0.738696858684E+03    0.58773E-02   -0.10984E-02 13622   0.160E-01    0.981E-01
RMM:  12    -0.738694179413E+03    0.26793E-02   -0.10918E-02 13828   0.144E-01    0.509E-01
RMM:  13    -0.738694208824E+03   -0.29411E-04   -0.35155E-03 15420   0.823E-02    0.286E-01
RMM:  14    -0.738694392529E+03   -0.18370E-03   -0.55195E-04 11858   0.343E-02    0.231E-01
RMM:  15    -0.738694693636E+03   -0.30111E-03   -0.38735E-04 10830   0.299E-02    0.164E-01
RMM:  16    -0.738695104407E+03   -0.41077E-03   -0.21174E-04  9058   0.225E-02    0.104E-01
RMM:  17    -0.738695271850E+03   -0.16744E-03   -0.75452E-05  8117   0.162E-02    0.654E-02
RMM:  18    -0.738695394001E+03   -0.12215E-03   -0.37978E-05  7881   0.996E-03    0.462E-02
RMM:  19    -0.738695489081E+03   -0.95080E-04   -0.18861E-05  7425   0.691E-03
   2 F= -.73869549E+03 E0= -.73810998E+03  d E =0.194634E+01  mag=    -0.0006
       N       E                     dE             d eps       ncg     rms          rms(c)
DAV:   1    -0.741725073652E+03   -0.30297E+01   -0.55006E+02 13792   0.376E+01    0.774E+00
RMM:   2    -0.746939974918E+03   -0.52149E+01   -0.17578E+01 13442   0.753E+00    0.247E+01
RMM:   3    -0.743740798683E+03    0.31992E+01   -0.27230E+00 14176   0.301E+00    0.965E+00
RMM:   4    -0.743569525316E+03    0.17127E+00   -0.80018E-01 13458   0.163E+00    0.111E+01
RMM:   5    -0.742868113312E+03    0.70141E+00   -0.48634E-01 13994   0.114E+00    0.623E+00
RMM:   6    -0.742750279582E+03    0.11783E+00   -0.59079E-01 14422   0.971E-01    0.356E+00
RMM:   7    -0.742703553649E+03    0.46726E-01   -0.13526E-01 13441   0.644E-01    0.232E+00
RMM:   8    -0.742723868706E+03   -0.20315E-01   -0.94773E-02 13653   0.502E-01    0.298E+00
RMM:   9    -0.742669910127E+03    0.53959E-01   -0.18073E-02 13874   0.248E-01    0.832E-01
RMM:  10    -0.742666356801E+03    0.35533E-02   -0.63885E-03 14705   0.116E-01    0.407E-01
RMM:  11    -0.742665619490E+03    0.73731E-03   -0.32056E-03 12939   0.776E-02    0.343E-01
RMM:  12    -0.742665577668E+03    0.41822E-04   -0.18234E-03 12850   0.608E-02    0.221E-01
RMM:  13    -0.742665457478E+03    0.12019E-03   -0.74635E-04 12031   0.383E-02    0.132E-01
RMM:  14    -0.742665485706E+03   -0.28228E-04   -0.13941E-04  8269   0.204E-02
   3 F= -.74266549E+03 E0= -.74207596E+03  d E =-.202366E+01  mag=    -0.0003
       N       E                     dE             d eps       ncg     rms          rms(c)
DAV:   1    -0.742687941787E+03   -0.22484E-01   -0.38947E+00 13904   0.310E+00    0.588E-01
RMM:   2    -0.742724466821E+03   -0.36525E-01   -0.96591E-02 13440   0.582E-01    0.229E+00
RMM:   3    -0.742696971670E+03    0.27495E-01   -0.15499E-02 13989   0.224E-01    0.578E-01
RMM:   4    -0.742699147856E+03   -0.21762E-02   -0.46177E-03 13625   0.120E-01    0.877E-01
RMM:   5    -0.742696610301E+03    0.25376E-02   -0.18783E-03 13148   0.788E-02    0.633E-01
RMM:   6    -0.742696187586E+03    0.42272E-03   -0.13779E-03 12765   0.598E-02    0.435E-01
RMM:   7    -0.742695621575E+03    0.56601E-03   -0.10110E-03 12885   0.523E-02    0.244E-01
RMM:   8    -0.742695290539E+03    0.33104E-03   -0.37376E-04 10501   0.353E-02    0.610E-02
RMM:   9    -0.742695327051E+03   -0.36512E-04   -0.10606E-04  8006   0.175E-02
   4 F= -.74269533E+03 E0= -.74210624E+03  d E =-.205350E+01  mag=    -0.0002
       N       E                     dE             d eps       ncg     rms          rms(c)
DAV:   1    -0.737417712599E+03    0.52776E+01   -0.12763E+03 13440   0.569E+01    0.991E+00
RMM:   2    -0.745539114640E+03   -0.81214E+01   -0.35824E+01 13440   0.113E+01    0.372E+01
RMM:   3    -0.741371709328E+03    0.41674E+01   -0.64290E+00 14482   0.461E+00    0.114E+01
RMM:   4    -0.742095516188E+03   -0.72381E+00   -0.13596E+00 14055   0.221E+00    0.157E+01
RMM:   5    -0.741032449657E+03    0.10631E+01   -0.57620E-01 13455   0.143E+00    0.699E+00
RMM:   6    -0.740951532357E+03    0.80917E-01   -0.26835E-01 13446   0.951E-01    0.793E+00
RMM:   7    -0.740934551179E+03    0.16981E-01   -0.24728E-01 13738   0.784E-01    0.665E+00
RMM:   8    -0.740794688606E+03    0.13986E+00   -0.14512E-01 13691   0.605E-01    0.187E+00
RMM:   9    -0.740787774837E+03    0.69138E-02   -0.31133E-02 14123   0.320E-01    0.202E+00
RMM:  10    -0.740787738898E+03    0.35938E-04   -0.10491E-02 14668   0.144E-01    0.205E+00
RMM:  11    -0.740778133964E+03    0.96049E-02   -0.12101E-02 13580   0.155E-01    0.125E+00
RMM:  12    -0.740776582116E+03    0.15518E-02   -0.60225E-03 13839   0.118E-01    0.882E-01
RMM:  13    -0.740776661148E+03   -0.79032E-04   -0.20948E-03 14931   0.656E-02    0.799E-01
RMM:  14    -0.740776571919E+03    0.89230E-04   -0.36075E-04 10578   0.301E-02
   5 F= -.74077657E+03 E0= -.74016464E+03  d E =0.191876E+01  mag=    -0.0002
       N       E                     dE             d eps       ncg     rms          rms(c)
DAV:   1    -0.741294911438E+03   -0.51825E+00   -0.70604E+02 13440   0.426E+01    0.736E+00
RMM:   2    -0.745497261705E+03   -0.42024E+01   -0.16938E+01 13440   0.781E+00    0.224E+01
RMM:   3    -0.743866626514E+03    0.16306E+01   -0.32533E+00 13917   0.335E+00    0.127E+01
RMM:   4    -0.743135289818E+03    0.73134E+00   -0.80390E-01 14551   0.164E+00    0.702E+00
RMM:   5    -0.743190563395E+03   -0.55274E-01   -0.21311E-01 14210   0.816E-01    0.820E+00
RMM:   6    -0.743300048570E+03   -0.10949E+00   -0.12711E-01 13528   0.608E-01    0.852E+00
RMM:   7    -0.743070870345E+03    0.22918E+00   -0.24608E-01 15048   0.770E-01    0.427E+00
RMM:   8    -0.742950864089E+03    0.12001E+00   -0.91757E-02 13544   0.509E-01    0.130E+00
RMM:   9    -0.742948309464E+03    0.25546E-02   -0.25223E-02 14308   0.260E-01    0.107E+00
RMM:  10    -0.742946592850E+03    0.17166E-02   -0.56480E-03 14175   0.128E-01    0.909E-01
RMM:  11    -0.742943336227E+03    0.32566E-02   -0.54119E-03 13448   0.111E-01    0.673E-01
RMM:  12    -0.742940687225E+03    0.26490E-02   -0.76413E-03 14197   0.123E-01    0.432E-01
RMM:  13    -0.742939736975E+03    0.95025E-03   -0.19556E-03 13529   0.764E-02    0.230E-01
RMM:  14    -0.742939760609E+03   -0.23633E-04   -0.68148E-04 11825   0.377E-02
   6 F= -.74293976E+03 E0= -.74234532E+03  d E =-.244434E+00  mag=    -0.0001
       N       E                     dE             d eps       ncg     rms          rms(c)
DAV:   1    -0.742988194592E+03   -0.48458E-01   -0.12801E+01 13904   0.572E+00    0.100E+00
RMM:   2    -0.743045724367E+03   -0.57530E-01   -0.26007E-01 13440   0.102E+00    0.270E+00
RMM:   3    -0.743029813326E+03    0.15911E-01   -0.48487E-02 13678   0.414E-01    0.174E+00
RMM:   4    -0.743014743608E+03    0.15070E-01   -0.13554E-02 14752   0.205E-01    0.630E-01
RMM:   5    -0.743015006400E+03   -0.26279E-03   -0.38490E-03 13386   0.112E-01    0.758E-01
RMM:   6    -0.743016554945E+03   -0.15485E-02   -0.37417E-03 13460   0.101E-01    0.838E-01
RMM:   7    -0.743013213459E+03    0.33415E-02   -0.27781E-03 13295   0.910E-02    0.220E-01
RMM:   8    -0.743012940215E+03    0.27324E-03   -0.72108E-04 12356   0.456E-02    0.103E-01
RMM:   9    -0.743012949436E+03   -0.92209E-05   -0.22250E-04  8888   0.241E-02
   7 F= -.74301295E+03 E0= -.74242082E+03  d E =-.317622E+00  mag=    -0.0001
       N       E                     dE             d eps       ncg     rms          rms(c)
DAV:   1    -0.743032973703E+03   -0.20033E-01   -0.10518E+00 13792   0.164E+00    0.258E-01
RMM:   2    -0.743035573137E+03   -0.25994E-02   -0.20963E-02 13440   0.289E-01    0.544E-01
RMM:   3    -0.743035429075E+03    0.14406E-03   -0.35766E-03 13651   0.113E-01    0.323E-01
RMM:   4    -0.743035565515E+03   -0.13644E-03   -0.10240E-03 13512   0.548E-02    0.330E-01
RMM:   5    -0.743035027267E+03    0.53825E-03   -0.31272E-04  9835   0.322E-02    0.194E-01
RMM:   6    -0.743035074127E+03   -0.46860E-04   -0.33400E-04  9913   0.291E-02    0.117E-01
RMM:   7    -0.743035068458E+03    0.56683E-05   -0.13368E-04  7822   0.226E-02    0.690E-02
RMM:   8    -0.743035071935E+03   -0.34771E-05   -0.42246E-05  7468   0.138E-02
   8 F= -.74303507E+03 E0= -.74244235E+03  d E =-.339745E+00  mag=    -0.0000
       N       E                     dE             d eps       ncg     rms          rms(c)
DAV:   1    -0.739653270734E+03    0.33818E+01   -0.73675E+02 13456   0.427E+01    0.990E+00
RMM:   2    -0.757238457851E+03   -0.17585E+02   -0.25238E+01 13450   0.881E+00    0.547E+01
RMM:   3    -0.743371571936E+03    0.13867E+02   -0.44477E+00 14029   0.407E+00    0.187E+01
RMM:   4    -0.742781795758E+03    0.58978E+00   -0.14268E+00 13662   0.209E+00    0.174E+01
RMM:   5    -0.741009898515E+03    0.17719E+01   -0.70904E-01 13791   0.148E+00    0.675E+00
RMM:   6    -0.741238806616E+03   -0.22891E+00   -0.44522E-01 14814   0.926E-01    0.105E+01
RMM:   7    -0.740996138508E+03    0.24267E+00   -0.19740E-01 13845   0.691E-01    0.509E+00
RMM:   8    -0.740986795827E+03    0.93427E-02   -0.11800E-01 13667   0.561E-01    0.366E+00
RMM:   9    -0.740913433822E+03    0.73362E-01   -0.45813E-02 13534   0.371E-01    0.232E+00
RMM:  10    -0.740911729700E+03    0.17041E-02   -0.13212E-02 15025   0.172E-01    0.237E+00
RMM:  11    -0.740910227340E+03    0.15024E-02   -0.55584E-03 13683   0.113E-01    0.169E+00
RMM:  12    -0.740909107207E+03    0.11201E-02   -0.24051E-03 13366   0.771E-02    0.143E+00
RMM:  13    -0.740905177489E+03    0.39297E-02   -0.16600E-03 13280   0.603E-02    0.116E+00
RMM:  14    -0.740902132670E+03    0.30448E-02   -0.19486E-03 13947   0.576E-02    0.846E-01
RMM:  15    -0.740901360658E+03    0.77201E-03   -0.71554E-04 12347   0.374E-02    0.655E-01
RMM:  16    -0.740901228088E+03    0.13257E-03   -0.23807E-04  8924   0.251E-02    0.502E-01
RMM:  17    -0.740900842135E+03    0.38595E-03   -0.28771E-04  9310   0.246E-02    0.306E-01
RMM:  18    -0.740900534788E+03    0.30735E-03   -0.29896E-04  9349   0.249E-02    0.124E-01
RMM:  19    -0.740900502167E+03    0.32621E-04   -0.99629E-05  8100   0.186E-02
   9 F= -.74090050E+03 E0= -.74029238E+03  d E =0.213457E+01  mag=     0.0000
       N       E                     dE             d eps       ncg     rms          rms(c)
DAV:   1    -0.742419656772E+03   -0.15191E+01   -0.22709E+02 13440   0.238E+01    0.504E+00
RMM:   2    -0.746603836632E+03   -0.41842E+01   -0.58391E+00 13440   0.448E+00    0.255E+01
RMM:   3    -0.743014099273E+03    0.35897E+01   -0.10609E+00 13694   0.198E+00    0.661E+00
RMM:   4    -0.743122587349E+03   -0.10849E+00   -0.34305E-01 14161   0.105E+00    0.828E+00
RMM:   5    -0.743117436196E+03    0.51512E-02   -0.93076E-02 14085   0.556E-01    0.821E+00
RMM:   6    -0.743125542205E+03   -0.81060E-02   -0.40690E-02 14006   0.327E-01    0.786E+00
RMM:   7    -0.742899687980E+03    0.22585E+00   -0.11096E-01 15887   0.469E-01    0.361E+00
RMM:   8    -0.742805977365E+03    0.93711E-01   -0.66430E-02 14468   0.340E-01    0.114E+00
RMM:   9    -0.742803288179E+03    0.26892E-02   -0.89139E-03 14176   0.156E-01    0.886E-01
RMM:  10    -0.742802760870E+03    0.52731E-03   -0.29129E-03 15221   0.736E-02    0.787E-01
RMM:  11    -0.742801052786E+03    0.17081E-02   -0.21185E-03 13252   0.682E-02    0.617E-01
RMM:  12    -0.742799459047E+03    0.15937E-02   -0.43749E-03 15023   0.897E-02    0.412E-01
RMM:  13    -0.742798581855E+03    0.87719E-03   -0.65616E-04 12421   0.458E-02    0.221E-01
RMM:  14    -0.742798381955E+03    0.19990E-03   -0.21757E-04  8705   0.233E-02    0.150E-01
RMM:  15    -0.742798350185E+03    0.31771E-04   -0.62312E-05  8146   0.167E-02
  10 F= -.74279835E+03 E0= -.74219986E+03  d E =0.236722E+00  mag=     0.0000
       N       E                     dE             d eps       ncg     rms          rms(c)
DAV:   1    -0.743048195473E+03   -0.24981E+00   -0.26165E+01 13648   0.806E+00    0.168E+00
RMM:   2    -0.743434913867E+03   -0.38672E+00   -0.64444E-01 13440   0.151E+00    0.793E+00
RMM:   3    -0.743113976798E+03    0.32094E+00   -0.11356E-01 13604   0.656E-01    0.201E+00
RMM:   4    -0.743119411709E+03   -0.54349E-02   -0.37003E-02 13897   0.350E-01    0.251E+00
RMM:   5    -0.743104027252E+03    0.15384E-01   -0.12902E-02 13904   0.205E-01    0.204E+00
RMM:   6    -0.743101806355E+03    0.22209E-02   -0.57694E-03 13503   0.129E-01    0.182E+00
RMM:   7    -0.743092926047E+03    0.88803E-02   -0.56198E-03 13791   0.119E-01    0.107E+00
RMM:   8    -0.743086028528E+03    0.68975E-02   -0.40279E-03 13608   0.907E-02    0.278E-01
RMM:   9    -0.743086048290E+03   -0.19761E-04   -0.10812E-03 13410   0.498E-02    0.166E-01
RMM:  10    -0.743086122063E+03   -0.73773E-04   -0.18095E-04  8611   0.189E-02
  11 F= -.74308612E+03 E0= -.74249029E+03  d E =-.510501E-01  mag=    -0.0000
       N       E                     dE             d eps       ncg     rms          rms(c)
DAV:   1    -0.743151207286E+03   -0.65159E-01   -0.64340E+00 13856   0.400E+00    0.817E-01
RMM:   2    -0.743217944614E+03   -0.66737E-01   -0.15854E-01 13440   0.751E-01    0.327E+00
RMM:   3    -0.743167468218E+03    0.50476E-01   -0.28097E-02 13799   0.315E-01    0.935E-01
RMM:   4    -0.743170920529E+03   -0.34523E-02   -0.86940E-03 13723   0.171E-01    0.130E+00
RMM:   5    -0.743165245738E+03    0.56748E-02   -0.35551E-03 13681   0.108E-01    0.941E-01
RMM:   6    -0.743164073311E+03    0.11724E-02   -0.14391E-03 12823   0.660E-02    0.751E-01
RMM:   7    -0.743162883222E+03    0.11901E-02   -0.10300E-03 12774   0.543E-02    0.495E-01
RMM:   8    -0.743161717793E+03    0.11654E-02   -0.72665E-04 12447   0.412E-02    0.171E-01
RMM:   9    -0.743161714932E+03    0.28610E-05   -0.19286E-04  8691   0.235E-02
  12 F= -.74316171E+03 E0= -.74256712E+03  d E =-.126643E+00  mag=    -0.0000
       N       E                     dE             d eps       ncg     rms          rms(c)
DAV:   1    -0.743180546174E+03   -0.18828E-01   -0.49230E+00 13664   0.349E+00    0.730E-01
RMM:   2    -0.743228808751E+03   -0.48263E-01   -0.12022E-01 13440   0.654E-01    0.274E+00
RMM:   3    -0.743193783260E+03    0.35025E-01   -0.21707E-02 13823   0.276E-01    0.900E-01
RMM:   4    -0.743194589687E+03   -0.80643E-03   -0.68271E-03 13688   0.151E-01    0.106E+00
RMM:   5    -0.743190152850E+03    0.44368E-02   -0.27590E-03 13664   0.947E-02    0.708E-01
RMM:   6    -0.743189491224E+03    0.66163E-03   -0.10636E-03 12719   0.563E-02    0.567E-01
RMM:   7    -0.743188850627E+03    0.64060E-03   -0.73060E-04 12483   0.469E-02    0.376E-01
RMM:   8    -0.743188150069E+03    0.70056E-03   -0.50663E-04 11485   0.351E-02    0.124E-01
RMM:   9    -0.743188159902E+03   -0.98333E-05   -0.12896E-04  8105   0.200E-02
  13 F= -.74318816E+03 E0= -.74259450E+03  d E =-.153088E+00  mag=    -0.0000
       N       E                     dE             d eps       ncg     rms          rms(c)
DAV:   1    -0.741478097896E+03    0.17101E+01   -0.31705E+02 13472   0.284E+01    0.586E+00
RMM:   2    -0.744991489849E+03   -0.35134E+01   -0.92227E+00 13440   0.552E+00    0.228E+01
RMM:   3    -0.742526725374E+03    0.24648E+01   -0.15435E+00 13934   0.238E+00    0.790E+00
RMM:   4    -0.742342638418E+03    0.18409E+00   -0.40400E-01 13780   0.120E+00    0.697E+00
RMM:   5    -0.742124810070E+03    0.21783E+00   -0.24615E-01 13779   0.827E-01    0.490E+00
RMM:   6    -0.742072671872E+03    0.52138E-01   -0.20030E-01 14098   0.669E-01    0.366E+00
RMM:   7    -0.742029234739E+03    0.43437E-01   -0.67040E-02 13626   0.451E-01    0.105E+00
RMM:   8    -0.742048511814E+03   -0.19277E-01   -0.33104E-02 13829   0.289E-01    0.220E+00
RMM:   9    -0.742030902773E+03    0.17609E-01   -0.97261E-03 13478   0.191E-01    0.108E+00
RMM:  10    -0.742026014689E+03    0.48881E-02   -0.60364E-03 15245   0.983E-02    0.435E-01
RMM:  11    -0.742025128026E+03    0.88666E-03   -0.18729E-03 13156   0.618E-02    0.337E-01
RMM:  12    -0.742025060081E+03    0.67945E-04   -0.95566E-04 12804   0.474E-02
  14 F= -.74202506E+03 E0= -.74142968E+03  d E =0.116310E+01  mag=     0.0000
       N       E                     dE             d eps       ncg     rms          rms(c)
DAV:   1    -0.742782500041E+03   -0.75737E+00   -0.90988E+01 13744   0.152E+01    0.283E+00
RMM:   2    -0.743551215554E+03   -0.76872E+00   -0.21863E+00 13440   0.275E+00    0.104E+01
RMM:   3    -0.743009989716E+03    0.54123E+00   -0.38109E-01 14018   0.117E+00    0.358E+00
RMM:   4    -0.743000428257E+03    0.95615E-02   -0.96611E-02 13928   0.582E-01    0.336E+00
RMM:   5    -0.742979496493E+03    0.20932E-01   -0.40354E-02 13557   0.374E-01    0.311E+00
RMM:   6    -0.742969140854E+03    0.10356E-01   -0.21147E-02 13450   0.259E-01    0.248E+00
RMM:   7    -0.742954850565E+03    0.14290E-01   -0.20269E-02 13877   0.234E-01    0.152E+00
RMM:   8    -0.742938538996E+03    0.16312E-01   -0.14179E-02 14060   0.177E-01    0.388E-01
RMM:   9    -0.742938675790E+03   -0.13679E-03   -0.39827E-03 15420   0.873E-02    0.239E-01
RMM:  10    -0.742938679511E+03   -0.37208E-05   -0.43636E-04 10341   0.275E-02
  15 F= -.74293868E+03 E0= -.74234436E+03  d E =0.249480E+00  mag=     0.0000
       N       E                     dE             d eps       ncg     rms          rms(c)
DAV:   1    -0.743259831101E+03   -0.32116E+00   -0.14525E+01 13728   0.608E+00    0.119E+00
RMM:   2    -0.743365209607E+03   -0.10538E+00   -0.35867E-01 13440   0.112E+00    0.368E+00
RMM:   3    -0.743302274265E+03    0.62935E-01   -0.62401E-02 14030   0.466E-01    0.170E+00
RMM:   4    -0.743290423137E+03    0.11851E-01   -0.15609E-02 13819   0.236E-01    0.933E-01
RMM:   5    -0.743291720937E+03   -0.12978E-02   -0.74686E-03 13573   0.158E-01    0.110E+00
RMM:   6    -0.743287896979E+03    0.38240E-02   -0.33924E-03 13410   0.109E-01    0.647E-01
RMM:   7    -0.743287640374E+03    0.25661E-03   -0.29203E-03 13384   0.910E-02    0.476E-01
RMM:   8    -0.743286377479E+03    0.12629E-02   -0.13760E-03 12825   0.651E-02    0.165E-01
RMM:   9    -0.743286404847E+03   -0.27368E-04   -0.55758E-04 11162   0.317E-02
  16 F= -.74328640E+03 E0= -.74269275E+03  d E =-.982449E-01  mag=     0.0000
       N       E                     dE             d eps       ncg     rms          rms(c)
DAV:   1    -0.743340654147E+03   -0.54277E-01   -0.50366E+00 13888   0.358E+00    0.720E-01
RMM:   2    -0.743384965869E+03   -0.44312E-01   -0.12679E-01 13440   0.666E-01    0.241E+00
RMM:   3    -0.743356364915E+03    0.28601E-01   -0.21760E-02 13828   0.281E-01    0.114E+00
RMM:   4    -0.743350114291E+03    0.62506E-02   -0.58141E-03 13847   0.144E-01    0.489E-01
RMM:   5    -0.743350787684E+03   -0.67339E-03   -0.26871E-03 13582   0.920E-02    0.602E-01
RMM:   6    -0.743349587158E+03    0.12005E-02   -0.12126E-03 12728   0.635E-02    0.358E-01
RMM:   7    -0.743349565920E+03    0.21239E-04   -0.10387E-03 12878   0.553E-02    0.258E-01
RMM:   8    -0.743349248924E+03    0.31700E-03   -0.46677E-04 11194   0.381E-02    0.107E-01
RMM:   9    -0.743349263743E+03   -0.14819E-04   -0.16252E-04  8428   0.202E-02
  17 F= -.74334926E+03 E0= -.74275570E+03  d E =-.161104E+00  mag=     0.0000
       N       E                     dE             d eps       ncg     rms          rms(c)
DAV:   1    -0.743354467551E+03   -0.52186E-02   -0.32561E-01 14112   0.911E-01    0.172E-01
RMM:   2    -0.743355769532E+03   -0.13020E-02   -0.77510E-03 13434   0.166E-01    0.377E-01
RMM:   3    -0.743355430067E+03    0.33946E-03   -0.12339E-03 13486   0.668E-02    0.250E-01
RMM:   4    -0.743355351781E+03    0.78286E-04   -0.33226E-04  9656   0.334E-02    0.210E-01
RMM:   5    -0.743355239193E+03    0.11259E-03   -0.18891E-04  8024   0.261E-02    0.169E-01
RMM:   6    -0.743355190883E+03    0.48310E-04   -0.10776E-04  7575   0.206E-02    0.104E-01
RMM:   7    -0.743355198477E+03   -0.75949E-05   -0.71139E-05  7492   0.158E-02    0.514E-02
RMM:   8    -0.743355209983E+03   -0.11505E-04   -0.29666E-05  7185   0.111E-02
  18 F= -.74335521E+03 E0= -.74276157E+03  d E =-.167050E+00  mag=     0.0000
       N       E                     dE             d eps       ncg     rms          rms(c)
DAV:   1    -0.742645561979E+03    0.70964E+00   -0.11850E+02 13440   0.173E+01    0.290E+00
RMM:   2    -0.742898621648E+03   -0.25306E+00   -0.26437E+00 13440   0.307E+00    0.375E+00
RMM:   3    -0.742997732892E+03   -0.99111E-01   -0.44258E-01 14509   0.122E+00    0.363E+00
RMM:   4    -0.743124937703E+03   -0.12720E+00   -0.12226E-01 13545   0.626E-01    0.652E+00
RMM:   5    -0.742937467876E+03    0.18747E+00   -0.37649E-02 13448   0.396E-01    0.300E+00
RMM:   6    -0.742899494194E+03    0.37974E-01   -0.24759E-02 13481   0.281E-01    0.145E+00
RMM:   7    -0.742896568137E+03    0.29261E-02   -0.20797E-02 13689   0.230E-01    0.109E+00
RMM:   8    -0.742891365611E+03    0.52025E-02   -0.66332E-03 13752   0.145E-01    0.359E-01
RMM:   9    -0.742891603836E+03   -0.23823E-03   -0.25235E-03 14625   0.708E-02    0.483E-01
RMM:  10    -0.742891445383E+03    0.15845E-03   -0.72679E-04 12188   0.431E-02    0.458E-01
RMM:  11    -0.742890694728E+03    0.75066E-03   -0.98981E-04 12627   0.425E-02    0.251E-01
RMM:  12    -0.742890525238E+03    0.16949E-03   -0.35511E-04 10547   0.299E-02    0.130E-01
RMM:  13    -0.742890494332E+03    0.30906E-04   -0.11803E-04  8104   0.204E-02
  19 F= -.74289049E+03 E0= -.74229432E+03  d E =0.464716E+00  mag=     0.0000
       N       E                     dE             d eps       ncg     rms          rms(c)
DAV:   1    -0.743190378353E+03   -0.29985E+00   -0.35308E+01 13584   0.939E+00    0.153E+00
RMM:   2    -0.743263992744E+03   -0.73614E-01   -0.75017E-01 13440   0.165E+00    0.221E+00
RMM:   3    -0.743287557654E+03   -0.23565E-01   -0.12523E-01 14414   0.654E-01    0.186E+00
RMM:   4    -0.743320017793E+03   -0.32460E-01   -0.34307E-02 13592   0.334E-01    0.329E+00
RMM:   5    -0.743274031337E+03    0.45986E-01   -0.11249E-02 13461   0.214E-01    0.165E+00
RMM:   6    -0.743262460862E+03    0.11570E-01   -0.65078E-03 13443   0.145E-01    0.681E-01
RMM:   7    -0.743262628835E+03   -0.16797E-03   -0.60131E-03 13590   0.120E-01    0.633E-01
RMM:   8    -0.743260773760E+03    0.18551E-02   -0.19404E-03 12856   0.844E-02    0.157E-01
RMM:   9    -0.743260761142E+03    0.12618E-04   -0.71055E-04 12028   0.355E-02
  20 F= -.74326076E+03 E0= -.74266608E+03  d E =0.944488E-01  mag=     0.0000
       N       E                     dE             d eps       ncg     rms          rms(c)
DAV:   1    -0.743344544588E+03   -0.83771E-01   -0.40651E+00 13824   0.319E+00    0.581E-01
RMM:   2    -0.743357128317E+03   -0.12584E-01   -0.89140E-02 13440   0.570E-01    0.805E-01
RMM:   3    -0.743367118188E+03   -0.99899E-02   -0.17043E-02 14026   0.238E-01    0.161E+00
RMM:   4    -0.743357243550E+03    0.98746E-02   -0.36020E-03 14122   0.115E-01    0.885E-01
RMM:   5    -0.743355591072E+03    0.16525E-02   -0.13942E-03 13031   0.671E-02    0.712E-01
RMM:   6    -0.743353871098E+03    0.17200E-02   -0.99282E-04 12710   0.585E-02    0.330E-01
RMM:   7    -0.743353478284E+03    0.39281E-03   -0.52820E-04 11905   0.390E-02    0.224E-01
RMM:   8    -0.743353281989E+03    0.19629E-03   -0.23327E-04  9061   0.287E-02    0.928E-02
RMM:   9    -0.743353281824E+03    0.16545E-06   -0.71068E-05  7932   0.160E-02
  21 F= -.74335328E+03 E0= -.74275909E+03  d E =0.192816E-02  mag=     0.0000
       N       E                     dE             d eps       ncg     rms          rms(c)
DAV:   1    -0.743389984376E+03   -0.36702E-01   -0.21653E+00 13888   0.233E+00    0.395E-01
RMM:   2    -0.743394234808E+03   -0.42504E-02   -0.47025E-02 13440   0.415E-01    0.364E-01
RMM:   3    -0.743397860097E+03   -0.36253E-02   -0.77774E-03 14220   0.163E-01    0.813E-01
RMM:   4    -0.743395311174E+03    0.25489E-02   -0.18108E-03 14682   0.738E-02    0.454E-01
RMM:   5    -0.743395010497E+03    0.30068E-03   -0.51524E-04 12084   0.390E-02    0.386E-01
RMM:   6    -0.743394822542E+03    0.18796E-03   -0.51224E-04 11752   0.404E-02    0.249E-01
RMM:   7    -0.743394576710E+03    0.24583E-03   -0.36522E-04 10607   0.329E-02    0.142E-01
RMM:   8    -0.743394511468E+03    0.65242E-04   -0.11663E-04  7998   0.213E-02
  22 F= -.74339451E+03 E0= -.74280071E+03  d E =-.393015E-01  mag=     0.0000
       N       E                     dE             d eps       ncg     rms          rms(c)
DAV:   1    -0.742819799225E+03    0.57478E+00   -0.58837E+01 13440   0.122E+01    0.195E+00
RMM:   2    -0.743010313228E+03   -0.19051E+00   -0.13659E+00 13440   0.226E+00    0.594E+00
RMM:   3    -0.742963696433E+03    0.46617E-01   -0.25251E-01 14897   0.900E-01    0.279E+00
RMM:   4    -0.743080658700E+03   -0.11696E+00   -0.59443E-02 14282   0.410E-01    0.521E+00
RMM:   5    -0.742952616425E+03    0.12804E+00   -0.25649E-02 13506   0.288E-01    0.252E+00
RMM:   6    -0.742943124474E+03    0.94920E-02   -0.18164E-02 13538   0.204E-01    0.163E+00
RMM:   7    -0.742945990940E+03   -0.28665E-02   -0.12767E-02 13798   0.180E-01    0.153E+00
RMM:   8    -0.742943250054E+03    0.27409E-02   -0.57440E-03 13866   0.126E-01    0.118E+00
RMM:   9    -0.742939540964E+03    0.37091E-02   -0.18318E-03 13256   0.684E-02    0.681E-01
RMM:  10    -0.742938392682E+03    0.11483E-02   -0.98611E-04 12544   0.463E-02    0.467E-01
RMM:  11    -0.742938415163E+03   -0.22481E-04   -0.56695E-04 11749   0.336E-02
  23 F= -.74293842E+03 E0= -.74234186E+03  d E =0.456096E+00  mag=    -0.0000
       N       E                     dE             d eps       ncg     rms          rms(c)
DAV:   1    -0.743286002407E+03   -0.34761E+00   -0.22391E+01 13568   0.752E+00    0.130E+00
RMM:   2    -0.743362998075E+03   -0.76996E-01   -0.52491E-01 13440   0.139E+00    0.389E+00
RMM:   3    -0.743335171120E+03    0.27827E-01   -0.88747E-02 14288   0.562E-01    0.135E+00
RMM:   4    -0.743353729276E+03   -0.18558E-01   -0.23899E-02 14642   0.256E-01    0.218E+00
RMM:   5    -0.743335765176E+03    0.17964E-01   -0.67060E-03 13929   0.142E-01    0.151E+00
RMM:   6    -0.743331720639E+03    0.40445E-02   -0.41007E-03 13264   0.993E-02    0.967E-01
RMM:   7    -0.743333090373E+03   -0.13697E-02   -0.39420E-03 13993   0.959E-02    0.883E-01
RMM:   8    -0.743330377393E+03    0.27130E-02   -0.16573E-03 12862   0.744E-02    0.497E-01
RMM:   9    -0.743330082358E+03    0.29503E-03   -0.63171E-04 11790   0.365E-02    0.389E-01
RMM:  10    -0.743329951270E+03    0.13109E-03   -0.14082E-04  8325   0.204E-02    0.339E-01
RMM:  11    -0.743329904689E+03    0.46581E-04   -0.13489E-04  8154   0.176E-02
  24 F= -.74332990E+03 E0= -.74273518E+03  d E =0.646068E-01  mag=    -0.0000
       N       E                     dE             d eps       ncg     rms          rms(c)
DAV:   1    -0.743414578429E+03   -0.84627E-01   -0.33722E+00 13824   0.292E+00    0.453E-01
RMM:   2    -0.743423913859E+03   -0.93354E-02   -0.77305E-02 13440   0.541E-01    0.118E+00
RMM:   3    -0.743422863884E+03    0.10500E-02   -0.14900E-02 15068   0.212E-01    0.698E-01
RMM:   4    -0.743428709991E+03   -0.58461E-02   -0.29192E-03 13933   0.959E-02    0.111E+00
RMM:   5    -0.743422371844E+03    0.63381E-02   -0.17946E-03 13160   0.743E-02    0.639E-01
RMM:   6    -0.743422015158E+03    0.35669E-03   -0.10602E-03 12662   0.515E-02    0.500E-01
RMM:   7    -0.743421978718E+03    0.36440E-04   -0.66050E-04 12227   0.407E-02    0.378E-01
RMM:   8    -0.743421885217E+03    0.93501E-04   -0.46408E-04 11119   0.337E-02
  25 F= -.74342189E+03 E0= -.74282757E+03  d E =-.273737E-01  mag=    -0.0000
       N       E                     dE             d eps       ncg     rms          rms(c)
DAV:   1    -0.743268443400E+03    0.15354E+00   -0.16352E+01 13440   0.647E+00    0.101E+00
RMM:   2    -0.743328157702E+03   -0.59714E-01   -0.33884E-01 13440   0.112E+00    0.305E+00
RMM:   3    -0.743305689546E+03    0.22468E-01   -0.57840E-02 14006   0.449E-01    0.997E-01
RMM:   4    -0.743345308823E+03   -0.39619E-01   -0.17209E-02 13917   0.232E-01    0.286E+00
RMM:   5    -0.743310921983E+03    0.34387E-01   -0.53498E-03 13498   0.145E-01    0.150E+00
RMM:   6    -0.743305211197E+03    0.57108E-02   -0.34306E-03 13388   0.911E-02    0.101E+00
RMM:   7    -0.743302072671E+03    0.31385E-02   -0.22292E-03 13316   0.810E-02    0.610E-01
RMM:   8    -0.743301619452E+03    0.45322E-03   -0.11181E-03 12801   0.555E-02    0.484E-01
RMM:   9    -0.743301437858E+03    0.18159E-03   -0.36670E-04 10029   0.308E-02    0.399E-01
RMM:  10    -0.743301171120E+03    0.26674E-03   -0.13912E-04  8248   0.198E-02    0.257E-01
RMM:  11    -0.743301054671E+03    0.11645E-03   -0.81428E-05  8070   0.159E-02    0.194E-01
RMM:  12    -0.743300992503E+03    0.62169E-04   -0.57990E-05  7950   0.132E-02
  26 F= -.74330099E+03 E0= -.74270486E+03  d E =0.120893E+00  mag=    -0.0000
       N       E                     dE             d eps       ncg     rms          rms(c)
DAV:   1    -0.743425520770E+03   -0.12447E+00   -0.96587E+00 13632   0.497E+00    0.755E-01
RMM:   2    -0.743467308597E+03   -0.41788E-01   -0.20323E-01 13440   0.862E-01    0.251E+00
RMM:   3    -0.743447573341E+03    0.19735E-01   -0.35450E-02 14017   0.350E-01    0.803E-01
RMM:   4    -0.743465480710E+03   -0.17907E-01   -0.98010E-03 14064   0.176E-01    0.194E+00
RMM:   5    -0.743450692322E+03    0.14788E-01   -0.30590E-03 13370   0.108E-01    0.116E+00
RMM:   6    -0.743447807118E+03    0.28852E-02   -0.17514E-03 13184   0.677E-02    0.817E-01
RMM:   7    -0.743445915320E+03    0.18918E-02   -0.14499E-03 13146   0.622E-02    0.483E-01
RMM:   8    -0.743445381539E+03    0.53378E-03   -0.72723E-04 12426   0.455E-02    0.327E-01
RMM:   9    -0.743445356258E+03    0.25282E-04   -0.21510E-04  8893   0.236E-02
  27 F= -.74344536E+03 E0= -.74285030E+03  d E =-.234710E-01  mag=     0.0000
       N       E                     dE             d eps       ncg     rms          rms(c)
DAV:   1    -0.743348314007E+03    0.97068E-01   -0.75631E+00 13664   0.443E+00    0.770E-01
RMM:   2    -0.743384882896E+03   -0.36569E-01   -0.16949E-01 13440   0.782E-01    0.250E+00
RMM:   3    -0.743371330122E+03    0.13553E-01   -0.29173E-02 14532   0.312E-01    0.154E+00
RMM:   4    -0.743385011006E+03   -0.13681E-01   -0.59603E-03 13979   0.145E-01    0.197E+00
RMM:   5    -0.743365927574E+03    0.19083E-01   -0.41155E-03 13435   0.111E-01    0.107E+00
RMM:   6    -0.743365656556E+03    0.27102E-03   -0.21869E-03 13146   0.749E-02    0.833E-01
RMM:   7    -0.743366339204E+03   -0.68265E-03   -0.16166E-03 13162   0.665E-02    0.734E-01
RMM:   8    -0.743365147476E+03    0.11917E-02   -0.89622E-04 12664   0.526E-02    0.491E-01
RMM:   9    -0.743364613866E+03    0.53361E-03   -0.27056E-04  9415   0.267E-02    0.340E-01
RMM:  10    -0.743364409948E+03    0.20392E-03   -0.16783E-04  8414   0.217E-02    0.241E-01
RMM:  11    -0.743364386966E+03    0.22982E-04   -0.10927E-04  7984   0.174E-02
  28 F= -.74336439E+03 E0= -.74276866E+03  d E =0.809693E-01  mag=    -0.0000
       N       E                     dE             d eps       ncg     rms          rms(c)
DAV:   1    -0.743447573500E+03   -0.83164E-01   -0.44342E+00 13728   0.339E+00    0.587E-01
RMM:   2    -0.743463837866E+03   -0.16264E-01   -0.10187E-01 13440   0.603E-01    0.181E+00
RMM:   3    -0.743458667134E+03    0.51707E-02   -0.15491E-02 13754   0.246E-01    0.892E-01
RMM:   4    -0.743474056566E+03   -0.15389E-01   -0.51480E-03 14057   0.119E-01    0.177E+00
RMM:   5    -0.743457461082E+03    0.16595E-01   -0.17677E-03 13060   0.812E-02    0.657E-01
RMM:   6    -0.743457509739E+03   -0.48658E-04   -0.11980E-03 12858   0.529E-02    0.584E-01
RMM:   7    -0.743457349613E+03    0.16013E-03   -0.64899E-04 12209   0.459E-02    0.468E-01
RMM:   8    -0.743456895332E+03    0.45428E-03   -0.40320E-04 10617   0.340E-02    0.305E-01
RMM:   9    -0.743456761119E+03    0.13421E-03   -0.13936E-04  8244   0.215E-02    0.217E-01
RMM:  10    -0.743456683569E+03    0.77550E-04   -0.64262E-05  7802   0.142E-02
  29 F= -.74345668E+03 E0= -.74286169E+03  d E =-.113273E-01  mag=    -0.0000
       N       E                     dE             d eps       ncg     rms          rms(c)
DAV:   1    -0.743414798133E+03    0.41963E-01   -0.28395E+00 13760   0.271E+00    0.348E-01
RMM:   2    -0.743421622707E+03   -0.68246E-02   -0.55061E-02 13440   0.440E-01    0.829E-01
RMM:   3    -0.743420325882E+03    0.12968E-02   -0.84455E-03 13666   0.188E-01    0.209E-01
RMM:   4    -0.743422810252E+03   -0.24844E-02   -0.26277E-03 14742   0.863E-02    0.637E-01
RMM:   5    -0.743420379483E+03    0.24308E-02   -0.58478E-04 12472   0.442E-02    0.252E-01
RMM:   6    -0.743420372715E+03    0.67681E-05   -0.37667E-04 10977   0.300E-02    0.192E-01
RMM:   7    -0.743420338635E+03    0.34080E-04   -0.22573E-04  8850   0.265E-02    0.161E-01
RMM:   8    -0.743420231732E+03    0.10690E-03   -0.12809E-04  8036   0.219E-02    0.745E-02
RMM:   9    -0.743420230386E+03    0.13458E-05   -0.38263E-05  7700   0.125E-02
  30 F= -.74342023E+03 E0= -.74282489E+03  d E =0.364532E-01  mag=    -0.0000
       N       E                     dE             d eps       ncg     rms          rms(c)
DAV:   1    -0.743459458585E+03   -0.39227E-01   -0.15865E+00 13696   0.203E+00    0.254E-01
RMM:   2    -0.743463506874E+03   -0.40483E-02   -0.30649E-02 13440   0.329E-01    0.659E-01
RMM:   3    -0.743462894995E+03    0.61188E-03   -0.47864E-03 13782   0.139E-01    0.313E-01
RMM:   4    -0.743463182959E+03   -0.28796E-03   -0.14632E-03 14409   0.639E-02    0.347E-01
RMM:   5    -0.743462550050E+03    0.63291E-03   -0.34349E-04 10290   0.338E-02    0.230E-01
RMM:   6    -0.743462525485E+03    0.24566E-04   -0.22568E-04  8714   0.256E-02    0.160E-01
RMM:   7    -0.743462499448E+03    0.26037E-04   -0.16709E-04  8337   0.231E-02    0.123E-01
RMM:   8    -0.743462442433E+03    0.57015E-04   -0.78645E-05  7810   0.175E-02
  31 F= -.74346244E+03 E0= -.74286742E+03  d E =-.575886E-02  mag=    -0.0000
       N       E                     dE             d eps       ncg     rms          rms(c)
DAV:   1    -0.743465484743E+03   -0.29853E-02   -0.94519E-01 13728   0.157E+00    0.211E-01
RMM:   2    -0.743470089571E+03   -0.46048E-02   -0.18874E-02 13440   0.263E-01    0.795E-01
RMM:   3    -0.743467749315E+03    0.23403E-02   -0.32680E-03 13786   0.112E-01    0.314E-01
RMM:   4    -0.743467569860E+03    0.17946E-03   -0.95689E-04 13529   0.541E-02    0.244E-01
RMM:   5    -0.743467321763E+03    0.24810E-03   -0.21599E-04  8345   0.278E-02    0.183E-01
RMM:   6    -0.743467382311E+03   -0.60549E-04   -0.13147E-04  8082   0.222E-02    0.177E-01
RMM:   7    -0.743467293335E+03    0.88977E-04   -0.12870E-04  7960   0.203E-02    0.112E-01
RMM:   8    -0.743467241316E+03    0.52019E-04   -0.61767E-05  7624   0.150E-02
  32 F= -.74346724E+03 E0= -.74287178E+03  d E =-.479888E-02  mag=    -0.0000
       N       E                     dE             d eps       ncg     rms          rms(c)
DAV:   1    -0.743468323460E+03   -0.10301E-02   -0.93892E-02 14304   0.494E-01    0.721E-02
RMM:   2    -0.743469075745E+03   -0.75228E-03   -0.18944E-03 13332   0.838E-02    0.334E-01
RMM:   3    -0.743468531853E+03    0.54389E-03   -0.33415E-04  9769   0.367E-02    0.109E-01
RMM:   4    -0.743468493207E+03    0.38647E-04   -0.88463E-05  7316   0.205E-02    0.662E-02
RMM:   5    -0.743468502497E+03   -0.92902E-05   -0.24867E-05  7028   0.105E-02    0.693E-02
RMM:   6    -0.743468492133E+03    0.10364E-04   -0.22981E-05  6918   0.690E-03    0.519E-02
RMM:   7    -0.743468485774E+03    0.63592E-05   -0.93362E-06  6588   0.600E-03    0.328E-02
RMM:   8    -0.743468481454E+03    0.43195E-05   -0.53969E-06  6340   0.475E-03
  33 F= -.74346848E+03 E0= -.74287321E+03  d E =-.603902E-02  mag=    -0.0000
       N       E                     dE             d eps       ncg     rms          rms(c)
DAV:   1    -0.743469797131E+03   -0.13114E-02   -0.62573E-01 13568   0.126E+00    0.186E-01
RMM:   2    -0.743471667805E+03   -0.18707E-02   -0.13387E-02 13440   0.228E-01    0.491E-01
RMM:   3    -0.743471270321E+03    0.39748E-03   -0.25773E-03 14476   0.935E-02    0.224E-01
RMM:   4    -0.743471915569E+03   -0.64525E-03   -0.61966E-04 12706   0.442E-02    0.414E-01
RMM:   5    -0.743471185192E+03    0.73038E-03   -0.24437E-04  8626   0.293E-02    0.251E-01
RMM:   6    -0.743471068644E+03    0.11655E-03   -0.11167E-04  7994   0.216E-02    0.168E-01
RMM:   7    -0.743471024023E+03    0.44621E-04   -0.10720E-04  7904   0.177E-02    0.122E-01
RMM:   8    -0.743471000727E+03    0.23296E-04   -0.67018E-05  7639   0.152E-02
  34 F= -.74347100E+03 E0= -.74287541E+03  d E =-.251927E-02  mag=    -0.0000
       N       E                     dE             d eps       ncg     rms          rms(c)
DAV:   1    -0.743471496355E+03   -0.47233E-03   -0.57623E-02 13856   0.382E-01    0.820E-02
RMM:   2    -0.743472451621E+03   -0.95527E-03   -0.13493E-03 13314   0.710E-02    0.402E-01
RMM:   3    -0.743471670864E+03    0.78076E-03   -0.26765E-04  8652   0.336E-02    0.133E-01
RMM:   4    -0.743471581362E+03    0.89502E-04   -0.75774E-05  7247   0.198E-02    0.619E-02
RMM:   5    -0.743471584773E+03   -0.34115E-05   -0.25760E-05  7096   0.101E-02    0.625E-02
RMM:   6    -0.743471575381E+03    0.93925E-05   -0.15109E-05  6768   0.729E-03    0.498E-02
RMM:   7    -0.743471568459E+03    0.69220E-05   -0.12515E-05  6640   0.661E-03    0.204E-02
RMM:   8    -0.743471569638E+03   -0.11791E-05   -0.81789E-06  6528   0.509E-03
  35 F= -.74347157E+03 E0= -.74287605E+03  d E =-.308818E-02  mag=    -0.0000
       N       E                     dE             d eps       ncg     rms          rms(c)
DAV:   1    -0.743471389793E+03    0.17867E-03   -0.40527E-01 13760   0.994E-01    0.174E-01
RMM:   2    -0.743472561330E+03   -0.11715E-02   -0.89168E-03 13440   0.185E-01    0.440E-01
RMM:   3    -0.743472262798E+03    0.29853E-03   -0.16848E-03 14062   0.759E-02    0.195E-01
RMM:   4    -0.743473199083E+03   -0.93628E-03   -0.45532E-04 11236   0.365E-02    0.433E-01
RMM:   5    -0.743472271743E+03    0.92734E-03   -0.21925E-04  8366   0.275E-02    0.223E-01
RMM:   6    -0.743472189457E+03    0.82286E-04   -0.10097E-04  7936   0.206E-02    0.142E-01
RMM:   7    -0.743472186926E+03    0.25314E-05   -0.70829E-05  7806   0.151E-02    0.109E-01
RMM:   8    -0.743472167829E+03    0.19097E-04   -0.40514E-05  7510   0.122E-02
  36 F= -.74347217E+03 E0= -.74287637E+03  d E =-.598191E-03  mag=    -0.0000
       N       E                     dE             d eps       ncg     rms          rms(c)
DAV:   1    -0.743473229839E+03   -0.10429E-02   -0.87877E-02 13824   0.463E-01    0.103E-01
RMM:   2    -0.743473842630E+03   -0.61279E-03   -0.20204E-03 13360   0.876E-02    0.341E-01
RMM:   3    -0.743473552994E+03    0.28964E-03   -0.38099E-04 10666   0.397E-02    0.182E-01
RMM:   4    -0.743473384167E+03    0.16883E-03   -0.11202E-04  7802   0.212E-02    0.928E-02
RMM:   5    -0.743473389308E+03   -0.51415E-05   -0.40994E-05  7270   0.133E-02    0.915E-02
RMM:   6    -0.743473378517E+03    0.10792E-04   -0.28375E-05  7173   0.959E-03    0.721E-02
RMM:   7    -0.743473368702E+03    0.98152E-05   -0.22046E-05  6951   0.912E-03    0.428E-02
RMM:   8    -0.743473362319E+03    0.63822E-05   -0.11276E-05  6590   0.614E-03
  37 F= -.74347336E+03 E0= -.74287770E+03  d E =-.179268E-02  mag=    -0.0000
       N       E                     dE             d eps       ncg     rms          rms(c)
DAV:   1    -0.743474801976E+03   -0.14333E-02   -0.30916E-01 13792   0.857E-01    0.141E-01
RMM:   2    -0.743475408473E+03   -0.60650E-03   -0.61619E-03 13440   0.151E-01    0.203E-01
RMM:   3    -0.743475480384E+03   -0.71911E-04   -0.11960E-03 13794   0.623E-02    0.153E-01
RMM:   4    -0.743475860987E+03   -0.38060E-03   -0.31491E-04  9492   0.311E-02    0.297E-01
RMM:   5    -0.743475425150E+03    0.43584E-03   -0.12043E-04  8018   0.231E-02    0.139E-01
RMM:   6    -0.743475346244E+03    0.78906E-04   -0.56515E-05  7786   0.145E-02    0.561E-02
RMM:   7    -0.743475359908E+03   -0.13663E-04   -0.47100E-05  7598   0.120E-02    0.614E-02
RMM:   8    -0.743475346330E+03    0.13578E-04   -0.22260E-05  7026   0.102E-02
  38 F= -.74347535E+03 E0= -.74287940E+03  d E =-.198401E-02  mag=    -0.0000
       N       E                     dE             d eps       ncg     rms          rms(c)
DAV:   1    -0.743475494444E+03   -0.13454E-03   -0.15374E-02 13920   0.191E-01    0.346E-02
RMM:   2    -0.743475593866E+03   -0.99422E-04   -0.31980E-04  8831   0.342E-02    0.126E-01
RMM:   3    -0.743475523776E+03    0.70090E-04   -0.57841E-05  7168   0.172E-02    0.459E-02
RMM:   4    -0.743475519150E+03    0.46255E-05   -0.16649E-05  7056   0.859E-03    0.338E-02
RMM:   5    -0.743475517298E+03    0.18525E-05   -0.69741E-06  6430   0.566E-03    0.262E-02
RMM:   6    -0.743475517554E+03   -0.25638E-06   -0.33982E-06  5387   0.387E-03    0.220E-02
RMM:   7    -0.743475516910E+03    0.64456E-06   -0.22444E-06  4345   0.358E-03    0.151E-02
RMM:   8    -0.743475516468E+03    0.44126E-06   -0.94997E-07  2768   0.301E-03
  39 F= -.74347552E+03 E0= -.74287961E+03  d E =-.215415E-02  mag=    -0.0000
       N       E                     dE             d eps       ncg     rms          rms(c)
DAV:   1    -0.743478825949E+03   -0.33090E-02   -0.25812E-01 13792   0.774E-01    0.133E-01
RMM:   2    -0.743479417761E+03   -0.59181E-03   -0.51023E-03 13426   0.136E-01    0.256E-01
RMM:   3    -0.743479372003E+03    0.45758E-04   -0.10059E-03 13332   0.556E-02    0.134E-01
RMM:   4    -0.743479810971E+03   -0.43897E-03   -0.25521E-04  8732   0.280E-02    0.305E-01
RMM:   5    -0.743479369798E+03    0.44117E-03   -0.13093E-04  7986   0.242E-02    0.162E-01
RMM:   6    -0.743479295341E+03    0.74457E-04   -0.53899E-05  7716   0.144E-02    0.802E-02
RMM:   7    -0.743479293849E+03    0.14912E-05   -0.40283E-05  7468   0.111E-02    0.606E-02
RMM:   8    -0.743479284989E+03    0.88608E-05   -0.17359E-05  6726   0.876E-03
  40 F= -.74347928E+03 E0= -.74288305E+03  d E =-.376852E-02  mag=    -0.0000
       N       E                     dE             d eps       ncg     rms          rms(c)
DAV:   1    -0.743477359117E+03    0.19347E-02   -0.92903E-01 13632   0.147E+00    0.263E-01
RMM:   2    -0.743479245449E+03   -0.18863E-02   -0.18441E-02 13440   0.258E-01    0.418E-01
RMM:   3    -0.743479322692E+03   -0.77242E-04   -0.36507E-03 14660   0.105E-01    0.225E-01
RMM:   4    -0.743482012106E+03   -0.26894E-02   -0.97827E-04 13099   0.530E-02    0.720E-01
RMM:   5    -0.743479456595E+03    0.25555E-02   -0.42029E-04 11462   0.399E-02    0.319E-01
RMM:   6    -0.743479142777E+03    0.31382E-03   -0.19673E-04  8406   0.259E-02    0.162E-01
RMM:   7    -0.743479113194E+03    0.29583E-04   -0.14077E-04  8216   0.212E-02    0.116E-01
RMM:   8    -0.743479072534E+03    0.40661E-04   -0.57367E-05  7814   0.156E-02
  41 F= -.74347907E+03 E0= -.74288220E+03  d E =-.355607E-02  mag=    -0.0000
       N       E                     dE             d eps       ncg     rms          rms(c)
DAV:   1    -0.743480379471E+03   -0.12663E-02   -0.30314E-01 13824   0.840E-01    0.150E-01
RMM:   2    -0.743481364005E+03   -0.98453E-03   -0.60736E-03 13440   0.148E-01    0.380E-01
RMM:   3    -0.743481022940E+03    0.34106E-03   -0.11470E-03 13450   0.620E-02    0.170E-01
RMM:   4    -0.743481362534E+03   -0.33959E-03   -0.33321E-04  9580   0.315E-02    0.291E-01
RMM:   5    -0.743480934074E+03    0.42846E-03   -0.16108E-04  8056   0.254E-02    0.153E-01
RMM:   6    -0.743480900842E+03    0.33233E-04   -0.70586E-05  7670   0.165E-02    0.963E-02
RMM:   7    -0.743480889863E+03    0.10979E-04   -0.53923E-05  7480   0.132E-02    0.699E-02
RMM:   8    -0.743480886808E+03    0.30545E-05   -0.22727E-05  6880   0.982E-03
  42 F= -.74348089E+03 E0= -.74288431E+03  d E =-.537034E-02  mag=    -0.0000
       N       E                     dE             d eps       ncg     rms          rms(c)
DAV:   1    -0.743483831214E+03   -0.29414E-02   -0.14739E-01 13920   0.596E-01    0.103E-01
RMM:   2    -0.743484942991E+03   -0.11118E-02   -0.29734E-03 13420   0.104E-01    0.404E-01
RMM:   3    -0.743484103735E+03    0.83926E-03   -0.52064E-04 11862   0.438E-02    0.984E-02
RMM:   4    -0.743484162646E+03   -0.58912E-04   -0.14966E-04  8074   0.232E-02    0.129E-01
RMM:   5    -0.743484118456E+03    0.44191E-04   -0.71794E-05  7594   0.183E-02    0.101E-01
RMM:   6    -0.743484108109E+03    0.10347E-04   -0.32901E-05  7314   0.105E-02    0.719E-02
RMM:   7    -0.743484093827E+03    0.14282E-04   -0.22722E-05  6908   0.905E-03    0.432E-02
RMM:   8    -0.743484086995E+03    0.68325E-05   -0.98246E-06  6500   0.629E-03
  43 F= -.74348409E+03 E0= -.74288735E+03  d E =-.320019E-02  mag=    -0.0000
       N       E                     dE             d eps       ncg     rms          rms(c)
DAV:   1    -0.743485616847E+03   -0.15230E-02   -0.35218E-01 13824   0.921E-01    0.166E-01
RMM:   2    -0.743486437759E+03   -0.82091E-03   -0.69786E-03 13440   0.159E-01    0.271E-01
RMM:   3    -0.743486449066E+03   -0.11307E-04   -0.12972E-03 13746   0.643E-02    0.174E-01
RMM:   4    -0.743486909878E+03   -0.46081E-03   -0.34584E-04 10200   0.330E-02    0.323E-01
RMM:   5    -0.743486427403E+03    0.48247E-03   -0.17419E-04  8222   0.271E-02    0.187E-01
RMM:   6    -0.743486304027E+03    0.12338E-03   -0.71333E-05  7810   0.176E-02    0.808E-02
RMM:   7    -0.743486309607E+03   -0.55802E-05   -0.52971E-05  7712   0.125E-02    0.653E-02
RMM:   8    -0.743486291042E+03    0.18566E-04   -0.21836E-05  7088   0.104E-02
  44 F= -.74348629E+03 E0= -.74288923E+03  d E =-.540423E-02  mag=    -0.0000
       N       E                     dE             d eps       ncg     rms          rms(c)
DAV:   1    -0.743490390846E+03   -0.40812E-02   -0.10027E-01 13920   0.499E-01    0.890E-02
RMM:   2    -0.743490603452E+03   -0.21261E-03   -0.20300E-03 13314   0.866E-02    0.134E-01
RMM:   3    -0.743490603521E+03   -0.68278E-07   -0.35279E-04  9990   0.345E-02    0.673E-02
RMM:   4    -0.743491002756E+03   -0.39924E-03   -0.10693E-04  7876   0.202E-02    0.260E-01
RMM:   5    -0.743490614921E+03    0.38784E-03   -0.46471E-05  7572   0.146E-02    0.850E-02
RMM:   6    -0.743490608422E+03    0.64983E-05   -0.21829E-05  7200   0.853E-03    0.524E-02
RMM:   7    -0.743490609148E+03   -0.72586E-06   -0.13336E-05  6668   0.698E-03    0.383E-02
RMM:   8    -0.743490605113E+03    0.40355E-05   -0.47013E-06  6026   0.499E-03
  45 F= -.74349061E+03 E0= -.74289336E+03  d E =-.431407E-02  mag=    -0.0000
       N       E                     dE             d eps       ncg     rms          rms(c)
DAV:   1    -0.743501844447E+03   -0.11235E-01   -0.90362E-01 13504   0.150E+00    0.259E-01
RMM:   2    -0.743503939731E+03   -0.20953E-02   -0.18152E-02 13440   0.260E-01    0.450E-01
RMM:   3    -0.743503827178E+03    0.11255E-03   -0.32583E-03 14472   0.103E-01    0.255E-01
RMM:   4    -0.743506021844E+03   -0.21947E-02   -0.78664E-04 12950   0.502E-02    0.623E-01
RMM:   5    -0.743503921779E+03    0.21001E-02   -0.40198E-04 11380   0.385E-02    0.280E-01
RMM:   6    -0.743503760350E+03    0.16143E-03   -0.19880E-04  8422   0.263E-02    0.170E-01
RMM:   7    -0.743503727925E+03    0.32425E-04   -0.14753E-04  8274   0.221E-02    0.105E-01
RMM:   8    -0.743503690612E+03    0.37313E-04   -0.55005E-05  7750   0.157E-02
  46 F= -.74350369E+03 E0= -.74290594E+03  d E =-.173996E-01  mag=     0.0000
       N       E                     dE             d eps       ncg     rms          rms(c)
DAV:   1    -0.743519564558E+03   -0.15837E-01   -0.36150E+00 13440   0.300E+00    0.533E-01
RMM:   2    -0.743528757159E+03   -0.91926E-02   -0.72660E-02 13440   0.521E-01    0.967E-01
RMM:   3    -0.743527617289E+03    0.11399E-02   -0.13256E-02 14625   0.207E-01    0.533E-01
RMM:   4    -0.743534458420E+03   -0.68411E-02   -0.30363E-03 13658   0.100E-01    0.111E+00
RMM:   5    -0.743528128175E+03    0.63302E-02   -0.16587E-03 13090   0.777E-02    0.598E-01
RMM:   6    -0.743527304200E+03    0.82397E-03   -0.77699E-04 12452   0.515E-02    0.332E-01
RMM:   7    -0.743527258883E+03    0.45317E-04   -0.59023E-04 12092   0.395E-02    0.224E-01
RMM:   8    -0.743527042522E+03    0.21636E-03   -0.21172E-04  9071   0.283E-02    0.153E-01
RMM:   9    -0.743527035308E+03    0.72137E-05   -0.80589E-05  8072   0.168E-02
  47 F= -.74352704E+03 E0= -.74292817E+03  d E =-.407443E-01  mag=     0.0000
       N       E                     dE             d eps       ncg     rms          rms(c)
DAV:   1    -0.743371875780E+03    0.15517E+00   -0.14488E+01 13440   0.601E+00    0.104E+00
RMM:   2    -0.743409748954E+03   -0.37873E-01   -0.29178E-01 13440   0.105E+00    0.206E+00
RMM:   3    -0.743404378044E+03    0.53709E-02   -0.53728E-02 14640   0.417E-01    0.115E+00
RMM:   4    -0.743434892449E+03   -0.30514E-01   -0.12150E-02 13802   0.201E-01    0.239E+00
RMM:   5    -0.743405548267E+03    0.29344E-01   -0.63995E-03 13446   0.152E-01    0.119E+00
RMM:   6    -0.743402850692E+03    0.26976E-02   -0.33014E-03 13306   0.103E-01    0.712E-01
RMM:   7    -0.743402554352E+03    0.29634E-03   -0.23551E-03 13216   0.802E-02    0.510E-01
RMM:   8    -0.743401807057E+03    0.74730E-03   -0.94559E-04 12545   0.576E-02    0.398E-01
RMM:   9    -0.743401662474E+03    0.14458E-03   -0.41542E-04 10254   0.306E-02    0.296E-01
RMM:  10    -0.743401471598E+03    0.19088E-03   -0.14258E-04  8294   0.217E-02    0.194E-01
RMM:  11    -0.743401362411E+03    0.10919E-03   -0.19773E-04  8284   0.216E-02    0.119E-01
RMM:  12    -0.743401356639E+03    0.57727E-05   -0.78095E-05  8046   0.163E-02
  48 F= -.74340136E+03 E0= -.74280013E+03  d E =0.849344E-01  mag=     0.0000
       N       E                     dE             d eps       ncg     rms          rms(c)
DAV:   1    -0.743506992212E+03   -0.10563E+00   -0.11366E+01 13504   0.533E+00    0.966E-01
RMM:   2    -0.743537734944E+03   -0.30743E-01   -0.23253E-01 13440   0.931E-01    0.184E+00
RMM:   3    -0.743533219505E+03    0.45154E-02   -0.41846E-02 14441   0.374E-01    0.984E-01
RMM:   4    -0.743557502711E+03   -0.24283E-01   -0.10471E-02 13783   0.185E-01    0.213E+00
RMM:   5    -0.743533689910E+03    0.23813E-01   -0.54242E-03 13446   0.140E-01    0.994E-01
RMM:   6    -0.743531389591E+03    0.23003E-02   -0.24710E-03 13298   0.907E-02    0.634E-01
RMM:   7    -0.743530633129E+03    0.75646E-03   -0.20005E-03 13228   0.744E-02    0.349E-01
RMM:   8    -0.743530157704E+03    0.47542E-03   -0.59853E-04 11958   0.465E-02    0.262E-01
RMM:   9    -0.743530123653E+03    0.34051E-04   -0.28013E-04  9468   0.257E-02
  49 F= -.74353012E+03 E0= -.74293116E+03  d E =-.438326E-01  mag=     0.0000
       N       E                     dE             d eps       ncg     rms          rms(c)
DAV:   1    -0.743530289661E+03   -0.13196E-03   -0.84083E-02 13904   0.458E-01    0.160E-01
RMM:   2    -0.743530923615E+03   -0.63395E-03   -0.19897E-03 13368   0.851E-02    0.358E-01
RMM:   3    -0.743530431900E+03    0.49172E-03   -0.39816E-04 10514   0.453E-02    0.121E-01
RMM:   4    -0.743530694206E+03   -0.26231E-03   -0.12809E-04  7810   0.204E-02    0.253E-01
RMM:   5    -0.743530353509E+03    0.34070E-03   -0.63863E-05  7436   0.163E-02    0.726E-02
RMM:   6    -0.743530354397E+03   -0.88811E-06   -0.42356E-05  7290   0.112E-02    0.550E-02
RMM:   7    -0.743530351194E+03    0.32028E-05   -0.23667E-05  6998   0.969E-03    0.340E-02
RMM:   8    -0.743530345655E+03    0.55383E-05   -0.69063E-06  6250   0.548E-03
  50 F= -.74353035E+03 E0= -.74293112E+03  d E =-.440546E-01  mag=     0.0000
       N       E                     dE             d eps       ncg     rms          rms(c)
DAV:   1    -0.743531208125E+03   -0.85693E-03   -0.10586E-02 14080   0.162E-01    0.307E-02
RMM:   2    -0.743531242250E+03   -0.34125E-04   -0.22260E-04  7790   0.282E-02    0.708E-02
RMM:   3    -0.743531233257E+03    0.89932E-05   -0.32625E-05  7156   0.134E-02    0.300E-02
RMM:   4    -0.743531265230E+03   -0.31972E-04   -0.10962E-05  6822   0.622E-03    0.780E-02
RMM:   5    -0.743531232857E+03    0.32373E-04   -0.57669E-06  6204   0.532E-03    0.230E-02
RMM:   6    -0.743531235571E+03   -0.27148E-05   -0.95509E-07  3157   0.299E-03    0.194E-02
RMM:   7    -0.743531236075E+03   -0.50317E-06   -0.57660E-07  2751   0.290E-03    0.152E-02
RMM:   8    -0.743531236908E+03   -0.83388E-06   -0.38319E-08  1487   0.271E-03
  51 F= -.74353124E+03 E0= -.74293196E+03  d E =-.891253E-03  mag=     0.0000
       N       E                     dE             d eps       ncg     rms          rms(c)
DAV:   1    -0.743532656012E+03   -0.14199E-02   -0.95351E-02 13968   0.487E-01    0.867E-02
RMM:   2    -0.743532870994E+03   -0.21498E-03   -0.18826E-03 13278   0.834E-02    0.145E-01
RMM:   3    -0.743532858347E+03    0.12647E-04   -0.32692E-04  9578   0.332E-02    0.796E-02
RMM:   4    -0.743533154572E+03   -0.29623E-03   -0.91492E-05  7732   0.195E-02    0.227E-01
RMM:   5    -0.743532857197E+03    0.29737E-03   -0.44414E-05  7368   0.142E-02    0.810E-02
RMM:   6    -0.743532853653E+03    0.35444E-05   -0.22976E-05  7036   0.871E-03    0.438E-02
RMM:   7    -0.743532858154E+03   -0.45012E-05   -0.11193E-05  6436   0.676E-03    0.453E-02
RMM:   8    -0.743532853945E+03    0.42091E-05   -0.47586E-06  6041   0.487E-03
  52 F= -.74353285E+03 E0= -.74293339E+03  d E =-.250829E-02  mag=     0.0000
       N       E                     dE             d eps       ncg     rms          rms(c)
DAV:   1    -0.743528530740E+03    0.43274E-02   -0.38217E-01 13728   0.976E-01    0.172E-01
RMM:   2    -0.743529436786E+03   -0.90605E-03   -0.75379E-03 13440   0.167E-01    0.300E-01
RMM:   3    -0.743529348010E+03    0.88776E-04   -0.13400E-03 13598   0.663E-02    0.171E-01
RMM:   4    -0.743530262570E+03   -0.91456E-03   -0.32879E-04  9876   0.331E-02    0.398E-01
RMM:   5    -0.743529404498E+03    0.85807E-03   -0.18947E-04  8346   0.282E-02    0.195E-01
RMM:   6    -0.743529331849E+03    0.72649E-04   -0.88218E-05  7818   0.188E-02    0.104E-01
RMM:   7    -0.743529331750E+03    0.99535E-07   -0.60988E-05  7698   0.138E-02    0.774E-02
RMM:   8    -0.743529308990E+03    0.22760E-04   -0.23271E-05  7194   0.108E-02
  53 F= -.74352931E+03 E0= -.74292945E+03  d E =0.103667E-02  mag=     0.0000
       N       E                     dE             d eps       ncg     rms          rms(c)
DAV:   1    -0.743532477144E+03   -0.31454E-02   -0.27775E-01 13856   0.832E-01    0.144E-01
RMM:   2    -0.743533240064E+03   -0.76292E-03   -0.54892E-03 13432   0.142E-01    0.312E-01
RMM:   3    -0.743533067184E+03    0.17288E-03   -0.89579E-04 12992   0.581E-02    0.153E-01
RMM:   4    -0.743533579426E+03   -0.51224E-03   -0.28163E-04  9324   0.291E-02    0.314E-01
RMM:   5    -0.743533012658E+03    0.56677E-03   -0.13334E-04  7850   0.236E-02    0.128E-01
RMM:   6    -0.743533013518E+03   -0.85952E-06   -0.66494E-05  7600   0.151E-02    0.877E-02
RMM:   7    -0.743533006087E+03    0.74304E-05   -0.43323E-05  7398   0.127E-02    0.692E-02
RMM:   8    -0.743532988560E+03    0.17528E-04   -0.16576E-05  6768   0.869E-03
  54 F= -.74353299E+03 E0= -.74293343E+03  d E =-.264290E-02  mag=     0.0000
       N       E                     dE             d eps       ncg     rms          rms(c)
DAV:   1    -0.743535302734E+03   -0.22966E-02   -0.90879E-04 12704   0.497E-02    0.300E-02
RMM:   2    -0.743535410767E+03   -0.10803E-03   -0.42442E-05  7220   0.116E-02    0.132E-01
RMM:   3    -0.743535316185E+03    0.94582E-04   -0.18222E-05  7052   0.955E-03    0.557E-02
RMM:   4    -0.743535303239E+03    0.12947E-04   -0.51476E-06  5610   0.451E-03    0.244E-02
RMM:   5    -0.743535303173E+03    0.65585E-07   -0.55260E-07  2798   0.298E-03    0.142E-02
RMM:   6    -0.743535302345E+03    0.82875E-06   -0.53851E-07  2419   0.288E-03    0.729E-03
RMM:   7    -0.743535302470E+03   -0.12526E-06   -0.20800E-07  1623   0.248E-03    0.631E-03
RMM:   8    -0.743535302283E+03    0.18722E-06   -0.28951E-08  1120   0.235E-03
  55 F= -.74353530E+03 E0= -.74293576E+03  d E =-.231372E-02  mag=     0.0000
       N       E                     dE             d eps       ncg     rms          rms(c)
DAV:   1    -0.743541919523E+03   -0.66171E-02   -0.79768E-03 13376   0.146E-01    0.192E-02
RMM:   2    -0.743541937619E+03   -0.18096E-04   -0.16285E-04  7596   0.236E-02    0.369E-02
RMM:   3    -0.743541936590E+03    0.10286E-05   -0.20125E-05  7138   0.108E-02    0.241E-02
RMM:   4    -0.743541939139E+03   -0.25485E-05   -0.47995E-06  6130   0.446E-03    0.347E-02
RMM:   5    -0.743541936770E+03    0.23684E-05   -0.10535E-06  3488   0.324E-03    0.206E-02
RMM:   6    -0.743541934857E+03    0.19133E-05   -0.33609E-07  2292   0.275E-03    0.903E-03
RMM:   7    -0.743541935898E+03   -0.10414E-05   -0.25320E-07  1994   0.268E-03    0.940E-03
RMM:   8    -0.743541935561E+03    0.33726E-06   -0.29468E-07  1662   0.266E-03
  56 F= -.74354194E+03 E0= -.74294238E+03  d E =-.894700E-02  mag=     0.0000
       N       E                     dE             d eps       ncg     rms          rms(c)
DAV:   1    -0.743553725061E+03   -0.11789E-01   -0.31954E-02 13792   0.292E-01    0.384E-02
RMM:   2    -0.743553780295E+03   -0.55235E-04   -0.63494E-04 10854   0.470E-02    0.365E-02
RMM:   3    -0.743553788622E+03   -0.83270E-05   -0.85274E-05  7238   0.193E-02    0.365E-02
RMM:   4    -0.743553793036E+03   -0.44133E-05   -0.17971E-05  7112   0.994E-03    0.344E-02
RMM:   5    -0.743553814107E+03   -0.21071E-04   -0.84163E-06  6520   0.515E-03    0.707E-02
RMM:   6    -0.743553786980E+03    0.27126E-04   -0.37973E-06  5378   0.436E-03    0.177E-02
RMM:   7    -0.743553788832E+03   -0.18521E-05   -0.15063E-06  3632   0.324E-03    0.150E-02
RMM:   8    -0.743553788919E+03   -0.86737E-07   -0.11030E-06  3230   0.316E-03
  57 F= -.74355379E+03 E0= -.74295417E+03  d E =-.208004E-01  mag=     0.0000
       N       E                     dE             d eps       ncg     rms          rms(c)
DAV:   1    -0.743570797976E+03   -0.17009E-01   -0.12840E-01 13712   0.585E-01    0.770E-02
RMM:   2    -0.743571029662E+03   -0.23169E-03   -0.25242E-03 13322   0.939E-02    0.851E-02
RMM:   3    -0.743571106254E+03   -0.76592E-04   -0.34792E-04  9796   0.373E-02    0.104E-01
RMM:   4    -0.743571169838E+03   -0.63584E-04   -0.97192E-05  7656   0.204E-02    0.158E-01
RMM:   5    -0.743571070068E+03    0.99770E-04   -0.26977E-05  7288   0.112E-02    0.681E-02
RMM:   6    -0.743571047915E+03    0.22153E-04   -0.17318E-05  6922   0.702E-03    0.420E-02
RMM:   7    -0.743571048609E+03   -0.69405E-06   -0.10018E-05  6488   0.638E-03    0.273E-02
RMM:   8    -0.743571048228E+03    0.38102E-06   -0.65771E-06  6212   0.476E-03
  58 F= -.74357105E+03 E0= -.74297137E+03  d E =-.380597E-01  mag=     0.0000
       N       E                     dE             d eps       ncg     rms          rms(c)
DAV:   1    -0.743579446187E+03   -0.83976E-02   -0.51543E-01 13440   0.117E+00    0.155E-01
RMM:   2    -0.743580360113E+03   -0.91393E-03   -0.10093E-02 13440   0.188E-01    0.144E-01
RMM:   3    -0.743580494624E+03   -0.13451E-03   -0.13588E-03 13400   0.739E-02    0.143E-01
RMM:   4    -0.743580467506E+03    0.27117E-04   -0.32567E-04  9562   0.352E-02    0.893E-02
RMM:   5    -0.743580596348E+03   -0.12884E-03   -0.11800E-04  8040   0.223E-02    0.187E-01
RMM:   6    -0.743580481339E+03    0.11501E-03   -0.48377E-05  7792   0.134E-02    0.846E-02
RMM:   7    -0.743580462364E+03    0.18974E-04   -0.36393E-05  7582   0.106E-02    0.715E-02
RMM:   8    -0.743580442413E+03    0.19951E-04   -0.25099E-05  7046   0.987E-03
  59 F= -.74358044E+03 E0= -.74298057E+03  d E =-.474539E-01  mag=     0.0000
       N       E                     dE             d eps       ncg     rms          rms(c)
DAV:   1    -0.743593214064E+03   -0.12752E-01   -0.73118E-02 14192   0.444E-01    0.628E-02
RMM:   2    -0.743593407903E+03   -0.19384E-03   -0.14866E-03 13292   0.728E-02    0.165E-01
RMM:   3    -0.743593357469E+03    0.50434E-04   -0.21698E-04  8174   0.292E-02    0.644E-02
RMM:   4    -0.743593488923E+03   -0.13145E-03   -0.58728E-05  7488   0.170E-02    0.175E-01
RMM:   5    -0.743593361950E+03    0.12697E-03   -0.21086E-05  7198   0.100E-02    0.720E-02
RMM:   6    -0.743593359488E+03    0.24615E-05   -0.12413E-05  6686   0.609E-03    0.574E-02
RMM:   7    -0.743593372715E+03   -0.13227E-04   -0.60269E-06  6162   0.515E-03    0.622E-02
RMM:   8    -0.743593364706E+03    0.80086E-05   -0.30978E-06  4880   0.369E-03
  60 F= -.74359336E+03 E0= -.74299353E+03  d E =-.129223E-01  mag=     0.0000
       N       E                     dE             d eps       ncg     rms          rms(c)
DAV:   1    -0.743607748983E+03   -0.14376E-01   -0.65937E-01 13504   0.133E+00    0.190E-01
RMM:   2    -0.743609448420E+03   -0.16994E-02   -0.13184E-02 13440   0.217E-01    0.485E-01
RMM:   3    -0.743609109928E+03    0.33849E-03   -0.19041E-03 13930   0.863E-02    0.241E-01
RMM:   4    -0.743610834146E+03   -0.17242E-02   -0.54790E-04 12172   0.417E-02    0.595E-01
RMM:   5    -0.743609149825E+03    0.16843E-02   -0.18955E-04  8416   0.290E-02    0.242E-01
RMM:   6    -0.743609056793E+03    0.93031E-04   -0.13067E-04  8028   0.201E-02    0.154E-01
RMM:   7    -0.743609099995E+03   -0.43202E-04   -0.65735E-05  7790   0.165E-02    0.158E-01
RMM:   8    -0.743609099689E+03    0.30603E-06   -0.28051E-05  7358   0.106E-02
  61 F= -.74360910E+03 E0= -.74300946E+03  d E =-.286573E-01  mag=     0.0000
       N       E                     dE             d eps       ncg     rms          rms(c)
DAV:   1    -0.743617344320E+03   -0.82443E-02   -0.40006E-02 14032   0.321E-01    0.108E-01
RMM:   2    -0.743618144589E+03   -0.80027E-03   -0.98767E-04 13092   0.598E-02    0.342E-01
RMM:   3    -0.743617849754E+03    0.29484E-03   -0.25436E-04  8842   0.320E-02    0.283E-01
RMM:   4    -0.743617506168E+03    0.34359E-03   -0.65204E-05  7430   0.185E-02    0.135E-01
RMM:   5    -0.743617424075E+03    0.82094E-04   -0.22835E-05  7104   0.905E-03    0.612E-02
RMM:   6    -0.743617437081E+03   -0.13006E-04   -0.17686E-05  6902   0.780E-03    0.650E-02
RMM:   7    -0.743617439306E+03   -0.22252E-05   -0.94608E-06  6336   0.679E-03    0.570E-02
RMM:   8    -0.743617424647E+03    0.14659E-04   -0.23495E-06  4566   0.366E-03
  62 F= -.74361742E+03 E0= -.74301776E+03  d E =-.832496E-02  mag=     0.0000
       N       E                     dE             d eps       ncg     rms          rms(c)
DAV:   1    -0.743628844326E+03   -0.11405E-01   -0.35892E-01 13632   0.960E-01    0.146E-01
RMM:   2    -0.743629837820E+03   -0.99349E-03   -0.75824E-03 13440   0.168E-01    0.391E-01
RMM:   3    -0.743629647233E+03    0.19059E-03   -0.12672E-03 13578   0.678E-02    0.194E-01
RMM:   4    -0.743630028920E+03   -0.38169E-03   -0.32071E-04  9452   0.311E-02    0.314E-01
RMM:   5    -0.743629631816E+03    0.39710E-03   -0.10044E-04  7968   0.212E-02    0.161E-01
RMM:   6    -0.743629633562E+03   -0.17459E-05   -0.65537E-05  7786   0.141E-02    0.142E-01
RMM:   7    -0.743629608726E+03    0.24836E-04   -0.40712E-05  7538   0.127E-02    0.106E-01
RMM:   8    -0.743629595348E+03    0.13378E-04   -0.21887E-05  7038   0.869E-03
  63 F= -.74362960E+03 E0= -.74303031E+03  d E =-.204957E-01  mag=     0.0000
       N       E                     dE             d eps       ncg     rms          rms(c)
DAV:   1    -0.743634394233E+03   -0.47855E-02   -0.54078E-02 14112   0.363E-01    0.846E-02
RMM:   2    -0.743634719001E+03   -0.32477E-03   -0.11523E-03 13234   0.675E-02    0.211E-01
RMM:   3    -0.743634528888E+03    0.19011E-03   -0.24204E-04  8542   0.285E-02    0.985E-02
RMM:   4    -0.743634513365E+03    0.15523E-04   -0.59990E-05  7514   0.183E-02    0.590E-02
RMM:   5    -0.743634527712E+03   -0.14347E-04   -0.36475E-05  7354   0.117E-02    0.783E-02
RMM:   6    -0.743634523251E+03    0.44612E-05   -0.23150E-05  7114   0.966E-03    0.523E-02
RMM:   7    -0.743634511372E+03    0.11879E-04   -0.12008E-05  6448   0.686E-03    0.286E-02
RMM:   8    -0.743634506803E+03    0.45690E-05   -0.36617E-06  5611   0.436E-03
  64 F= -.74363451E+03 E0= -.74303532E+03  d E =-.491145E-02  mag=    -0.0000
       N       E                     dE             d eps       ncg     rms          rms(c)
DAV:   1    -0.743635484186E+03   -0.97281E-03   -0.26794E-02 14016   0.255E-01    0.432E-02
RMM:   2    -0.743635567878E+03   -0.83692E-04   -0.56955E-04 11782   0.468E-02    0.118E-01
RMM:   3    -0.743635546058E+03    0.21820E-04   -0.10642E-04  7442   0.199E-02    0.599E-02
RMM:   4    -0.743635606159E+03   -0.60101E-04   -0.29147E-05  7304   0.120E-02    0.113E-01
RMM:   5    -0.743635537964E+03    0.68196E-04   -0.15369E-05  6932   0.766E-03    0.437E-02
RMM:   6    -0.743635541715E+03   -0.37510E-05   -0.50393E-06  6152   0.472E-03    0.427E-02
RMM:   7    -0.743635547393E+03   -0.56787E-05   -0.32935E-06  4820   0.368E-03    0.418E-02
RMM:   8    -0.743635542755E+03    0.46383E-05   -0.13562E-06  3814   0.338E-03
  65 F= -.74363554E+03 E0= -.74303641E+03  d E =-.594741E-02  mag=    -0.0000
       N       E                     dE             d eps       ncg     rms          rms(c)
DAV:   1    -0.743639444527E+03   -0.38971E-02   -0.60242E-02 13856   0.361E-01    0.764E-02
RMM:   2    -0.743639588771E+03   -0.14424E-03   -0.12707E-03 13292   0.725E-02    0.104E-01
RMM:   3    -0.743639727765E+03   -0.13899E-03   -0.29765E-04  9236   0.292E-02    0.155E-01
RMM:   4    -0.743639600087E+03    0.12768E-03   -0.79255E-05  7636   0.194E-02    0.883E-02
RMM:   5    -0.743639590508E+03    0.95787E-05   -0.26292E-05  7316   0.104E-02    0.628E-02
RMM:   6    -0.743639571732E+03    0.18776E-04   -0.13452E-05  6738   0.711E-03    0.285E-02
RMM:   7    -0.743639575226E+03   -0.34937E-05   -0.81412E-06  6538   0.548E-03    0.285E-02
RMM:   8    -0.743639572220E+03    0.30062E-05   -0.34025E-06  5584   0.420E-03
  66 F= -.74363957E+03 E0= -.74304068E+03  d E =-.402946E-02  mag=    -0.0000
       N       E                     dE             d eps       ncg     rms          rms(c)
DAV:   1    -0.743641757678E+03   -0.21825E-02   -0.19921E-01 13824   0.656E-01    0.130E-01
RMM:   2    -0.743642192138E+03   -0.43446E-03   -0.41340E-03 13440   0.131E-01    0.168E-01
RMM:   3    -0.743642553726E+03   -0.36159E-03   -0.97605E-04 13332   0.520E-02    0.236E-01
RMM:   4    -0.743642301132E+03    0.25259E-03   -0.21863E-04  8326   0.274E-02    0.167E-01
RMM:   5    -0.743642242589E+03    0.58543E-04   -0.85914E-05  7898   0.205E-02    0.123E-01
RMM:   6    -0.743642178323E+03    0.64266E-04   -0.43294E-05  7634   0.124E-02    0.520E-02
RMM:   7    -0.743642186525E+03   -0.82024E-05   -0.31081E-05  7476   0.101E-02    0.558E-02
RMM:   8    -0.743642176940E+03    0.95855E-05   -0.12146E-05  6674   0.759E-03
  67 F= -.74364218E+03 E0= -.74304363E+03  d E =-.663418E-02  mag=    -0.0000
       N       E                     dE             d eps       ncg     rms          rms(c)
DAV:   1    -0.743645457242E+03   -0.32707E-02   -0.85626E-02 13888   0.406E-01    0.883E-02
RMM:   2    -0.743645709702E+03   -0.25246E-03   -0.16222E-03 13418   0.825E-02    0.161E-01
RMM:   3    -0.743645773391E+03   -0.63688E-04   -0.45371E-04 11024   0.342E-02    0.160E-01
RMM:   4    -0.743645614086E+03    0.15930E-03   -0.79077E-05  7906   0.189E-02    0.578E-02
RMM:   5    -0.743645627358E+03   -0.13272E-04   -0.46096E-05  7622   0.134E-02    0.815E-02
RMM:   6    -0.743645605615E+03    0.21743E-04   -0.25595E-05  7274   0.101E-02    0.292E-02
RMM:   7    -0.743645613257E+03   -0.76411E-05   -0.15383E-05  6750   0.683E-03    0.402E-02
RMM:   8    -0.743645605454E+03    0.78031E-05   -0.77166E-06  6496   0.593E-03
  68 F= -.74364561E+03 E0= -.74304739E+03  d E =-.342851E-02  mag=    -0.0000
       N       E                     dE             d eps       ncg     rms          rms(c)
DAV:   1    -0.743647077621E+03   -0.14644E-02   -0.16327E-01 13760   0.560E-01    0.116E-01
RMM:   2    -0.743647374802E+03   -0.29718E-03   -0.30268E-03 13440   0.113E-01    0.145E-01
RMM:   3    -0.743647475539E+03   -0.10074E-03   -0.79237E-04 12838   0.458E-02    0.137E-01
RMM:   4    -0.743647539723E+03   -0.64185E-04   -0.13953E-04  8054   0.226E-02    0.182E-01
RMM:   5    -0.743647415264E+03    0.12446E-03   -0.86722E-05  7950   0.188E-02    0.125E-01
RMM:   6    -0.743647354569E+03    0.60695E-04   -0.48279E-05  7650   0.133E-02    0.502E-02
RMM:   7    -0.743647357964E+03   -0.33954E-05   -0.29247E-05  7272   0.950E-03    0.441E-02
RMM:   8    -0.743647350776E+03    0.71888E-05   -0.12077E-05  6636   0.730E-03
  69 F= -.74364735E+03 E0= -.74304955E+03  d E =-.517384E-02  mag=    -0.0000
       N       E                     dE             d eps       ncg     rms          rms(c)
DAV:   1    -0.743650253642E+03   -0.28957E-02   -0.60438E-02 13952   0.377E-01    0.590E-02
RMM:   2    -0.743650462817E+03   -0.20918E-03   -0.11825E-03 13384   0.679E-02    0.149E-01
RMM:   3    -0.743650391616E+03    0.71202E-04   -0.24846E-04  8486   0.280E-02    0.615E-02
RMM:   4    -0.743650407009E+03   -0.15394E-04   -0.57161E-05  7526   0.179E-02    0.842E-02
RMM:   5    -0.743650394462E+03    0.12548E-04   -0.20751E-05  7338   0.907E-03    0.594E-02
RMM:   6    -0.743650382905E+03    0.11557E-04   -0.11213E-05  6811   0.658E-03    0.418E-02
RMM:   7    -0.743650382746E+03    0.15958E-06   -0.62139E-06  6195   0.499E-03    0.232E-02
RMM:   8    -0.743650381908E+03    0.83723E-06   -0.39400E-06  5590   0.399E-03
  70 F= -.74365038E+03 E0= -.74305273E+03  d E =-.303113E-02  mag=    -0.0000
       N       E                     dE             d eps       ncg     rms          rms(c)
DAV:   1    -0.743651509337E+03   -0.11266E-02   -0.98665E-02 13792   0.481E-01    0.743E-02
RMM:   2    -0.743651695554E+03   -0.18622E-03   -0.19114E-03 13440   0.866E-02    0.103E-01
RMM:   3    -0.743651737001E+03   -0.41447E-04   -0.39964E-04 10690   0.351E-02    0.704E-02
RMM:   4    -0.743651902549E+03   -0.16555E-03   -0.91092E-05  7790   0.197E-02    0.186E-01
RMM:   5    -0.743651734445E+03    0.16810E-03   -0.37387E-05  7488   0.134E-02    0.851E-02
RMM:   6    -0.743651712140E+03    0.22306E-04   -0.16479E-05  7014   0.794E-03    0.340E-02
RMM:   7    -0.743651715470E+03   -0.33306E-05   -0.12513E-05  6828   0.620E-03    0.272E-02
RMM:   8    -0.743651715294E+03    0.17598E-06   -0.54141E-06  6294   0.517E-03
  71 F= -.74365172E+03 E0= -.74305423E+03  d E =-.436452E-02  mag=    -0.0000
       N       E                     dE             d eps       ncg     rms          rms(c)
DAV:   1    -0.743653706979E+03   -0.19915E-02   -0.53276E-02 13888   0.354E-01    0.533E-02
RMM:   2    -0.743653808048E+03   -0.10107E-03   -0.10316E-03 13128   0.626E-02    0.709E-02
RMM:   3    -0.743653816357E+03   -0.83085E-05   -0.20005E-04  8094   0.258E-02    0.313E-02
RMM:   4    -0.743653824908E+03   -0.85510E-05   -0.45104E-05  7432   0.163E-02    0.481E-02
RMM:   5    -0.743653847755E+03   -0.22847E-04   -0.14882E-05  7120   0.722E-03    0.754E-02
RMM:   6    -0.743653819910E+03    0.27845E-04   -0.64290E-06  6240   0.537E-03    0.276E-02
RMM:   7    -0.743653824429E+03   -0.45193E-05   -0.41381E-06  5542   0.400E-03    0.247E-02
RMM:   8    -0.743653821412E+03    0.30168E-05   -0.26725E-06  5020   0.374E-03
  72 F= -.74365382E+03 E0= -.74305643E+03  d E =-.210612E-02  mag=    -0.0000
       N       E                     dE             d eps       ncg     rms          rms(c)
DAV:   1    -0.743654577036E+03   -0.75261E-03   -0.68896E-02 13856   0.402E-01    0.601E-02
RMM:   2    -0.743654716703E+03   -0.13967E-03   -0.13334E-03 13304   0.709E-02    0.912E-02
RMM:   3    -0.743654737695E+03   -0.20993E-04   -0.26348E-04  8670   0.290E-02    0.635E-02
RMM:   4    -0.743654807741E+03   -0.70046E-04   -0.63173E-05  7552   0.180E-02    0.129E-01
RMM:   5    -0.743654729634E+03    0.78107E-04   -0.22885E-05  7338   0.987E-03    0.592E-02
RMM:   6    -0.743654719876E+03    0.97584E-05   -0.11327E-05  6754   0.667E-03    0.343E-02
RMM:   7    -0.743654722420E+03   -0.25444E-05   -0.73061E-06  6350   0.511E-03    0.216E-02
RMM:   8    -0.743654721403E+03    0.10166E-05   -0.38447E-06  5728   0.421E-03
  73 F= -.74365472E+03 E0= -.74305747E+03  d E =-.300611E-02  mag=    -0.0000
       N       E                     dE             d eps       ncg     rms          rms(c)
DAV:   1    -0.743656624850E+03   -0.19024E-02   -0.27701E-02 13824   0.253E-01    0.416E-02
RMM:   2    -0.743656711130E+03   -0.86280E-04   -0.53233E-04 10708   0.433E-02    0.877E-02
RMM:   3    -0.743656710195E+03    0.93524E-06   -0.98260E-05  7436   0.202E-02    0.827E-02
RMM:   4    -0.743656681612E+03    0.28582E-04   -0.24960E-05  7256   0.115E-02    0.247E-02
RMM:   5    -0.743656685796E+03   -0.41836E-05   -0.10082E-05  6758   0.628E-03    0.333E-02
RMM:   6    -0.743656684173E+03    0.16228E-05   -0.47522E-06  5848   0.467E-03    0.230E-02
RMM:   7    -0.743656683121E+03    0.10515E-05   -0.19897E-06  4142   0.352E-03    0.134E-02
RMM:   8    -0.743656682866E+03    0.25523E-06   -0.50696E-07  2586   0.299E-03
  74 F= -.74365668E+03 E0= -.74305954E+03  d E =-.196146E-02  mag=     0.0000
       N       E                     dE             d eps       ncg     rms          rms(c)
DAV:   1    -0.743661724634E+03   -0.50415E-02   -0.24927E-01 13632   0.759E-01    0.105E-01
RMM:   2    -0.743662245678E+03   -0.52104E-03   -0.46854E-03 13440   0.129E-01    0.192E-01
RMM:   3    -0.743662270676E+03   -0.24998E-04   -0.88911E-04 13189   0.542E-02    0.128E-01
RMM:   4    -0.743662303717E+03   -0.33041E-04   -0.19097E-04  8460   0.250E-02    0.125E-01
[...]
RMM:   8    -0.743670228248E+03    0.24787E-05   -0.91646E-06  6696   0.523E-03
  79 F= -.74367023E+03 E0= -.74307387E+03  d E =-.369268E-02  mag=     0.0000
       N       E                     dE             d eps       ncg     rms          rms(c)
DAV:   1    -0.743670334256E+03   -0.10353E-03   -0.12517E-02 13840   0.170E-01    0.250E-02
RMM:   2    -0.743670360129E+03   -0.25873E-04   -0.23350E-04  8102   0.274E-02    0.366E-02
RMM:   3    -0.743670359570E+03    0.55921E-06   -0.35111E-05  7200   0.135E-02    0.237E-02
RMM:   4    -0.743670365640E+03   -0.60699E-05   -0.89963E-06  6910   0.628E-03    0.354E-02
RMM:   5    -0.743670358614E+03    0.70257E-05   -0.26807E-06  5068   0.382E-03    0.160E-02
RMM:   6    -0.743670359250E+03   -0.63571E-06   -0.66283E-07  2786   0.282E-03    0.126E-02
RMM:   7    -0.743670359195E+03    0.54904E-07   -0.21099E-07  2132   0.259E-03    0.876E-03
RMM:   8    -0.743670358940E+03    0.25505E-06   -0.11004E-07  1608   0.267E-03
  80 F= -.74367036E+03 E0= -.74307406E+03  d E =-.382337E-02  mag=     0.0000
       N       E                     dE             d eps       ncg     rms          rms(c)
DAV:   1    -0.743673823448E+03   -0.34643E-02   -0.42787E-02 13824   0.335E-01    0.489E-02
RMM:   2    -0.743673939848E+03   -0.11640E-03   -0.91392E-04 12595   0.599E-02    0.119E-01
RMM:   3    -0.743673915185E+03    0.24663E-04   -0.15443E-04  7648   0.238E-02    0.543E-02
RMM:   4    -0.743673965710E+03   -0.50525E-04   -0.33720E-05  7284   0.138E-02    0.101E-01
RMM:   5    -0.743673914624E+03    0.51087E-04   -0.13975E-05  6946   0.734E-03    0.597E-02
RMM:   6    -0.743673921480E+03   -0.68563E-05   -0.66308E-06  6141   0.479E-03    0.577E-02
RMM:   7    -0.743673927423E+03   -0.59427E-05   -0.51840E-06  5912   0.449E-03    0.502E-02
RMM:   8    -0.743673917400E+03    0.10023E-04   -0.32393E-06  5357   0.391E-03
  81 F= -.74367392E+03 E0= -.74307761E+03  d E =-.355846E-02  mag=     0.0000
       N       E                     dE             d eps       ncg     rms          rms(c)
DAV:   1    -0.743675253431E+03   -0.13260E-02   -0.64978E-02 13824   0.414E-01    0.669E-02
RMM:   2    -0.743675389573E+03   -0.13614E-03   -0.14023E-03 13284   0.741E-02    0.132E-01
RMM:   3    -0.743675406346E+03   -0.16773E-04   -0.24462E-04  8494   0.289E-02    0.907E-02
RMM:   4    -0.743675396633E+03    0.97126E-05   -0.54673E-05  7486   0.167E-02    0.596E-02
RMM:   5    -0.743675397560E+03   -0.92613E-06   -0.14987E-05  7088   0.836E-03    0.789E-02
RMM:   6    -0.743675419385E+03   -0.21825E-04   -0.87828E-06  6470   0.528E-03    0.926E-02
RMM:   7    -0.743675407339E+03    0.12046E-04   -0.78398E-06  6372   0.521E-03    0.681E-02
RMM:   8    -0.743675400637E+03    0.67022E-05   -0.47966E-06  5944   0.448E-03
  82 F= -.74367540E+03 E0= -.74307903E+03  d E =-.504170E-02  mag=     0.0000
       N       E                     dE             d eps       ncg     rms          rms(c)
DAV:   1    -0.743676822484E+03   -0.14151E-02   -0.38111E-02 13888   0.315E-01    0.847E-02
RMM:   2    -0.743676976106E+03   -0.15362E-03   -0.89089E-04 12562   0.598E-02    0.141E-01
RMM:   3    -0.743676957002E+03    0.19104E-04   -0.16429E-04  7744   0.244E-02    0.109E-01
RMM:   4    -0.743676942642E+03    0.14360E-04   -0.52230E-05  7404   0.163E-02    0.865E-02
RMM:   5    -0.743676924427E+03    0.18215E-04   -0.26834E-05  7146   0.103E-02    0.612E-02
RMM:   6    -0.743676916225E+03    0.82017E-05   -0.13966E-05  6776   0.764E-03    0.354E-02
RMM:   7    -0.743676911965E+03    0.42606E-05   -0.56310E-06  6186   0.496E-03    0.231E-02
RMM:   8    -0.743676909822E+03    0.21427E-05   -0.13860E-06  3938   0.337E-03
  83 F= -.74367691E+03 E0= -.74308046E+03  d E =-.150919E-02  mag=     0.0000
       N       E                     dE             d eps       ncg     rms          rms(c)
DAV:   1    -0.743676924476E+03   -0.12511E-04   -0.53604E-04 13088   0.374E-02    0.102E-02
RMM:   2    -0.743676927687E+03   -0.32115E-05   -0.14643E-05  7204   0.762E-03    0.206E-02
RMM:   3    -0.743676928827E+03   -0.11395E-05   -0.24042E-06  5510   0.391E-03    0.242E-02
RMM:   4    -0.743676925683E+03    0.31440E-05   -0.24085E-09  1602   0.231E-03    0.959E-03
RMM:   5    -0.743676926232E+03   -0.54886E-06   -0.28220E-09  1510   0.235E-03    0.108E-02
RMM:   6    -0.743676926601E+03   -0.36975E-06   -0.99944E-15  1404   0.227E-03    0.111E-02
RMM:   7    -0.743676926071E+03    0.53045E-06   -0.18839E-09  1250   0.231E-03    0.711E-03
RMM:   8    -0.743676925903E+03    0.16787E-06   -0.14060E-09  1184   0.236E-03
  84 F= -.74367693E+03 E0= -.74308046E+03  d E =-.152527E-02  mag=     0.0000
       N       E                     dE             d eps       ncg     rms          rms(c)
DAV:   1    -0.743677885534E+03   -0.95946E-03   -0.25957E-02 13920   0.255E-01    0.401E-02
RMM:   2    -0.743677947084E+03   -0.61549E-04   -0.57940E-04 11396   0.479E-02    0.930E-02
RMM:   3    -0.743677942535E+03    0.45493E-05   -0.10316E-04  7290   0.200E-02    0.417E-02
RMM:   4    -0.743677992455E+03   -0.49920E-04   -0.26434E-05  7220   0.112E-02    0.101E-01
RMM:   5    -0.743677936732E+03    0.55723E-04   -0.94202E-06  6776   0.635E-03    0.349E-02
RMM:   6    -0.743677940664E+03   -0.39321E-05   -0.36779E-06  5438   0.395E-03    0.409E-02
RMM:   7    -0.743677945651E+03   -0.49868E-05   -0.32521E-06  5082   0.376E-03    0.383E-02
RMM:   8    -0.743677941330E+03    0.43208E-05   -0.18211E-06  4128   0.342E-03
  85 F= -.74367794E+03 E0= -.74308143E+03  d E =-.101543E-02  mag=     0.0000
       N       E                     dE             d eps       ncg     rms          rms(c)
DAV:   1    -0.743678015187E+03   -0.69536E-04   -0.35109E-03 13440   0.940E-02    0.265E-02
RMM:   2    -0.743678024486E+03   -0.92989E-05   -0.86715E-05  7159   0.181E-02    0.390E-02
RMM:   3    -0.743678023712E+03    0.77338E-06   -0.12612E-05  7034   0.859E-03    0.222E-02
RMM:   4    -0.743678047517E+03   -0.23804E-04   -0.58464E-06  6488   0.450E-03    0.644E-02
RMM:   5    -0.743678024187E+03    0.23330E-04   -0.43067E-06  5882   0.461E-03    0.282E-02
RMM:   6    -0.743678024320E+03   -0.13323E-06   -0.38293E-07  2696   0.279E-03    0.138E-02
RMM:   7    -0.743678023994E+03    0.32662E-06   -0.32060E-08  1524   0.255E-03    0.847E-03
RMM:   8    -0.743678024300E+03   -0.30630E-06   -0.13888E-08  1324   0.251E-03
  86 F= -.74367802E+03 E0= -.74308144E+03  d E =-.109840E-02  mag=     0.0000
       N       E                     dE             d eps       ncg     rms          rms(c)
DAV:   1    -0.743678484022E+03   -0.46003E-03   -0.77674E-03 13856   0.133E-01    0.247E-02
RMM:   2    -0.743678505762E+03   -0.21740E-04   -0.17442E-04  7570   0.252E-02    0.741E-02
RMM:   3    -0.743678500045E+03    0.57173E-05   -0.27603E-05  7086   0.125E-02    0.365E-02
RMM:   4    -0.743678514764E+03   -0.14719E-04   -0.95216E-06  6822   0.573E-03    0.622E-02
RMM:   5    -0.743678495989E+03    0.18775E-04   -0.37549E-06  5972   0.448E-03    0.230E-02
RMM:   6    -0.743678498237E+03   -0.22479E-05   -0.38532E-07  2342   0.272E-03    0.266E-02
RMM:   7    -0.743678499261E+03   -0.10242E-05   -0.62812E-07  2646   0.295E-03    0.241E-02
RMM:   8    -0.743678497725E+03    0.15367E-05   -0.56812E-07  2201   0.296E-03
  87 F= -.74367850E+03 E0= -.74308187E+03  d E =-.473425E-03  mag=     0.0000
       N       E                     dE             d eps       ncg     rms          rms(c)
DAV:   1    -0.743678609850E+03   -0.11059E-03   -0.68940E-03 13856   0.125E-01    0.258E-02
RMM:   2    -0.743678629411E+03   -0.19561E-04   -0.15798E-04  7428   0.240E-02    0.687E-02
RMM:   3    -0.743678626887E+03    0.25241E-05   -0.25419E-05  7096   0.118E-02    0.429E-02
RMM:   4    -0.743678628832E+03   -0.19449E-05   -0.97962E-06  6802   0.580E-03    0.381E-02
RMM:   5    -0.743678623533E+03    0.52995E-05   -0.30869E-06  5704   0.418E-03    0.336E-02
RMM:   6    -0.743678623341E+03    0.19186E-06   -0.21925E-07  2030   0.249E-03    0.309E-02
RMM:   7    -0.743678623390E+03   -0.49746E-07   -0.26436E-07  2144   0.275E-03    0.248E-02
RMM:   8    -0.743678623220E+03    0.17024E-06   -0.54618E-07  2222   0.294E-03
  88 F= -.74367862E+03 E0= -.74308196E+03  d E =-.598920E-03  mag=    -0.0000
       N       E                     dE             d eps       ncg     rms          rms(c)
DAV:   1    -0.743678890124E+03   -0.26673E-03   -0.89334E-03 13920   0.136E-01    0.290E-02
RMM:   2    -0.743678908422E+03   -0.18298E-04   -0.19251E-04  7726   0.274E-02    0.383E-02
RMM:   3    -0.743678905933E+03    0.24895E-05   -0.33443E-05  7084   0.135E-02    0.258E-02
RMM:   4    -0.743678911859E+03   -0.59262E-05   -0.10020E-05  6742   0.623E-03    0.367E-02
RMM:   5    -0.743678908670E+03    0.31887E-05   -0.46508E-06  6179   0.466E-03    0.296E-02
RMM:   6    -0.743678904854E+03    0.38160E-05   -0.16780E-06  3928   0.333E-03    0.116E-02
RMM:   7    -0.743678904934E+03   -0.79803E-07   -0.66763E-07  2567   0.296E-03    0.795E-03
RMM:   8    -0.743678905624E+03   -0.68987E-06   -0.64008E-07  2346   0.288E-03
  89 F= -.74367891E+03 E0= -.74308220E+03  d E =-.282404E-03  mag=     0.0000
       N       E                     dE             d eps       ncg     rms          rms(c)
DAV:   1    -0.743678913882E+03   -0.89481E-05   -0.50670E-04 12864   0.325E-02    0.667E-03
RMM:   2    -0.743678915586E+03   -0.17035E-05   -0.12867E-05  7134   0.718E-03    0.148E-02
RMM:   3    -0.743678914985E+03    0.60018E-06   -0.18957E-06  5108   0.375E-03    0.476E-03
RMM:   4    -0.743678915097E+03   -0.11210E-06   -0.58375E-09  1316   0.231E-03    0.542E-03
RMM:   5    -0.743678915324E+03   -0.22627E-06   -0.34265E-08  1374   0.225E-03    0.615E-03
RMM:   6    -0.743678915268E+03    0.55785E-07   -0.26576E-08  1092   0.226E-03    0.703E-03
RMM:   7    -0.743678915023E+03    0.24544E-06   -0.10396E-08   906   0.222E-03    0.144E-03
RMM:   8    -0.743678915140E+03   -0.11715E-06   -0.11741E-08   866   0.225E-03
  90 F= -.74367892E+03 E0= -.74308217E+03  d E =-.291919E-03  mag=     0.0000
       N       E                     dE             d eps       ncg     rms          rms(c)
DAV:   1    -0.743679153511E+03   -0.23849E-03   -0.75698E-03 13728   0.124E-01    0.237E-02
RMM:   2    -0.743679166886E+03   -0.13376E-04   -0.15904E-04  7540   0.249E-02    0.278E-02
RMM:   3    -0.743679169906E+03   -0.30193E-05   -0.25944E-05  7150   0.119E-02    0.290E-02
RMM:   4    -0.743679173122E+03   -0.32164E-05   -0.78605E-06  6700   0.555E-03    0.340E-02
RMM:   5    -0.743679167544E+03    0.55782E-05   -0.41092E-06  6038   0.443E-03    0.228E-02
RMM:   6    -0.743679166530E+03    0.10144E-05   -0.10814E-06  3296   0.323E-03    0.603E-03
RMM:   7    -0.743679166875E+03   -0.34515E-06   -0.51756E-07  2324   0.289E-03    0.639E-03
RMM:   8    -0.743679166760E+03    0.11469E-06   -0.24429E-07  1900   0.277E-03
  91 F= -.74367917E+03 E0= -.74308234E+03  d E =-.251620E-03  mag=     0.0000
       N       E                     dE             d eps       ncg     rms          rms(c)
DAV:   1    -0.743679176229E+03   -0.93547E-05   -0.43564E-04 12944   0.299E-02    0.603E-03
RMM:   2    -0.743679177332E+03   -0.11026E-05   -0.10386E-05  7104   0.646E-03    0.136E-02
RMM:   3    -0.743679176919E+03    0.41314E-06   -0.10667E-06  3787   0.333E-03    0.466E-03
RMM:   4    -0.743679177399E+03   -0.48015E-06   -0.27060E-09  1223   0.246E-03    0.923E-03
RMM:   5    -0.743679177009E+03    0.38995E-06   -0.87081E-10  1072   0.244E-03    0.500E-03
RMM:   6    -0.743679177174E+03   -0.16532E-06   -0.14485E-08  1109   0.245E-03    0.582E-03
RMM:   7    -0.743679177061E+03    0.11316E-06   -0.18302E-08   964   0.243E-03    0.241E-03
RMM:   8    -0.743679177101E+03   -0.39930E-07   -0.42291E-10   824   0.243E-03
  92 F= -.74367918E+03 E0= -.74308232E+03  d E =-.261961E-03  mag=     0.0000
       N       E                     dE             d eps       ncg     rms          rms(c)
DAV:   1    -0.743679268561E+03   -0.91500E-04   -0.16676E-03 13024   0.631E-02    0.955E-03
RMM:   2    -0.743679271993E+03   -0.34316E-05   -0.37880E-05  7090   0.120E-02    0.167E-02
RMM:   3    -0.743679271981E+03    0.11205E-07   -0.57655E-06  7046   0.586E-03    0.924E-03
RMM:   4    -0.743679274999E+03   -0.30174E-05   -0.20377E-07  1981   0.264E-03    0.227E-02
RMM:   5    -0.743679271392E+03    0.36063E-05   -0.40812E-08  1675   0.253E-03    0.796E-03
RMM:   6    -0.743679271922E+03   -0.52972E-06   -0.13603E-08  1215   0.256E-03    0.514E-03
RMM:   7    -0.743679271900E+03    0.22417E-07   -0.62801E-08  1132   0.264E-03    0.424E-03
RMM:   8    -0.743679271911E+03   -0.10805E-07   -0.13898E-07  1064   0.274E-03
  93 F= -.74367927E+03 E0= -.74308238E+03  d E =-.948095E-04  mag=     0.0000
       N       E                     dE             d eps       ncg     rms          rms(c)
DAV:   1    -0.743679293179E+03   -0.21279E-04   -0.21049E-03 13008   0.709E-02    0.117E-02
RMM:   2    -0.743679297480E+03   -0.43013E-05   -0.50046E-05  7080   0.142E-02    0.167E-02
RMM:   3    -0.743679297707E+03   -0.22711E-06   -0.76800E-06  7018   0.667E-03    0.894E-03
RMM:   4    -0.743679303800E+03   -0.60928E-05   -0.10066E-06  3195   0.316E-03    0.324E-02
RMM:   5    -0.743679297146E+03    0.66534E-05   -0.13055E-07  2062   0.281E-03    0.112E-02
RMM:   6    -0.743679297773E+03   -0.62684E-06   -0.24138E-08  1293   0.272E-03    0.660E-03
RMM:   7    -0.743679297822E+03   -0.48836E-07   -0.51766E-08  1232   0.281E-03    0.500E-03
RMM:   8    -0.743679297848E+03   -0.25655E-07   -0.12402E-07  1233   0.285E-03
  94 F= -.74367930E+03 E0= -.74308236E+03  d E =-.120747E-03  mag=     0.0000
       N       E                     dE             d eps       ncg     rms          rms(c)
DAV:   1    -0.743679299783E+03   -0.19614E-05   -0.11162E-04  7840   0.170E-02    0.413E-03
RMM:   2    -0.743679301016E+03   -0.12323E-05   -0.63994E-06  6662   0.566E-03    0.104E-02
RMM:   3    -0.743679300515E+03    0.50051E-06   -0.21363E-07  1908   0.266E-03    0.865E-03
RMM:   4    -0.743679300278E+03    0.23750E-06   -0.42312E-08  1004   0.250E-03    0.261E-03
RMM:   5    -0.743679300356E+03   -0.78282E-07    0.00000E+00   816   0.242E-03    0.306E-03
RMM:   6    -0.743679300372E+03   -0.15541E-07    0.00000E+00   714   0.244E-03    0.214E-03
RMM:   7    -0.743679300407E+03   -0.35892E-07   -0.47137E-09   808   0.247E-03    0.134E-03
RMM:   8    -0.743679300427E+03   -0.19856E-07   -0.40657E-09   764   0.248E-03
  95 F= -.74367930E+03 E0= -.74308237E+03  d E =-.123326E-03  mag=     0.0000
       N       E                     dE             d eps       ncg     rms          rms(c)
DAV:   1    -0.743679341267E+03   -0.40860E-04   -0.14130E-03 12832   0.586E-02    0.983E-03
RMM:   2    -0.743679345235E+03   -0.39671E-05   -0.33284E-05  7140   0.116E-02    0.283E-02
RMM:   3    -0.743679343724E+03    0.15111E-05   -0.51681E-06  7018   0.555E-03    0.125E-02
RMM:   4    -0.743679346594E+03   -0.28703E-05   -0.54704E-08  1766   0.258E-03    0.232E-02
RMM:   5    -0.743679343241E+03    0.33524E-05   -0.22727E-08  1614   0.247E-03    0.901E-03
RMM:   6    -0.743679343959E+03   -0.71785E-06   -0.85325E-09  1070   0.252E-03    0.748E-03
RMM:   7    -0.743679343952E+03    0.72032E-08   -0.35107E-08   992   0.268E-03    0.561E-03
RMM:   8    -0.743679343895E+03    0.56869E-07   -0.72887E-08   932   0.273E-03
  96 F= -.74367934E+03 E0= -.74308239E+03  d E =-.434680E-04  mag=     0.0000
       N       E                     dE             d eps       ncg     rms          rms(c)
DAV:   1    -0.743679349233E+03   -0.52808E-05   -0.53353E-04 13120   0.358E-02    0.735E-03
RMM:   2    -0.743679350445E+03   -0.12121E-05   -0.14230E-05  7004   0.770E-03    0.161E-02
RMM:   3    -0.743679350394E+03    0.51150E-07   -0.15372E-06  4416   0.358E-03    0.122E-02
RMM:   4    -0.743679350151E+03    0.24282E-06   -0.12716E-07  1376   0.255E-03    0.708E-03
RMM:   5    -0.743679350337E+03   -0.18626E-06   -0.10525E-09   955   0.239E-03    0.101E-02
RMM:   6    -0.743679350446E+03   -0.10822E-06   -0.84582E-10   828   0.239E-03    0.924E-03
RMM:   7    -0.743679350333E+03    0.11234E-06    0.00000E+00   885   0.243E-03    0.778E-03
RMM:   8    -0.743679350360E+03   -0.26528E-07   -0.79737E-09   800   0.245E-03
  97 F= -.74367935E+03 E0= -.74308238E+03  d E =-.499325E-04  mag=     0.0000
       N       E                     dE             d eps       ncg     rms          rms(c)
DAV:   1    -0.743679385863E+03   -0.35530E-04   -0.72972E-04 13008   0.419E-02    0.103E-02
RMM:   2    -0.743679387769E+03   -0.19058E-05   -0.17683E-05  7156   0.822E-03    0.191E-02
RMM:   3    -0.743679387466E+03    0.30319E-06   -0.23940E-06  5703   0.402E-03    0.146E-02
RMM:   4    -0.743679387034E+03    0.43198E-06   -0.23542E-07  2017   0.251E-03    0.993E-03
RMM:   5    -0.743679387491E+03   -0.45704E-06   -0.17985E-08  1304   0.227E-03    0.110E-02
RMM:   6    -0.743679387344E+03    0.14650E-06   -0.16428E-08   954   0.229E-03    0.101E-02
RMM:   7    -0.743679387390E+03   -0.46057E-07   -0.46199E-08  1088   0.231E-03    0.856E-03
RMM:   8    -0.743679387287E+03    0.10316E-06   -0.34520E-08   909   0.231E-03
  98 F= -.74367939E+03 E0= -.74308241E+03  d E =-.369273E-04  mag=     0.0000
       N       E                     dE             d eps       ncg     rms          rms(c)
DAV:   1    -0.743679384940E+03    0.24500E-05   -0.26678E-03 13216   0.800E-02    0.140E-02
RMM:   2    -0.743679391685E+03   -0.67444E-05   -0.62325E-05  7218   0.158E-02    0.339E-02
RMM:   3    -0.743679390874E+03    0.81056E-06   -0.10110E-05  7150   0.756E-03    0.222E-02
RMM:   4    -0.743679391586E+03   -0.71231E-06   -0.24425E-06  5146   0.369E-03    0.239E-02
RMM:   5    -0.743679390327E+03    0.12594E-05   -0.22618E-07  2348   0.287E-03    0.177E-02
RMM:   6    -0.743679390469E+03   -0.14246E-06   -0.95163E-08  1642   0.276E-03    0.173E-02
RMM:   7    -0.743679390851E+03   -0.38153E-06   -0.87633E-08  1603   0.282E-03    0.149E-02
RMM:   8    -0.743679390745E+03    0.10635E-06   -0.27826E-07  1527   0.293E-03
  99 F= -.74367939E+03 E0= -.74308240E+03  d E =-.403848E-04  mag=     0.0000
       N       E                     dE             d eps       ncg     rms          rms(c)
DAV:   1    -0.743679400135E+03   -0.92842E-05   -0.56214E-04 13120   0.369E-02    0.118E-02
RMM:   2    -0.743679405360E+03   -0.52246E-05   -0.12990E-05  7146   0.716E-03    0.308E-02
RMM:   3    -0.743679403545E+03    0.18151E-05   -0.23670E-06  5423   0.396E-03    0.221E-02
RMM:   4    -0.743679401771E+03    0.17738E-05   -0.20799E-07  1775   0.261E-03    0.155E-02
RMM:   5    -0.743679400875E+03    0.89534E-06   -0.33835E-09   950   0.227E-03    0.493E-03
RMM:   6    -0.743679401014E+03   -0.13816E-06   -0.13884E-09   812   0.228E-03    0.343E-03
RMM:   7    -0.743679401161E+03   -0.14703E-06   -0.87619E-08  1089   0.237E-03    0.335E-03
RMM:   8    -0.743679401119E+03    0.41167E-07   -0.17478E-08   875   0.237E-03
 100 F= -.74367940E+03 E0= -.74308241E+03  d E =-.507597E-04  mag=     0.0000
       N       E                     dE             d eps       ncg     rms          rms(c)
DAV:   1    -0.743679427201E+03   -0.26040E-04   -0.33352E-04 12992   0.292E-02    0.423E-03
RMM:   2    -0.743679427978E+03   -0.77701E-06   -0.79446E-06  7004   0.558E-03    0.116E-02
RMM:   3    -0.743679427390E+03    0.58785E-06   -0.28608E-07  1616   0.261E-03    0.701E-03
RMM:   4    -0.743679427856E+03   -0.46657E-06   -0.16248E-08   828   0.233E-03    0.115E-02
RMM:   5    -0.743679427954E+03   -0.97309E-07   -0.74448E-18   852   0.232E-03    0.121E-02
RMM:   6    -0.743679427743E+03    0.21093E-06   -0.78063E-09   906   0.240E-03    0.943E-03
RMM:   7    -0.743679427520E+03    0.22236E-06   -0.34260E-08  1140   0.253E-03    0.371E-03
RMM:   8    -0.743679427603E+03   -0.82218E-07   -0.14204E-08   861   0.254E-03
 101 F= -.74367943E+03 E0= -.74308244E+03  d E =-.264832E-04  mag=     0.0000
