 ----------------------------------------------------
    OOO  PPPP  EEEEE N   N M   M PPPP
   O   O P   P E     NN  N MM MM P   P
   O   O PPPP  EEEEE N N N M M M PPPP   -- VERSION
   O   O P     E     N  NN M   M P
    OOO  P     EEEEE N   N M   M P
 ----------------------------------------------------
 running   16 mpi-ranks, with    4 threads/rank
 distrk:  each k-point on   16 cores,    1 groups
 distr:  one band on    1 cores,   16 groups
 vasp.6.2.1 16May21 (build Jul 28 2021 23:24:15) complex                        
  
 POSCAR found type information on POSCAR H IrO 
 POSCAR found :  3 types and     112 ions
 scaLAPACK will be used
 -----------------------------------------------------------------------------
|                                                                             |
|           W    W    AA    RRRRR   N    N  II  N    N   GGGG   !!!           |
|           W    W   A  A   R    R  NN   N  II  NN   N  G    G  !!!           |
|           W    W  A    A  R    R  N N  N  II  N N  N  G       !!!           |
|           W WW W  AAAAAA  RRRRR   N  N N  II  N  N N  G  GGG   !            |
|           WW  WW  A    A  R   R   N   NN  II  N   NN  G    G                |
|           W    W  A    A  R    R  N    N  II  N    N   GGGG   !!!           |
|                                                                             |
|     The real-space projection scheme for the treatment of the non-local     |
|     pseudopotentials has been switched on but on file POTCAR I have not     |
|     found any entries, signalling me that you have never performed a        |
|     real-space optimization of all non-local projectors! BE WARNED that     |
|     a calculation using the real-space projection scheme together with      |
|     non-local projectors which were not real-space optimized (according     |
|     to the plane-wave cutoff used in this calculation) might give more      |
|     or less inaccurate results. I hope you know what you are doing.         |
|                                                                             |
 -----------------------------------------------------------------------------

 LDA part: xc-table for Pade appr. of Perdew
 POSCAR, INCAR and KPOINTS ok, starting setup
 FFT: planning ...
 WAVECAR not read
 WARNING: random wavefunctions but no delay for mixing, default for NELMDL
 entering main loop
       N       E                     dE             d eps       ncg     rms          rms(c)
DAV:   1     0.780858878336E+04    0.78086E+04   -0.31243E+05 13664   0.127E+03
DAV:   2     0.584450567403E+03   -0.72241E+04   -0.65351E+04 14512   0.374E+02
DAV:   3    -0.804977967197E+03   -0.13894E+04   -0.13340E+04 16704   0.165E+02
DAV:   4    -0.881942383979E+03   -0.76964E+02   -0.75087E+02 18400   0.434E+01
DAV:   5    -0.883710932671E+03   -0.17685E+01   -0.17457E+01 17376   0.614E+00    0.191E+02
RMM:   6    -0.747694925754E+03    0.13602E+03   -0.67084E+02 13490   0.408E+01    0.195E+02
RMM:   7    -0.106973181830E+04   -0.32204E+03   -0.22439E+02 14242   0.230E+01    0.352E+02
RMM:   8    -0.885550850352E+03    0.18418E+03   -0.53879E+01 16207   0.870E+00    0.279E+02
RMM:   9    -0.101884112163E+04   -0.13329E+03   -0.17923E+02 17210   0.182E+01    0.302E+02
RMM:  10    -0.763748236241E+03    0.25509E+03   -0.10381E+02 15629   0.143E+01    0.117E+02
RMM:  11    -0.648848703214E+03    0.11490E+03   -0.68725E+01 14403   0.141E+01    0.600E+01
RMM:  12    -0.668149467611E+03   -0.19301E+02   -0.25220E+01 13539   0.811E+00    0.701E+01
RMM:  13    -0.658436991051E+03    0.97125E+01   -0.18355E+01 13563   0.752E+00    0.279E+01
RMM:  14    -0.664331140099E+03   -0.58941E+01   -0.70911E+00 14461   0.377E+00    0.300E+01
RMM:  15    -0.670310474386E+03   -0.59793E+01   -0.34831E+00 13591   0.301E+00    0.216E+01
RMM:  16    -0.682535720317E+03   -0.12225E+02   -0.94654E+00 15429   0.411E+00    0.178E+01
RMM:  17    -0.699402221636E+03   -0.16867E+02   -0.99360E+00 15483   0.424E+00    0.158E+01
RMM:  18    -0.705641106518E+03   -0.62389E+01   -0.35356E+00 13996   0.276E+00    0.144E+01
RMM:  19    -0.708393075418E+03   -0.27520E+01   -0.20280E+00 14027   0.201E+00    0.104E+01
RMM:  20    -0.713270228752E+03   -0.48772E+01   -0.16586E+00 14448   0.182E+00    0.969E+00
RMM:  21    -0.716819127093E+03   -0.35489E+01   -0.10813E+00 14158   0.148E+00    0.911E+00
RMM:  22    -0.722124455232E+03   -0.53053E+01   -0.17242E+00 15358   0.163E+00    0.778E+00
RMM:  23    -0.724927490223E+03   -0.28030E+01   -0.10305E+00 14755   0.133E+00    0.628E+00
RMM:  24    -0.728124425773E+03   -0.31969E+01   -0.11533E+00 15318   0.129E+00    0.789E+00
RMM:  25    -0.728502793570E+03   -0.37837E+00   -0.37751E-01 14157   0.813E-01    0.646E+00
RMM:  26    -0.729962573678E+03   -0.14598E+01   -0.25698E-01 14169   0.628E-01    0.645E+00
RMM:  27    -0.730650269088E+03   -0.68770E+00   -0.13123E-01 13883   0.465E-01    0.619E+00
RMM:  28    -0.732147440454E+03   -0.14972E+01   -0.21736E-01 15148   0.549E-01    0.437E+00
RMM:  29    -0.732701644845E+03   -0.55420E+00   -0.47278E-02 13720   0.313E-01    0.389E+00
RMM:  30    -0.733199382816E+03   -0.49774E+00   -0.58820E-02 14359   0.308E-01    0.325E+00
RMM:  31    -0.733863148114E+03   -0.66377E+00   -0.61035E-02 15194   0.304E-01    0.228E+00
RMM:  32    -0.734054510925E+03   -0.19136E+00   -0.59692E-02 15453   0.298E-01    0.178E+00
RMM:  33    -0.734307303520E+03   -0.25279E+00   -0.63392E-02 15795   0.287E-01    0.159E+00
RMM:  34    -0.734444473308E+03   -0.13717E+00   -0.33791E-02 14886   0.220E-01    0.172E+00
RMM:  35    -0.734628270827E+03   -0.18380E+00   -0.15113E-02 14046   0.162E-01    0.191E+00
RMM:  36    -0.734690479384E+03   -0.62209E-01   -0.66235E-03 14280   0.112E-01    0.174E+00
RMM:  37    -0.734752414146E+03   -0.61935E-01   -0.44967E-03 14013   0.901E-02    0.155E+00
RMM:  38    -0.734798816486E+03   -0.46402E-01   -0.21304E-03 13632   0.604E-02    0.133E+00
RMM:  39    -0.734845813870E+03   -0.46997E-01   -0.11168E-03 12682   0.488E-02    0.109E+00
RMM:  40    -0.734940420291E+03   -0.94606E-01   -0.22449E-03 14992   0.610E-02    0.719E-01
RMM:  41    -0.735001688107E+03   -0.61268E-01   -0.12818E-03 13529   0.470E-02    0.484E-01
RMM:  42    -0.735052909896E+03   -0.51222E-01   -0.16141E-03 13857   0.470E-02    0.306E-01
RMM:  43    -0.735107469513E+03   -0.54560E-01   -0.22910E-03 14589   0.520E-02    0.202E-01
RMM:  44    -0.735143206281E+03   -0.35737E-01   -0.95727E-04 12950   0.367E-02    0.220E-01
RMM:  45    -0.735166394260E+03   -0.23188E-01   -0.45842E-04 11254   0.256E-02    0.218E-01
RMM:  46    -0.735190232510E+03   -0.23838E-01   -0.37839E-04 10167   0.220E-02    0.205E-01
RMM:  47    -0.735210225539E+03   -0.19993E-01   -0.24782E-04  9373   0.182E-02    0.187E-01
RMM:  48    -0.735224685438E+03   -0.14460E-01   -0.15787E-04  8577   0.146E-02    0.166E-01
RMM:  49    -0.735233015836E+03   -0.83304E-02   -0.10133E-04  8071   0.122E-02    0.143E-01
RMM:  50    -0.735237237261E+03   -0.42214E-02   -0.64030E-05  7859   0.103E-02    0.118E-01
RMM:  51    -0.735241034849E+03   -0.37976E-02   -0.15092E-04  8568   0.160E-02    0.426E-02
RMM:  52    -0.735241927972E+03   -0.89312E-03   -0.52467E-05  8026   0.109E-02    0.309E-02
RMM:  53    -0.735242428324E+03   -0.50035E-03   -0.36399E-05  7323   0.807E-03    0.228E-02
RMM:  54    -0.735242719210E+03   -0.29089E-03   -0.19707E-05  6437   0.657E-03    0.175E-02
RMM:  55    -0.735243152066E+03   -0.43286E-03   -0.15369E-05  6057   0.527E-03    0.135E-02
RMM:  56    -0.735243427163E+03   -0.27510E-03   -0.11490E-05  5786   0.486E-03    0.990E-03
RMM:  57    -0.735243742097E+03   -0.31493E-03   -0.77184E-06  5283   0.429E-03    0.924E-03
RMM:  58    -0.735243811018E+03   -0.68921E-04   -0.45699E-06  4614   0.380E-03
   1 F= -.73524381E+03 E0= -.73461417E+03  d E =-.735244E+03  mag=     0.1298
 curvature:   0.00 expect dE= 0.000E+00 dE for cont linesearch  0.000E+00
 trial: gam= 0.00000 g(F)=  0.182E+02 g(S)=  0.000E+00 ort = 0.000E+00 (trialstep = 0.100E+01)
 search vector abs. value=  0.182E+02
 bond charge predicted
       N       E                     dE             d eps       ncg     rms          rms(c)
DAV:   1    -0.702418521962E+03    0.32825E+02   -0.33558E+03 13504   0.880E+01    0.192E+01
RMM:   2    -0.743300628605E+03   -0.40882E+02   -0.14251E+02 13440   0.174E+01    0.740E+01
RMM:   3    -0.714962436293E+03    0.28338E+02   -0.25134E+01 13849   0.744E+00    0.206E+01
RMM:   4    -0.714977373365E+03   -0.14937E-01   -0.47340E+00 13758   0.387E+00    0.238E+01
RMM:   5    -0.712879066850E+03    0.20983E+01   -0.17590E+00 13444   0.253E+00    0.171E+01
RMM:   6    -0.711951020856E+03    0.92805E+00   -0.10188E+00 13623   0.145E+00    0.108E+01
RMM:   7    -0.711411029909E+03    0.53999E+00   -0.88421E-01 13991   0.139E+00    0.567E+00
RMM:   8    -0.711394968096E+03    0.16062E-01   -0.50461E-01 13854   0.114E+00    0.468E+00
RMM:   9    -0.711291606747E+03    0.10336E+00   -0.14313E-01 13455   0.751E-01    0.274E+00
RMM:  10    -0.711275199263E+03    0.16407E-01   -0.60053E-02 14242   0.376E-01    0.143E+00
RMM:  11    -0.711267862477E+03    0.73368E-02   -0.27553E-02 13471   0.244E-01    0.122E+00
RMM:  12    -0.711266731720E+03    0.11308E-02   -0.72738E-03 13625   0.140E-01    0.986E-01
RMM:  13    -0.711262761418E+03    0.39703E-02   -0.54313E-03 13727   0.109E-01    0.466E-01
RMM:  14    -0.711262686732E+03    0.74686E-04   -0.20686E-03 14409   0.588E-02    0.259E-01
RMM:  15    -0.711263108110E+03   -0.42138E-03   -0.40827E-04 10062   0.276E-02    0.204E-01
RMM:  16    -0.711263778243E+03   -0.67013E-03   -0.15601E-04  8489   0.209E-02    0.159E-01
RMM:  17    -0.711264949070E+03   -0.11708E-02   -0.33418E-04  9283   0.244E-02    0.102E-01
RMM:  18    -0.711265206370E+03   -0.25730E-03   -0.11515E-04  8356   0.164E-02    0.863E-02
RMM:  19    -0.711265220147E+03   -0.13778E-04   -0.39785E-05  7731   0.111E-02
   2 F= -.71126522E+03 E0= -.71062327E+03  d E =0.239786E+02  mag=     0.0867
 trial-energy change:   23.978591  1 .order   43.701618  -18.180166  105.583402
 step:   0.1469(harm=  0.1469)  dis= 0.02746  next Energy=  -736.579093 (dE=-0.134E+01)
 bond charge predicted
       N       E                     dE             d eps       ncg     rms          rms(c)
DAV:   1    -0.736958607764E+03   -0.25693E+02   -0.24950E+03 13744   0.749E+01    0.344E+01
RMM:   2    -0.913894547953E+03   -0.17694E+03   -0.28476E+02 14018   0.191E+01    0.235E+02
RMM:   3    -0.817070613813E+03    0.96824E+02   -0.45792E+01 14698   0.972E+00    0.792E+01
RMM:   4    -0.761007638033E+03    0.56063E+02   -0.18773E+01 13497   0.601E+00    0.368E+01
RMM:   5    -0.748479035187E+03    0.12529E+02   -0.96592E+00 13626   0.520E+00    0.306E+01
RMM:   6    -0.743498242681E+03    0.49808E+01   -0.67738E+00 14486   0.350E+00    0.234E+01
RMM:   7    -0.738802998403E+03    0.46952E+01   -0.47781E+00 14853   0.254E+00    0.130E+01
RMM:   8    -0.737773875891E+03    0.10291E+01   -0.19318E+00 16057   0.169E+00    0.102E+01
RMM:   9    -0.737477055144E+03    0.29682E+00   -0.77886E-01 14209   0.110E+00    0.913E+00
RMM:  10    -0.737597775985E+03   -0.12072E+00   -0.44580E-01 13965   0.104E+00    0.785E+00
RMM:  11    -0.737310431985E+03    0.28734E+00   -0.19359E-01 13570   0.706E-01    0.552E+00
RMM:  12    -0.737350409222E+03   -0.39977E-01   -0.82604E-02 13574   0.456E-01    0.617E+00
RMM:  13    -0.737295251326E+03    0.55158E-01   -0.24326E-02 13855   0.294E-01    0.455E+00
RMM:  14    -0.737293297028E+03    0.19543E-02   -0.96286E-03 15513   0.131E-01    0.465E+00
RMM:  15    -0.737287935149E+03    0.53619E-02   -0.46020E-03 13456   0.901E-02    0.416E+00
RMM:  16    -0.737286360770E+03    0.15744E-02   -0.25509E-03 13742   0.690E-02    0.398E+00
RMM:  17    -0.737285394431E+03    0.96634E-03   -0.83732E-04 12387   0.394E-02    0.384E+00
RMM:  18    -0.737284375461E+03    0.10190E-02   -0.23662E-04  9042   0.256E-02    0.362E+00
RMM:  19    -0.737282262528E+03    0.21129E-02   -0.30324E-04  9326   0.261E-02    0.338E+00
RMM:  20    -0.737280982719E+03    0.12798E-02   -0.16316E-04  8462   0.209E-02    0.319E+00
RMM:  21    -0.737279981449E+03    0.10013E-02   -0.11809E-04  8153   0.185E-02    0.301E+00
RMM:  22    -0.737279394269E+03    0.58718E-03   -0.85020E-05  8122   0.148E-02    0.288E+00
RMM:  23    -0.737278558590E+03    0.83568E-03   -0.12387E-04  8121   0.170E-02    0.267E+00
RMM:  24    -0.737277339329E+03    0.12193E-02   -0.36606E-04  9786   0.261E-02    0.222E+00
RMM:  25    -0.737276380601E+03    0.95873E-03   -0.51665E-04 11659   0.315E-02    0.170E+00
RMM:  26    -0.737276011736E+03    0.36886E-03   -0.18152E-04  8424   0.223E-02    0.142E+00
RMM:  27    -0.737275870978E+03    0.14076E-03   -0.97395E-05  8060   0.160E-02    0.127E+00
RMM:  28    -0.737275550739E+03    0.32024E-03   -0.24662E-04  8707   0.235E-02    0.926E-01
RMM:  29    -0.737275408519E+03    0.14222E-03   -0.49097E-04 11431   0.279E-02    0.446E-01
RMM:  30    -0.737275486730E+03   -0.78212E-04   -0.12451E-04  8235   0.185E-02
   3 F= -.73727549E+03 E0= -.73664678E+03  d E =-.203168E+01  mag=     0.0274
 curvature:  -0.07 expect dE=-0.400E+00 dE for cont linesearch -0.220E+00
 ZBRENT: interpolating
 opt :   0.2026  next Energy=  -737.480903 (dE=-0.224E+01)
 bond charge predicted
       N       E                     dE             d eps       ncg     rms          rms(c)
DAV:   1    -0.737626199817E+03   -0.35079E+00   -0.10501E+01 13904   0.496E+00    0.152E+00
RMM:   2    -0.738474404809E+03   -0.84820E+00   -0.40212E-01 13449   0.101E+00    0.120E+01
RMM:   3    -0.737658890589E+03    0.81551E+00   -0.67102E-02 13440   0.543E-01    0.210E+00
RMM:   4    -0.737657303252E+03    0.15873E-02   -0.27294E-02 13452   0.290E-01    0.241E+00
RMM:   5    -0.737651765041E+03    0.55382E-02   -0.10716E-02 13890   0.173E-01    0.214E+00
RMM:   6    -0.737650770777E+03    0.99426E-03   -0.29350E-03 13434   0.921E-02    0.195E+00
RMM:   7    -0.737633709653E+03    0.17061E-01   -0.68378E-03 14913   0.107E-01    0.746E-01
RMM:   8    -0.737631472965E+03    0.22367E-02   -0.22488E-03 13052   0.797E-02    0.345E-01
RMM:   9    -0.737631387427E+03    0.85538E-04   -0.74537E-04 12236   0.422E-02
   4 F= -.73763139E+03 E0= -.73700151E+03  d E =-.238758E+01  mag=     0.0261
 curvature:  -0.07 expect dE=-0.351E+00 dE for cont linesearch -0.187E+00
 ZBRENT: bisectioning
 opt :   0.6013  next Energy=  -739.962147 (dE=-0.472E+01)
 bond charge predicted
       N       E                     dE             d eps       ncg     rms          rms(c)
DAV:   1    -0.734704601680E+03    0.29269E+01   -0.54579E+02 13488   0.360E+01    0.939E+00
RMM:   2    -0.759823040276E+03   -0.25118E+02   -0.17100E+01 13440   0.637E+00    0.629E+01
RMM:   3    -0.736248512311E+03    0.23575E+02   -0.30221E+00 13448   0.326E+00    0.128E+01
RMM:   4    -0.735641855036E+03    0.60666E+00   -0.12013E+00 13547   0.195E+00    0.109E+01
RMM:   5    -0.735289027660E+03    0.35283E+00   -0.27467E-01 13613   0.104E+00    0.784E+00
RMM:   6    -0.735143223522E+03    0.14580E+00   -0.11907E-01 14035   0.545E-01    0.554E+00
RMM:   7    -0.735064462606E+03    0.78761E-01   -0.26723E-01 15529   0.744E-01    0.372E+00
RMM:   8    -0.734981475634E+03    0.82987E-01   -0.92147E-02 13596   0.501E-01    0.127E+00
RMM:   9    -0.734982161031E+03   -0.68540E-03   -0.27832E-02 13849   0.282E-01    0.113E+00
RMM:  10    -0.734984642238E+03   -0.24812E-02   -0.65510E-03 13460   0.151E-01    0.117E+00
RMM:  11    -0.734982447446E+03    0.21948E-02   -0.47490E-03 13426   0.105E-01    0.107E+00
RMM:  12    -0.734979072773E+03    0.33747E-02   -0.17757E-03 12782   0.746E-02    0.688E-01
RMM:  13    -0.734976904727E+03    0.21680E-02   -0.17047E-03 13028   0.527E-02    0.351E-01
RMM:  14    -0.734976764461E+03    0.14027E-03   -0.49910E-04 10709   0.315E-02    0.258E-01
RMM:  15    -0.734976759040E+03    0.54209E-05   -0.11274E-04  8241   0.187E-02
   5 F= -.73497676E+03 E0= -.73434306E+03  d E =0.267052E+00  mag=     0.0183
 curvature:  -0.85 expect dE=-0.565E+02 dE for cont linesearch -0.277E+02
 ZBRENT: interpolating
 opt :   0.2922  next Energy=  -737.946902 (dE=-0.270E+01)
 bond charge predicted
       N       E                     dE             d eps       ncg     rms          rms(c)
DAV:   1    -0.738216851232E+03   -0.32401E+01   -0.33113E+02 13536   0.286E+01    0.110E+01
RMM:   2    -0.764167401530E+03   -0.25951E+02   -0.21609E+01 13458   0.635E+00    0.497E+01
RMM:   3    -0.743369903749E+03    0.20797E+02   -0.30621E+00 13466   0.361E+00    0.181E+01
RMM:   4    -0.741072734372E+03    0.22972E+01   -0.14045E+00 13440   0.201E+00    0.174E+01
RMM:   5    -0.738462752652E+03    0.26100E+01   -0.10334E+00 13756   0.157E+00    0.773E+00
RMM:   6    -0.738143039200E+03    0.31971E+00   -0.77204E-01 14469   0.110E+00    0.546E+00
RMM:   7    -0.738114856662E+03    0.28183E-01   -0.29826E-01 16125   0.687E-01    0.376E+00
RMM:   8    -0.738086104292E+03    0.28752E-01   -0.10895E-01 13509   0.464E-01    0.245E+00
RMM:   9    -0.738133477898E+03   -0.47374E-01   -0.10061E-01 14120   0.452E-01    0.334E+00
RMM:  10    -0.738091184720E+03    0.42293E-01   -0.20900E-02 13440   0.282E-01    0.257E+00
RMM:  11    -0.738053004600E+03    0.38180E-01   -0.15006E-02 13917   0.170E-01    0.664E-01
RMM:  12    -0.738054584455E+03   -0.15799E-02   -0.56774E-03 14564   0.984E-02    0.776E-01
RMM:  13    -0.738056894338E+03   -0.23099E-02   -0.26815E-03 14529   0.689E-02    0.795E-01
RMM:  14    -0.738053574540E+03    0.33198E-02   -0.97362E-04 12515   0.448E-02    0.452E-01
RMM:  15    -0.738052950966E+03    0.62357E-03   -0.56475E-04 11407   0.328E-02    0.300E-01
RMM:  16    -0.738052818028E+03    0.13294E-03   -0.23217E-04  9009   0.230E-02    0.234E-01
RMM:  17    -0.738052766269E+03    0.51759E-04   -0.81298E-05  7956   0.171E-02
   6 F= -.73805277E+03 E0= -.73742340E+03  d E =-.280896E+01  mag=     0.0138
 curvature:  -0.01 expect dE=-0.497E-01 dE for cont linesearch -0.132E-02
 ZBRENT: interpolating
 opt :   0.3164  next Energy=  -738.072921 (dE=-0.283E+01)
 bond charge predicted
       N       E                     dE             d eps       ncg     rms          rms(c)
DAV:   1    -0.738077061521E+03   -0.24243E-01   -0.20035E+00 14016   0.218E+00    0.675E-01
RMM:   2    -0.738209601802E+03   -0.13254E+00   -0.79931E-02 13442   0.452E-01    0.455E+00
RMM:   3    -0.738084510944E+03    0.12509E+00   -0.12732E-02 13440   0.227E-01    0.105E+00
RMM:   4    -0.738080547031E+03    0.39639E-02   -0.60022E-03 13342   0.134E-01    0.800E-01
RMM:   5    -0.738079527062E+03    0.10200E-02   -0.23222E-03 13627   0.783E-02    0.651E-01
RMM:   6    -0.738079370506E+03    0.15656E-03   -0.64287E-04 12007   0.418E-02    0.576E-01
RMM:   7    -0.738078125094E+03    0.12454E-02   -0.86799E-04 12697   0.422E-02    0.261E-01
RMM:   8    -0.738077798277E+03    0.32682E-03   -0.34847E-04 10538   0.335E-02    0.714E-02
RMM:   9    -0.738077817055E+03   -0.18778E-04   -0.10179E-04  7901   0.186E-02
   7 F= -.73807782E+03 E0= -.73744851E+03  d E =-.283401E+01  mag=     0.0131
 curvature:  -0.15 expect dE=-0.840E+00 dE for cont linesearch -0.127E-02
 trial: gam= 0.28983 g(F)=  0.566E+01 g(S)=  0.000E+00 ort = 0.394E+00 (trialstep = 0.863E+00)
 search vector abs. value=  0.742E+01
 bond charge predicted
       N       E                     dE             d eps       ncg     rms          rms(c)
DAV:   1    -0.734923908191E+03    0.31539E+01   -0.11055E+03 13440   0.511E+01    0.134E+01
RMM:   2    -0.739964028026E+03   -0.50401E+01   -0.37850E+01 13444   0.111E+01    0.221E+01
RMM:   3    -0.740653791047E+03   -0.68976E+00   -0.61372E+00 13688   0.478E+00    0.243E+01
RMM:   4    -0.738077836736E+03    0.25760E+01   -0.22185E+00 15087   0.241E+00    0.105E+01
RMM:   5    -0.737230510252E+03    0.84733E+00   -0.82559E-01 13532   0.145E+00    0.835E+00
RMM:   6    -0.737245766707E+03   -0.15256E-01   -0.42567E-01 13998   0.997E-01    0.761E+00
RMM:   7    -0.737011897919E+03    0.23387E+00   -0.21714E-01 13575   0.749E-01    0.510E+00
RMM:   8    -0.737039958487E+03   -0.28061E-01   -0.16331E-01 13804   0.651E-01    0.493E+00
RMM:   9    -0.736892151392E+03    0.14781E+00   -0.80727E-02 13747   0.438E-01    0.137E+00
RMM:  10    -0.736886640181E+03    0.55112E-02   -0.35083E-02 15880   0.246E-01    0.930E-01
RMM:  11    -0.736885781399E+03    0.85878E-03   -0.44248E-03 13439   0.102E-01    0.866E-01
RMM:  12    -0.736883580549E+03    0.22008E-02   -0.64072E-03 13462   0.114E-01    0.678E-01
RMM:  13    -0.736882345509E+03    0.12350E-02   -0.46990E-03 13593   0.989E-02    0.313E-01
RMM:  14    -0.736882088578E+03    0.25693E-03   -0.96640E-04 12572   0.531E-02    0.150E-01
RMM:  15    -0.736882039562E+03    0.49015E-04   -0.28418E-04  9448   0.255E-02
   8 F= -.73688204E+03 E0= -.73625685E+03  d E =0.119578E+01  mag=     0.0099
 trial-energy change:    1.195777  1 .order   -0.172623   -4.987810    4.642565
 step:   0.2845(harm=  0.4471)  dis= 0.03356  next Energy=  -738.850718 (dE=-0.773E+00)
 bond charge predicted
       N       E                     dE             d eps       ncg     rms          rms(c)
DAV:   1    -0.738062903786E+03   -0.11808E+01   -0.49981E+02 13440   0.341E+01    0.821E+00
RMM:   2    -0.742022198488E+03   -0.39593E+01   -0.15744E+01 13502   0.668E+00    0.222E+01
RMM:   3    -0.741115726643E+03    0.90647E+00   -0.24645E+00 13762   0.301E+00    0.191E+01
RMM:   4    -0.739632856109E+03    0.14829E+01   -0.87961E-01 13470   0.172E+00    0.119E+01
RMM:   5    -0.738951798832E+03    0.68106E+00   -0.53391E-01 13813   0.118E+00    0.720E+00
RMM:   6    -0.738790547489E+03    0.16125E+00   -0.33836E-01 14254   0.803E-01    0.426E+00
RMM:   7    -0.738724151417E+03    0.66396E-01   -0.10318E-01 13640   0.530E-01    0.304E+00
RMM:   8    -0.738782834103E+03   -0.58683E-01   -0.43867E-02 13480   0.355E-01    0.412E+00
RMM:   9    -0.738711369472E+03    0.71465E-01   -0.51826E-02 14090   0.323E-01    0.224E+00
RMM:  10    -0.738686283758E+03    0.25086E-01   -0.10807E-02 13406   0.188E-01    0.794E-01
RMM:  11    -0.738684214266E+03    0.20695E-02   -0.39078E-03 14880   0.875E-02    0.611E-01
RMM:  12    -0.738683840547E+03    0.37372E-03   -0.88912E-04 12705   0.444E-02    0.565E-01
RMM:  13    -0.738683125290E+03    0.71526E-03   -0.13853E-03 13329   0.507E-02    0.440E-01
RMM:  14    -0.738682376931E+03    0.74836E-03   -0.67862E-04 12336   0.397E-02    0.208E-01
RMM:  15    -0.738682208080E+03    0.16885E-03   -0.25853E-04  9195   0.250E-02    0.111E-01
RMM:  16    -0.738682202888E+03    0.51916E-05   -0.76607E-05  7946   0.161E-02
   9 F= -.73868220E+03 E0= -.73805521E+03  d E =-.604386E+00  mag=     0.0066
 curvature:  -0.24 expect dE=-0.197E+01 dE for cont linesearch -0.222E-01
 trial: gam= 1.47957 g(F)=  0.810E+01 g(S)=  0.000E+00 ort =-0.822E+00 (trialstep = 0.253E+00)
 search vector abs. value=  0.219E+02
 bond charge predicted
       N       E                     dE             d eps       ncg     rms          rms(c)
DAV:   1    -0.739045584495E+03   -0.36338E+00   -0.22931E+02 13440   0.226E+01    0.611E+00
RMM:   2    -0.741492139653E+03   -0.24466E+01   -0.64950E+00 13446   0.465E+00    0.167E+01
RMM:   3    -0.741101454513E+03    0.39069E+00   -0.13684E+00 13632   0.212E+00    0.158E+01
RMM:   4    -0.739473109851E+03    0.16283E+01   -0.40869E-01 13735   0.118E+00    0.358E+00
RMM:   5    -0.739399714965E+03    0.73395E-01   -0.17588E-01 14472   0.641E-01    0.229E+00
RMM:   6    -0.739382478557E+03    0.17236E-01   -0.73210E-02 13667   0.413E-01    0.198E+00
RMM:   7    -0.739368625185E+03    0.13853E-01   -0.29550E-02 13494   0.298E-01    0.110E+00
RMM:   8    -0.739372381293E+03   -0.37561E-02   -0.36092E-02 14227   0.263E-01    0.124E+00
RMM:   9    -0.739364947102E+03    0.74342E-02   -0.10127E-02 13542   0.165E-01    0.307E-01
RMM:  10    -0.739364715016E+03    0.23209E-03   -0.36814E-03 14916   0.858E-02    0.225E-01
RMM:  11    -0.739364382207E+03    0.33281E-03   -0.70157E-04 12193   0.396E-02    0.139E-01
RMM:  12    -0.739364332582E+03    0.49624E-04   -0.65905E-04 11988   0.344E-02
  10 F= -.73936433E+03 E0= -.73874168E+03  d E =-.682130E+00  mag=     0.0047
 trial-energy change:   -0.682130  1 .order   -0.789531   -1.743237    0.164174
 step:   0.2221(harm=  0.2313)  dis= 0.04820  next Energy=  -739.374573 (dE=-0.692E+00)
 bond charge predicted
       N       E                     dE             d eps       ncg     rms          rms(c)
DAV:   1    -0.739359405556E+03    0.49767E-02   -0.34253E+00 14016   0.274E+00    0.643E-01
RMM:   2    -0.739413813160E+03   -0.54408E-01   -0.82190E-02 13440   0.501E-01    0.280E+00
RMM:   3    -0.739373094304E+03    0.40719E-01   -0.15810E-02 13547   0.238E-01    0.125E+00
RMM:   4    -0.739364076192E+03    0.90181E-02   -0.59360E-03 13556   0.135E-01    0.430E-01
RMM:   5    -0.739363466843E+03    0.60935E-03   -0.19619E-03 13375   0.755E-02    0.287E-01
RMM:   6    -0.739363334676E+03    0.13217E-03   -0.68839E-04 12408   0.456E-02    0.227E-01
RMM:   7    -0.739363210580E+03    0.12410E-03   -0.61025E-04 12161   0.389E-02    0.161E-01
RMM:   8    -0.739363223151E+03   -0.12571E-04   -0.30294E-04  9754   0.297E-02
  11 F= -.73936322E+03 E0= -.73874009E+03  d E =-.681020E+00  mag=     0.0038
 curvature:  -0.30 expect dE=-0.161E+01 dE for cont linesearch -0.404E-02
 trial: gam= 0.34928 g(F)=  0.532E+01 g(S)=  0.000E+00 ort = 0.541E+00 (trialstep = 0.247E+00)
 search vector abs. value=  0.837E+01
 bond charge predicted
       N       E                     dE             d eps       ncg     rms          rms(c)
DAV:   1    -0.739463534556E+03   -0.10032E+00   -0.86087E+01 13776   0.149E+01    0.330E+00
RMM:   2    -0.741073610268E+03   -0.16101E+01   -0.23074E+00 13440   0.273E+00    0.155E+01
RMM:   3    -0.739759972978E+03    0.13136E+01   -0.36999E-01 13556   0.124E+00    0.473E+00
RMM:   4    -0.739663955693E+03    0.96017E-01   -0.13752E-01 13454   0.689E-01    0.400E+00
RMM:   5    -0.739593605776E+03    0.70350E-01   -0.74671E-02 14282   0.438E-01    0.217E+00
RMM:   6    -0.739590917249E+03    0.26885E-02   -0.24643E-02 14054   0.244E-01    0.186E+00
RMM:   7    -0.739582042492E+03    0.88748E-02   -0.13558E-02 13533   0.194E-01    0.140E+00
RMM:   8    -0.739577696455E+03    0.43460E-02   -0.13146E-02 13979   0.177E-01    0.855E-01
RMM:   9    -0.739576373834E+03    0.13226E-02   -0.35998E-03 13484   0.965E-02    0.704E-01
RMM:  10    -0.739575367174E+03    0.10067E-02   -0.11370E-03 12937   0.582E-02    0.553E-01
RMM:  11    -0.739574048913E+03    0.13183E-02   -0.59362E-04 11883   0.360E-02    0.206E-01
RMM:  12    -0.739574048568E+03    0.34524E-06   -0.23225E-04  9032   0.218E-02
  12 F= -.73957405E+03 E0= -.73895102E+03  d E =-.210825E+00  mag=     0.0025
 trial-energy change:   -0.210825  1 .order   -0.585677   -1.360993    0.189640
 step:   0.1273(harm=  0.2167)  dis= 0.01669  next Energy=  -739.662644 (dE=-0.299E+00)
 bond charge predicted
       N       E                     dE             d eps       ncg     rms          rms(c)
DAV:   1    -0.739564336010E+03    0.97129E-02   -0.20144E+01 13472   0.722E+00    0.156E+00
RMM:   2    -0.739997773330E+03   -0.43344E+00   -0.49060E-01 13440   0.126E+00    0.793E+00
RMM:   3    -0.739621985804E+03    0.37579E+00   -0.84925E-02 13460   0.594E-01    0.231E+00
RMM:   4    -0.739601293355E+03    0.20692E-01   -0.30286E-02 13475   0.324E-01    0.142E+00
RMM:   5    -0.739595248882E+03    0.60445E-02   -0.96480E-03 13938   0.182E-01    0.955E-01
RMM:   6    -0.739595946383E+03   -0.69750E-03   -0.41128E-03 13628   0.104E-01    0.924E-01
RMM:   7    -0.739593645978E+03    0.23004E-02   -0.46159E-03 13982   0.105E-01    0.581E-01
RMM:   8    -0.739591627760E+03    0.20182E-02   -0.26074E-03 13304   0.806E-02    0.250E-01
RMM:   9    -0.739591468469E+03    0.15929E-03   -0.74665E-04 12188   0.424E-02    0.118E-01
RMM:  10    -0.739591495147E+03   -0.26678E-04   -0.17829E-04  8578   0.218E-02
  13 F= -.73959150E+03 E0= -.73896805E+03  d E =-.228272E+00  mag=     0.0019
 curvature:   1.28 expect dE= 0.426E+01 dE for cont linesearch  0.980E-01
 ZBRENT: interpolating
 opt :   0.1111  next Energy=  -739.597958 (dE=-0.235E+00)
 bond charge predicted
       N       E                     dE             d eps       ncg     rms          rms(c)
DAV:   1    -0.739604834665E+03   -0.13366E-01   -0.36999E-01 14080   0.980E-01    0.216E-01
RMM:   2    -0.739606963609E+03   -0.21289E-02   -0.92969E-03 13438   0.174E-01    0.517E-01
RMM:   3    -0.739606286822E+03    0.67679E-03   -0.15063E-03 13354   0.768E-02    0.372E-01
RMM:   4    -0.739606203206E+03    0.83616E-04   -0.52519E-04 11991   0.415E-02    0.371E-01
RMM:   5    -0.739605564292E+03    0.63891E-03   -0.19852E-04  8444   0.261E-02    0.170E-01
RMM:   6    -0.739605544738E+03    0.19554E-04   -0.80460E-05  7969   0.181E-02    0.143E-01
RMM:   7    -0.739605496502E+03    0.48236E-04   -0.73227E-05  7838   0.150E-02    0.863E-02
RMM:   8    -0.739605477229E+03    0.19273E-04   -0.42193E-05  7517   0.121E-02
  14 F= -.73960548E+03 E0= -.73898236E+03  d E =-.242254E+00  mag=     0.0014
 curvature:  -0.08 expect dE=-0.334E+00 dE for cont linesearch -0.745E-02
 ZBRENT: bisectioning
 opt :   0.0556  next Energy=  -739.658894 (dE=-0.296E+00)
 bond charge predicted
       N       E                     dE             d eps       ncg     rms          rms(c)
DAV:   1    -0.739584725394E+03    0.20771E-01   -0.43562E+00 13792   0.336E+00    0.724E-01
RMM:   2    -0.739657347439E+03   -0.72622E-01   -0.10712E-01 13440   0.589E-01    0.323E+00
RMM:   3    -0.739597861916E+03    0.59486E-01   -0.17825E-02 13474   0.269E-01    0.113E+00
RMM:   4    -0.739593442487E+03    0.44194E-02   -0.66823E-03 13452   0.152E-01    0.794E-01
RMM:   5    -0.739591496730E+03    0.19458E-02   -0.24648E-03 13720   0.889E-02    0.523E-01
RMM:   6    -0.739591444108E+03    0.52623E-04   -0.92074E-04 12883   0.500E-02    0.457E-01
RMM:   7    -0.739590765080E+03    0.67903E-03   -0.96159E-04 12964   0.488E-02    0.280E-01
RMM:   8    -0.739590436649E+03    0.32843E-03   -0.56272E-04 11542   0.384E-02    0.130E-01
RMM:   9    -0.739590389120E+03    0.47529E-04   -0.14612E-04  8223   0.206E-02
  15 F= -.73959039E+03 E0= -.73896700E+03  d E =-.227166E+00  mag=     0.0011
 curvature:  -0.61 expect dE=-0.158E+01 dE for cont linesearch -0.326E+00
 ZBRENT: interpolating
 opt :   0.0951  next Energy=  -739.612357 (dE=-0.249E+00)
 bond charge predicted
       N       E                     dE             d eps       ncg     rms          rms(c)
DAV:   1    -0.739614556033E+03   -0.24119E-01   -0.22104E+00 13792   0.239E+00    0.546E-01
RMM:   2    -0.739671717485E+03   -0.57161E-01   -0.57076E-02 13440   0.428E-01    0.291E+00
RMM:   3    -0.739620628590E+03    0.51089E-01   -0.97978E-03 13466   0.204E-01    0.778E-01
RMM:   4    -0.739618149128E+03    0.24795E-02   -0.36199E-03 13356   0.112E-01    0.512E-01
RMM:   5    -0.739617345915E+03    0.80321E-03   -0.15412E-03 13478   0.668E-02    0.327E-01
RMM:   6    -0.739617383309E+03   -0.37393E-04   -0.51093E-04 11962   0.376E-02    0.297E-01
RMM:   7    -0.739617119492E+03    0.26382E-03   -0.44630E-04 11232   0.347E-02    0.198E-01
RMM:   8    -0.739616984884E+03    0.13461E-03   -0.30901E-04  9468   0.289E-02    0.103E-01
RMM:   9    -0.739616951694E+03    0.33189E-04   -0.76457E-05  7881   0.169E-02
  16 F= -.73961695E+03 E0= -.73899399E+03  d E =-.253729E+00  mag=     0.0008
 curvature:  -0.01 expect dE=-0.521E-01 dE for cont linesearch -0.389E-03
 trial: gam= 0.71081 g(F)=  0.408E+01 g(S)=  0.000E+00 ort =-0.506E+00 (trialstep = 0.217E+00)
 search vector abs. value=  0.759E+01
 bond charge predicted
       N       E                     dE             d eps       ncg     rms          rms(c)
DAV:   1    -0.739715199499E+03   -0.98215E-01   -0.50966E+01 13968   0.115E+01    0.273E+00
RMM:   2    -0.740368988379E+03   -0.65379E+00   -0.15069E+00 13440   0.218E+00    0.924E+00
RMM:   3    -0.740041101698E+03    0.32789E+00   -0.25354E-01 13628   0.986E-01    0.652E+00
RMM:   4    -0.739810902954E+03    0.23020E+00   -0.75249E-02 13456   0.542E-01    0.195E+00
RMM:   5    -0.739789809696E+03    0.21093E-01   -0.40223E-02 13941   0.334E-01    0.131E+00
RMM:   6    -0.739790344327E+03   -0.53463E-03   -0.19225E-02 13837   0.215E-01    0.138E+00
RMM:   7    -0.739785702129E+03    0.46422E-02   -0.70623E-03 13491   0.150E-01    0.706E-01
RMM:   8    -0.739786543148E+03   -0.84102E-03   -0.12208E-02 14426   0.150E-01    0.686E-01
RMM:   9    -0.739783450923E+03    0.30922E-02   -0.23483E-03 13023   0.828E-02    0.228E-01
RMM:  10    -0.739783309955E+03    0.14097E-03   -0.85841E-04 12482   0.456E-02    0.128E-01
RMM:  11    -0.739783313960E+03   -0.40057E-05   -0.30265E-04  9463   0.268E-02
  17 F= -.73978331E+03 E0= -.73916113E+03  d E =-.166362E+00  mag=     0.0006
 trial-energy change:   -0.166362  1 .order   -0.156831   -0.805891    0.492229
 step:   0.1367(harm=  0.1344)  dis= 0.01939  next Energy=  -739.873634 (dE=-0.257E+00)
 bond charge predicted
       N       E                     dE             d eps       ncg     rms          rms(c)
DAV:   1    -0.739874100954E+03   -0.90791E-01   -0.69021E+00 13792   0.421E+00    0.908E-01
RMM:   2    -0.739934374229E+03   -0.60273E-01   -0.18019E-01 13440   0.769E-01    0.281E+00
RMM:   3    -0.739913055802E+03    0.21318E-01   -0.30690E-02 13580   0.340E-01    0.223E+00
RMM:   4    -0.739885617259E+03    0.27439E-01   -0.86203E-03 13553   0.181E-01    0.514E-01
RMM:   5    -0.739884977127E+03    0.64013E-03   -0.33711E-03 13696   0.107E-01    0.522E-01
RMM:   6    -0.739884935827E+03    0.41300E-04   -0.18234E-03 13121   0.698E-02    0.450E-01
RMM:   7    -0.739884733401E+03    0.20243E-03   -0.12679E-03 12877   0.601E-02    0.292E-01
RMM:   8    -0.739884373320E+03    0.36008E-03   -0.11228E-03 13004   0.508E-02    0.195E-01
RMM:   9    -0.739884151276E+03    0.22204E-03   -0.26691E-04  9134   0.267E-02    0.627E-02
RMM:  10    -0.739884152908E+03   -0.16324E-05   -0.66858E-05  7864   0.167E-02
  18 F= -.73988415E+03 E0= -.73926197E+03  d E =-.267201E+00  mag=     0.0004
 curvature:  -0.14 expect dE=-0.418E+00 dE for cont linesearch -0.814E-06
 trial: gam= 0.58477 g(F)=  0.305E+01 g(S)=  0.000E+00 ort = 0.671E-02 (trialstep = 0.201E+00)
 search vector abs. value=  0.565E+01
 bond charge predicted
       N       E                     dE             d eps       ncg     rms          rms(c)
DAV:   1    -0.740023609114E+03   -0.13946E+00   -0.33553E+01 13440   0.936E+00    0.136E+00
RMM:   2    -0.740127074379E+03   -0.10347E+00   -0.70241E-01 13440   0.163E+00    0.310E+00
RMM:   3    -0.740112679651E+03    0.14395E-01   -0.13029E-01 14460   0.658E-01    0.190E+00
RMM:   4    -0.740113754144E+03   -0.10745E-02   -0.28206E-02 14513   0.307E-01    0.182E+00
RMM:   5    -0.740101319020E+03    0.12435E-01   -0.92256E-03 13460   0.185E-01    0.130E+00
RMM:   6    -0.740098125093E+03    0.31939E-02   -0.75862E-03 13528   0.151E-01    0.822E-01
RMM:   7    -0.740096816090E+03    0.13090E-02   -0.58839E-03 13768   0.134E-01    0.398E-01
RMM:   8    -0.740096666890E+03    0.14920E-03   -0.20976E-03 13227   0.804E-02    0.388E-01
RMM:   9    -0.740096278061E+03    0.38883E-03   -0.76984E-04 12391   0.436E-02    0.240E-01
RMM:  10    -0.740096152474E+03    0.12559E-03   -0.16496E-04  8483   0.207E-02    0.205E-01
RMM:  11    -0.740095991641E+03    0.16083E-03   -0.21862E-04  8547   0.243E-02    0.129E-01
RMM:  12    -0.740095950917E+03    0.40724E-04   -0.26504E-04  8852   0.247E-02
  19 F= -.74009595E+03 E0= -.73947467E+03  d E =-.211798E+00  mag=     0.0003
 trial-energy change:   -0.211798  1 .order   -0.249876   -0.612554    0.112801
 step:   0.1590(harm=  0.1694)  dis= 0.01979  next Energy=  -740.107980 (dE=-0.224E+00)
 bond charge predicted
       N       E                     dE             d eps       ncg     rms          rms(c)
DAV:   1    -0.740104868567E+03   -0.88769E-02   -0.14404E+00 13872   0.194E+00    0.294E-01
RMM:   2    -0.740109054990E+03   -0.41864E-02   -0.30352E-02 13440   0.340E-01    0.628E-01
RMM:   3    -0.740108980612E+03    0.74378E-04   -0.55219E-03 14208   0.138E-01    0.443E-01
RMM:   4    -0.740108911933E+03    0.68679E-04   -0.13794E-03 14396   0.655E-02    0.420E-01
RMM:   5    -0.740108159867E+03    0.75207E-03   -0.38236E-04 10975   0.373E-02    0.245E-01
RMM:   6    -0.740108200783E+03   -0.40916E-04   -0.31370E-04  9883   0.326E-02    0.226E-01
RMM:   7    -0.740108083138E+03    0.11764E-03   -0.20900E-04  8817   0.271E-02    0.122E-01
RMM:   8    -0.740108029000E+03    0.54138E-04   -0.11567E-04  7874   0.199E-02
  20 F= -.74010803E+03 E0= -.73948657E+03  d E =-.223876E+00  mag=     0.0002
 curvature:  -0.14 expect dE=-0.614E+00 dE for cont linesearch -0.458E-05
 trial: gam= 1.17589 g(F)=  0.441E+01 g(S)=  0.000E+00 ort =-0.136E-01 (trialstep = 0.892E-01)
 search vector abs. value=  0.122E+02
 bond charge predicted
       N       E                     dE             d eps       ncg     rms          rms(c)
DAV:   1    -0.740364403154E+03   -0.25632E+00   -0.14612E+01 13440   0.602E+00    0.921E-01
RMM:   2    -0.740395473240E+03   -0.31070E-01   -0.30254E-01 13440   0.102E+00    0.134E+00
RMM:   3    -0.740406670201E+03   -0.11197E-01   -0.48269E-02 14292   0.411E-01    0.149E+00
RMM:   4    -0.740403534270E+03    0.31359E-02   -0.12983E-02 14169   0.201E-01    0.141E+00
RMM:   5    -0.740393684901E+03    0.98494E-02   -0.44877E-03 13422   0.124E-01    0.630E-01
RMM:   6    -0.740392733109E+03    0.95179E-03   -0.23192E-03 13252   0.882E-02    0.421E-01
RMM:   7    -0.740392587026E+03    0.14608E-03   -0.20590E-03 13180   0.755E-02    0.331E-01
RMM:   8    -0.740392181739E+03    0.40529E-03   -0.85058E-04 12449   0.518E-02    0.189E-01
RMM:   9    -0.740392044971E+03    0.13677E-03   -0.34172E-04  9939   0.292E-02    0.954E-02
RMM:  10    -0.740392023287E+03    0.21684E-04   -0.64858E-05  8091   0.163E-02
  21 F= -.74039202E+03 E0= -.73977198E+03  d E =-.283994E+00  mag=     0.0001
 trial-energy change:   -0.283994  1 .order   -0.265784   -0.391442   -0.140127
 step:   0.1205(harm=  0.1389)  dis= 0.02010  next Energy=  -740.417421 (dE=-0.309E+00)
 bond charge predicted
       N       E                     dE             d eps       ncg     rms          rms(c)
DAV:   1    -0.740412245810E+03   -0.20201E-01   -0.18087E+00 13712   0.212E+00    0.341E-01
RMM:   2    -0.740415928894E+03   -0.36831E-02   -0.38378E-02 13440   0.364E-01    0.392E-01
RMM:   3    -0.740416572851E+03   -0.64396E-03   -0.60558E-03 14512   0.145E-01    0.383E-01
RMM:   4    -0.740417274563E+03   -0.70171E-03   -0.15414E-03 14233   0.667E-02    0.474E-01
RMM:   5    -0.740416288144E+03    0.98642E-03   -0.54840E-04 12325   0.432E-02    0.316E-01
RMM:   6    -0.740416012794E+03    0.27535E-03   -0.31115E-04  9661   0.341E-02    0.172E-01
RMM:   7    -0.740415958781E+03    0.54014E-04   -0.26602E-04  9191   0.268E-02    0.997E-02
RMM:   8    -0.740415957641E+03    0.11392E-05   -0.11384E-04  8000   0.207E-02
  22 F= -.74041596E+03 E0= -.73979641E+03  d E =-.307929E+00  mag=     0.0001
 curvature:  -0.17 expect dE=-0.479E+00 dE for cont linesearch -0.498E-04
 trial: gam= 0.43383 g(F)=  0.288E+01 g(S)=  0.000E+00 ort = 0.604E-01 (trialstep = 0.954E-01)
 search vector abs. value=  0.522E+01
 bond charge predicted
       N       E                     dE             d eps       ncg     rms          rms(c)
DAV:   1    -0.740567416272E+03   -0.15146E+00   -0.79882E+00 13440   0.444E+00    0.838E-01
RMM:   2    -0.740662329994E+03   -0.94914E-01   -0.18550E-01 13440   0.761E-01    0.363E+00
RMM:   3    -0.740586600916E+03    0.75729E-01   -0.26656E-02 13584   0.332E-01    0.997E-01
RMM:   4    -0.740586725520E+03   -0.12460E-03   -0.10443E-02 13548   0.183E-01    0.117E+00
RMM:   5    -0.740582552101E+03    0.41734E-02   -0.36978E-03 13878   0.109E-01    0.848E-01
RMM:   6    -0.740581799795E+03    0.75231E-03   -0.11932E-03 12830   0.615E-02    0.672E-01
RMM:   7    -0.740579820292E+03    0.19795E-02   -0.19161E-03 13684   0.636E-02    0.301E-01
RMM:   8    -0.740579526906E+03    0.29339E-03   -0.66048E-04 12159   0.482E-02    0.123E-01
RMM:   9    -0.740579496041E+03    0.30866E-04   -0.21916E-04  8744   0.239E-02
  23 F= -.74057950E+03 E0= -.73996119E+03  d E =-.163538E+00  mag=     0.0001
 trial-energy change:   -0.163538  1 .order   -0.179305   -0.276913   -0.081696
 step:   0.1354(harm=  0.1354)  dis= 0.01218  next Energy=  -740.612357 (dE=-0.196E+00)
 bond charge predicted
       N       E                     dE             d eps       ncg     rms          rms(c)
DAV:   1    -0.740612769719E+03   -0.33243E-01   -0.13991E+00 13936   0.186E+00    0.358E-01
RMM:   2    -0.740620567375E+03   -0.77977E-02   -0.32316E-02 13440   0.319E-01    0.953E-01
RMM:   3    -0.740617030855E+03    0.35365E-02   -0.46385E-03 13849   0.133E-01    0.530E-01
RMM:   4    -0.740617332769E+03   -0.30191E-03   -0.17873E-03 13368   0.764E-02    0.636E-01
RMM:   5    -0.740615916538E+03    0.14162E-02   -0.65673E-04 12259   0.469E-02    0.421E-01
RMM:   6    -0.740615631554E+03    0.28498E-03   -0.22816E-04  8840   0.281E-02    0.310E-01
RMM:   7    -0.740615207681E+03    0.42387E-03   -0.27918E-04  9458   0.283E-02    0.132E-01
RMM:   8    -0.740615167080E+03    0.40600E-04   -0.13887E-04  7994   0.229E-02
  24 F= -.74061517E+03 E0= -.73999776E+03  d E =-.199209E+00  mag=     0.0001
 curvature:  -0.12 expect dE=-0.255E+00 dE for cont linesearch -0.158E-01
 ZBRENT: increasing intervall
 opt :   0.2152  next Energy=  -740.678402 (dE=-0.262E+00)
 bond charge predicted
       N       E                     dE             d eps       ncg     rms          rms(c)
DAV:   1    -0.740613465185E+03    0.17425E-02   -0.55942E+00 13472   0.372E+00    0.693E-01
RMM:   2    -0.740668378261E+03   -0.54913E-01   -0.12768E-01 13440   0.636E-01    0.272E+00
RMM:   3    -0.740626909193E+03    0.41469E-01   -0.18356E-02 13648   0.273E-01    0.822E-01
RMM:   4    -0.740627882285E+03   -0.97309E-03   -0.71344E-03 13567   0.152E-01    0.102E+00
RMM:   5    -0.740624566743E+03    0.33155E-02   -0.25876E-03 13726   0.921E-02    0.737E-01
RMM:   6    -0.740623835604E+03    0.73114E-03   -0.87002E-04 12686   0.530E-02    0.557E-01
RMM:   7    -0.740622461576E+03    0.13740E-02   -0.13842E-03 13467   0.535E-02    0.245E-01
RMM:   8    -0.740622291669E+03    0.16991E-03   -0.43272E-04 11379   0.397E-02    0.101E-01
RMM:   9    -0.740622269236E+03    0.22433E-04   -0.13886E-04  8092   0.201E-02
  25 F= -.74062227E+03 E0= -.74000592E+03  d E =-.206312E+00  mag=     0.0000
 curvature:  -0.49 expect dE=-0.147E+01 dE for cont linesearch -0.118E-01
 trial: gam= 1.25292 g(F)=  0.302E+01 g(S)=  0.000E+00 ort =-0.356E+00 (trialstep = 0.604E-01)
 search vector abs. value=  0.103E+02
 bond charge predicted
       N       E                     dE             d eps       ncg     rms          rms(c)
DAV:   1    -0.740770077525E+03   -0.14779E+00   -0.51466E+00 13568   0.356E+00    0.550E-01
RMM:   2    -0.740785923039E+03   -0.15846E-01   -0.10098E-01 13440   0.591E-01    0.110E+00
RMM:   3    -0.740784531753E+03    0.13913E-02   -0.17201E-02 14421   0.241E-01    0.844E-01
RMM:   4    -0.740782964834E+03    0.15669E-02   -0.46304E-03 13817   0.123E-01    0.700E-01
RMM:   5    -0.740780958412E+03    0.20064E-02   -0.13552E-03 13160   0.720E-02    0.431E-01
RMM:   6    -0.740780632326E+03    0.32609E-03   -0.75356E-04 12517   0.497E-02    0.316E-01
RMM:   7    -0.740780287517E+03    0.34481E-03   -0.82046E-04 12690   0.464E-02    0.167E-01
RMM:   8    -0.740780168249E+03    0.11927E-03   -0.32870E-04 10267   0.332E-02    0.894E-02
RMM:   9    -0.740780138671E+03    0.29578E-04   -0.91335E-05  8034   0.185E-02
  26 F= -.74078014E+03 E0= -.74016499E+03  d E =-.157869E+00  mag=     0.0000
 ZBRENT: can't locate minimum, use default step
 trial-energy change:   -0.157869  1 .order   -0.144152   -0.155442   -0.132861
 step:   0.2415(harm=  0.4156)  dis= 0.03129  next Energy=  -741.157294 (dE=-0.535E+00)
 bond charge predicted
       N       E                     dE             d eps       ncg     rms          rms(c)
DAV:   1    -0.740620430239E+03    0.15974E+00   -0.46265E+01 13440   0.107E+01    0.151E+00
RMM:   2    -0.740779484405E+03   -0.15905E+00   -0.90426E-01 13440   0.178E+00    0.363E+00
RMM:   3    -0.740743059685E+03    0.36425E-01   -0.15627E-01 14368   0.727E-01    0.232E+00
RMM:   4    -0.740724707410E+03    0.18352E-01   -0.38224E-02 14151   0.351E-01    0.147E+00
RMM:   5    -0.740716899325E+03    0.78081E-02   -0.10733E-02 13564   0.198E-01    0.108E+00
RMM:   6    -0.740714806739E+03    0.20926E-02   -0.70580E-03 13460   0.149E-01    0.848E-01
RMM:   7    -0.740712356786E+03    0.24500E-02   -0.82632E-03 14064   0.144E-01    0.448E-01
RMM:   8    -0.740711384793E+03    0.97199E-03   -0.26951E-03 13359   0.939E-02    0.268E-01
RMM:   9    -0.740711150318E+03    0.23447E-03   -0.90179E-04 12773   0.482E-02    0.115E-01
RMM:  10    -0.740711139476E+03    0.10843E-04   -0.18291E-04  8769   0.212E-02
  27 F= -.74071114E+03 E0= -.74009851E+03  d E =-.888702E-01  mag=     0.0000
 curvature:  -0.63 expect dE=-0.449E+01 dE for cont linesearch -0.352E+00
 ZBRENT: interpolating
 opt :   0.1471  next Energy=  -740.875552 (dE=-0.253E+00)
 bond charge predicted
       N       E                     dE             d eps       ncg     rms          rms(c)
DAV:   1    -0.740850173163E+03   -0.13902E+00   -0.12550E+01 13504   0.556E+00    0.790E-01
RMM:   2    -0.740888218735E+03   -0.38046E-01   -0.24848E-01 13440   0.935E-01    0.169E+00
RMM:   3    -0.740886188290E+03    0.20304E-02   -0.41456E-02 14236   0.380E-01    0.141E+00
RMM:   4    -0.740877466963E+03    0.87213E-02   -0.10373E-02 14084   0.185E-01    0.777E-01
RMM:   5    -0.740875275202E+03    0.21918E-02   -0.30183E-03 13547   0.104E-01    0.558E-01
RMM:   6    -0.740874533211E+03    0.74199E-03   -0.19211E-03 13116   0.776E-02    0.429E-01
RMM:   7    -0.740874168932E+03    0.36428E-03   -0.25605E-03 13967   0.777E-02    0.271E-01
RMM:   8    -0.740873864051E+03    0.30488E-03   -0.97595E-04 12623   0.546E-02    0.175E-01
RMM:   9    -0.740873699685E+03    0.16437E-03   -0.24758E-04  9228   0.270E-02    0.643E-02
RMM:  10    -0.740873691123E+03    0.85619E-05   -0.64478E-05  7948   0.162E-02
  28 F= -.74087369E+03 E0= -.74025981E+03  d E =-.251422E+00  mag=     0.0000
 curvature:  -0.17 expect dE=-0.612E+00 dE for cont linesearch -0.243E-02
 trial: gam= 0.91737 g(F)=  0.356E+01 g(S)=  0.000E+00 ort =-0.382E+00 (trialstep = 0.695E-01)
 search vector abs. value=  0.116E+02
 bond charge predicted
       N       E                     dE             d eps       ncg     rms          rms(c)
DAV:   1    -0.741004723794E+03   -0.13102E+00   -0.65379E+00 13856   0.411E+00    0.562E-01
RMM:   2    -0.741017652525E+03   -0.12929E-01   -0.12384E-01 13440   0.683E-01    0.859E-01
RMM:   3    -0.741017507233E+03    0.14529E-03   -0.21600E-02 14150   0.282E-01    0.396E-01
RMM:   4    -0.741027484000E+03   -0.99768E-02   -0.60510E-03 14260   0.136E-01    0.133E+00
RMM:   5    -0.741018149488E+03    0.93345E-02   -0.15158E-03 13588   0.722E-02    0.505E-01
RMM:   6    -0.741017635174E+03    0.51431E-03   -0.11110E-03 12727   0.564E-02    0.428E-01
RMM:   7    -0.741017384448E+03    0.25073E-03   -0.10148E-03 13090   0.524E-02    0.263E-01
RMM:   8    -0.741017082753E+03    0.30169E-03   -0.48911E-04 11652   0.369E-02    0.118E-01
RMM:   9    -0.741017051490E+03    0.31264E-04   -0.15419E-04  8263   0.214E-02
  29 F= -.74101705E+03 E0= -.74040405E+03  d E =-.143360E+00  mag=     0.0000
 trial-energy change:   -0.143360  1 .order   -0.140075   -0.223170   -0.056980
 step:   0.0901(harm=  0.0933)  dis= 0.01551  next Energy=  -741.025603 (dE=-0.152E+00)
 bond charge predicted
       N       E                     dE             d eps       ncg     rms          rms(c)
DAV:   1    -0.741026627280E+03   -0.95445E-02   -0.57775E-01 13760   0.122E+00    0.187E-01
RMM:   2    -0.741028169459E+03   -0.15422E-02   -0.11252E-02 13440   0.207E-01    0.279E-01
RMM:   3    -0.741029125000E+03   -0.95554E-03   -0.22794E-03 14265   0.871E-02    0.484E-01
RMM:   4    -0.741028022439E+03    0.11026E-02   -0.50014E-04 11423   0.411E-02    0.204E-01
RMM:   5    -0.741028033332E+03   -0.10894E-04   -0.15728E-04  8215   0.243E-02    0.212E-01
RMM:   6    -0.741027962612E+03    0.70720E-04   -0.15087E-04  8335   0.230E-02    0.129E-01
RMM:   7    -0.741027901083E+03    0.61529E-04   -0.80072E-05  7885   0.160E-02    0.636E-02
RMM:   8    -0.741027892744E+03    0.83392E-05   -0.27281E-05  7524   0.105E-02
  30 F= -.74102789E+03 E0= -.74041515E+03  d E =-.154202E+00  mag=     0.0000
 curvature:  -0.16 expect dE=-0.475E+00 dE for cont linesearch -0.998E-03
 trial: gam= 0.44837 g(F)=  0.288E+01 g(S)=  0.000E+00 ort = 0.264E+00 (trialstep = 0.736E-01)
 search vector abs. value=  0.544E+01
 bond charge predicted
       N       E                     dE             d eps       ncg     rms          rms(c)
DAV:   1    -0.741177887206E+03   -0.14999E+00   -0.41247E+00 13552   0.330E+00    0.612E-01
RMM:   2    -0.741219017472E+03   -0.41130E-01   -0.10078E-01 13440   0.595E-01    0.237E+00
RMM:   3    -0.741192510112E+03    0.26507E-01   -0.16215E-02 13508   0.261E-01    0.124E+00
RMM:   4    -0.741185618017E+03    0.68921E-02   -0.45807E-03 14090   0.128E-01    0.498E-01
RMM:   5    -0.741185481375E+03    0.13664E-03   -0.20148E-03 13461   0.782E-02    0.573E-01
RMM:   6    -0.741184925490E+03    0.55588E-03   -0.10064E-03 12846   0.570E-02    0.418E-01
RMM:   7    -0.741184682681E+03    0.24281E-03   -0.64157E-04 12172   0.435E-02    0.217E-01
RMM:   8    -0.741184545717E+03    0.13696E-03   -0.85763E-04 12348   0.397E-02    0.169E-01
RMM:   9    -0.741184424202E+03    0.12151E-03   -0.15345E-04  8357   0.225E-02    0.794E-02
RMM:  10    -0.741184413182E+03    0.11020E-04   -0.46979E-05  7807   0.141E-02
  31 F= -.74118441E+03 E0= -.74057216E+03  d E =-.156520E+00  mag=     0.0000
 trial-energy change:   -0.156520  1 .order   -0.145278   -0.220679   -0.069877
 step:   0.0952(harm=  0.1077)  dis= 0.01091  next Energy=  -741.194953 (dE=-0.167E+00)
 bond charge predicted
       N       E                     dE             d eps       ncg     rms          rms(c)
DAV:   1    -0.741196617076E+03   -0.12193E-01   -0.35758E-01 14176   0.972E-01    0.177E-01
RMM:   2    -0.741199307571E+03   -0.26905E-02   -0.88034E-03 13440   0.175E-01    0.576E-01
RMM:   3    -0.741197907942E+03    0.13996E-02   -0.13781E-03 13496   0.754E-02    0.358E-01
RMM:   4    -0.741197302662E+03    0.60528E-03   -0.40892E-04 10785   0.377E-02    0.134E-01
RMM:   5    -0.741197341341E+03   -0.38680E-04   -0.15343E-04  8166   0.240E-02    0.158E-01
RMM:   6    -0.741197283929E+03    0.57413E-04   -0.87106E-05  7862   0.187E-02    0.123E-01
RMM:   7    -0.741197268528E+03    0.15401E-04   -0.57225E-05  7730   0.145E-02    0.558E-02
RMM:   8    -0.741197259286E+03    0.92420E-05   -0.59022E-05  7506   0.121E-02
  32 F= -.74119726E+03 E0= -.74058523E+03  d E =-.169367E+00  mag=     0.0000
 curvature:  -0.08 expect dE=-0.143E+00 dE for cont linesearch -0.978E-03
 trial: gam= 0.33863 g(F)=  0.169E+01 g(S)=  0.000E+00 ort = 0.251E+00 (trialstep = 0.779E-01)
 search vector abs. value=  0.249E+01
 bond charge predicted
       N       E                     dE             d eps       ncg     rms          rms(c)
DAV:   1    -0.741291682757E+03   -0.94414E-01   -0.27193E+00 13440   0.261E+00    0.382E-01
RMM:   2    -0.741298867497E+03   -0.71847E-02   -0.55624E-02 13440   0.444E-01    0.905E-01
RMM:   3    -0.741297724491E+03    0.11430E-02   -0.82356E-03 13850   0.180E-01    0.389E-01
RMM:   4    -0.741302979220E+03   -0.52547E-02   -0.28963E-03 14793   0.878E-02    0.955E-01
RMM:   5    -0.741297676447E+03    0.53028E-02   -0.86830E-04 12742   0.531E-02    0.372E-01
RMM:   6    -0.741297534518E+03    0.14193E-03   -0.41416E-04 11111   0.357E-02    0.263E-01
RMM:   7    -0.741297617178E+03   -0.82660E-04   -0.37479E-04 10413   0.327E-02    0.237E-01
RMM:   8    -0.741297461700E+03    0.15548E-03   -0.16470E-04  8365   0.238E-02    0.168E-01
RMM:   9    -0.741297418910E+03    0.42791E-04   -0.56188E-05  7953   0.147E-02
  33 F= -.74129742E+03 E0= -.74068562E+03  d E =-.100160E+00  mag=     0.0000
 trial-energy change:   -0.100160  1 .order   -0.098242   -0.138648   -0.057836
 step:   0.1234(harm=  0.1337)  dis= 0.01019  next Energy=  -741.314689 (dE=-0.117E+00)
 bond charge predicted
       N       E                     dE             d eps       ncg     rms          rms(c)
DAV:   1    -0.741316099895E+03   -0.18638E-01   -0.92658E-01 13504   0.152E+00    0.241E-01
RMM:   2    -0.741319697709E+03   -0.35978E-02   -0.19146E-02 13440   0.260E-01    0.620E-01
RMM:   3    -0.741318279892E+03    0.14178E-02   -0.30235E-03 14197   0.105E-01    0.288E-01
RMM:   4    -0.741318478201E+03   -0.19831E-03   -0.77907E-04 12947   0.494E-02    0.265E-01
RMM:   5    -0.741318337798E+03    0.14040E-03   -0.31852E-04  9625   0.331E-02    0.290E-01
RMM:   6    -0.741318235181E+03    0.10262E-03   -0.17585E-04  8382   0.266E-02    0.178E-01
RMM:   7    -0.741318200121E+03    0.35061E-04   -0.14378E-04  8188   0.210E-02    0.116E-01
RMM:   8    -0.741318126148E+03    0.73972E-04   -0.74369E-05  7856   0.169E-02
  34 F= -.74131813E+03 E0= -.74070680E+03  d E =-.120867E+00  mag=     0.0000
 curvature:  -0.09 expect dE=-0.862E-01 dE for cont linesearch -0.129E-02
 trial: gam= 0.43127 g(F)=  0.954E+00 g(S)=  0.000E+00 ort = 0.188E+00 (trialstep = 0.870E-01)
 search vector abs. value=  0.158E+01
 bond charge predicted
       N       E                     dE             d eps       ncg     rms          rms(c)
DAV:   1    -0.741373177956E+03   -0.54978E-01   -0.20142E+00 13440   0.227E+00    0.360E-01
RMM:   2    -0.741377514064E+03   -0.43361E-02   -0.41476E-02 13440   0.384E-01    0.581E-01
RMM:   3    -0.741377226788E+03    0.28728E-03   -0.61552E-03 13768   0.156E-01    0.213E-01
RMM:   4    -0.741379419835E+03   -0.21930E-02   -0.19266E-03 14152   0.773E-02    0.670E-01
RMM:   5    -0.741377564091E+03    0.18557E-02   -0.53875E-04 11844   0.393E-02    0.333E-01
RMM:   6    -0.741377514940E+03    0.49151E-04   -0.48739E-04 11284   0.340E-02    0.257E-01
RMM:   7    -0.741377412893E+03    0.10205E-03   -0.25831E-04  9542   0.288E-02    0.197E-01
RMM:   8    -0.741377238272E+03    0.17462E-03   -0.14469E-04  8095   0.237E-02    0.800E-02
RMM:   9    -0.741377231069E+03    0.72022E-05   -0.44715E-05  7876   0.129E-02
  35 F= -.74137723E+03 E0= -.74076614E+03  d E =-.591049E-01  mag=     0.0000
 trial-energy change:   -0.059105  1 .order   -0.057075   -0.090118   -0.024031
 step:   0.1126(harm=  0.1187)  dis= 0.00536  next Energy=  -741.380811 (dE=-0.627E-01)
 bond charge predicted
       N       E                     dE             d eps       ncg     rms          rms(c)
DAV:   1    -0.741380462182E+03   -0.32239E-02   -0.17340E-01 14080   0.666E-01    0.117E-01
RMM:   2    -0.741380822926E+03   -0.36074E-03   -0.36150E-03 13440   0.113E-01    0.116E-01
RMM:   3    -0.741381216413E+03   -0.39349E-03   -0.59074E-04 12718   0.463E-02    0.255E-01
RMM:   4    -0.741380838474E+03    0.37794E-03   -0.14252E-04  7994   0.233E-02    0.706E-02
RMM:   5    -0.741380932314E+03   -0.93840E-04   -0.82805E-05  7808   0.184E-02    0.144E-01
RMM:   6    -0.741380861543E+03    0.70771E-04   -0.49853E-05  7724   0.137E-02    0.498E-02
RMM:   7    -0.741380863112E+03   -0.15692E-05   -0.23276E-05  7295   0.915E-03    0.505E-02
RMM:   8    -0.741380856131E+03    0.69809E-05   -0.91141E-06  6722   0.636E-03
  36 F= -.74138086E+03 E0= -.74076983E+03  d E =-.627300E-01  mag=    -0.0000
 curvature:  -0.09 expect dE=-0.899E-01 dE for cont linesearch -0.581E-05
 trial: gam= 1.07782 g(F)=  0.103E+01 g(S)=  0.000E+00 ort = 0.103E-01 (trialstep = 0.504E-01)
 search vector abs. value=  0.289E+01
 bond charge predicted
       N       E                     dE             d eps       ncg     rms          rms(c)
DAV:   1    -0.741403925736E+03   -0.23063E-01   -0.11464E+00 13504   0.170E+00    0.246E-01
RMM:   2    -0.741407081604E+03   -0.31559E-02   -0.23164E-02 13440   0.290E-01    0.623E-01
RMM:   3    -0.741406543509E+03    0.53809E-03   -0.39380E-03 14618   0.115E-01    0.345E-01
RMM:   4    -0.741409854087E+03   -0.33106E-02   -0.99105E-04 13287   0.543E-02    0.796E-01
RMM:   5    -0.741406660563E+03    0.31935E-02   -0.33103E-04 10220   0.364E-02    0.357E-01
RMM:   6    -0.741406541030E+03    0.11953E-03   -0.28501E-04  9625   0.285E-02    0.288E-01
RMM:   7    -0.741406406386E+03    0.13464E-03   -0.24294E-04  9126   0.270E-02    0.167E-01
RMM:   8    -0.741406422669E+03   -0.16283E-04   -0.85377E-05  7876   0.177E-02
  37 F= -.74140642E+03 E0= -.74079583E+03  d E =-.255665E-01  mag=    -0.0000
 trial-energy change:   -0.025567  1 .order   -0.025272   -0.052537    0.001994
 step:   0.0485(harm=  0.0485)  dis= 0.00344  next Energy=  -741.406164 (dE=-0.253E-01)
 bond charge predicted
       N       E                     dE             d eps       ncg     rms          rms(c)
DAV:   1    -0.741406437965E+03   -0.31579E-04   -0.16221E-03 14784   0.666E-02    0.133E-01
RMM:   2    -0.741408092058E+03   -0.16541E-02   -0.37517E-04 10442   0.283E-02    0.505E-01
RMM:   3    -0.741407061650E+03    0.10304E-02   -0.27331E-04  9201   0.326E-02    0.327E-01
RMM:   4    -0.741406471592E+03    0.59006E-03   -0.97218E-05  7248   0.190E-02    0.141E-01
RMM:   5    -0.741406420827E+03    0.50765E-04   -0.32831E-05  7114   0.119E-02    0.834E-02
RMM:   6    -0.741406393370E+03    0.27457E-04   -0.16137E-05  6720   0.807E-03    0.259E-02
RMM:   7    -0.741406394926E+03   -0.15567E-05   -0.43323E-06  5925   0.458E-03    0.237E-02
RMM:   8    -0.741406396104E+03   -0.11774E-05   -0.43544E-07  2532   0.269E-03
  38 F= -.74140640E+03 E0= -.74079560E+03  d E =-.255400E-01  mag=    -0.0000
 curvature:  -0.07 expect dE=-0.562E-01 dE for cont linesearch -0.483E-06
 trial: gam= 0.68085 g(F)=  0.836E+00 g(S)=  0.000E+00 ort =-0.455E-02 (trialstep = 0.500E-01)
 search vector abs. value=  0.217E+01
 bond charge predicted
       N       E                     dE             d eps       ncg     rms          rms(c)
DAV:   1    -0.741435172512E+03   -0.28778E-01   -0.67270E-01 13760   0.128E+00    0.180E-01
RMM:   2    -0.741437243270E+03   -0.20708E-02   -0.12814E-02 13440   0.214E-01    0.497E-01
RMM:   3    -0.741436610093E+03    0.63318E-03   -0.22805E-03 14674   0.863E-02    0.236E-01
RMM:   4    -0.741437853901E+03   -0.12438E-02   -0.52542E-04 12149   0.399E-02    0.498E-01
RMM:   5    -0.741436717091E+03    0.11368E-02   -0.18868E-04  8208   0.276E-02    0.268E-01
RMM:   6    -0.741436587868E+03    0.12922E-03   -0.13809E-04  8008   0.217E-02    0.175E-01
RMM:   7    -0.741436548805E+03    0.39063E-04   -0.12820E-04  7878   0.200E-02    0.112E-01
RMM:   8    -0.741436544336E+03    0.44688E-05   -0.55339E-05  7614   0.150E-02
  39 F= -.74143654E+03 E0= -.74082598E+03  d E =-.301482E-01  mag=    -0.0000
 trial-energy change:   -0.030148  1 .order   -0.030168   -0.041661   -0.018676
 step:   0.0906(harm=  0.0906)  dis= 0.00503  next Energy=  -741.444151 (dE=-0.378E-01)
 bond charge predicted
       N       E                     dE             d eps       ncg     rms          rms(c)
DAV:   1    -0.741444700341E+03   -0.81515E-02   -0.44348E-01 13856   0.104E+00    0.179E-01
RMM:   2    -0.741445600727E+03   -0.90039E-03   -0.85592E-03 13440   0.175E-01    0.187E-01
RMM:   3    -0.741446595236E+03   -0.99451E-03   -0.15530E-03 14126   0.728E-02    0.418E-01
RMM:   4    -0.741445723116E+03    0.87212E-03   -0.37786E-04  9768   0.345E-02    0.168E-01
RMM:   5    -0.741446160587E+03   -0.43747E-03   -0.18237E-04  8454   0.256E-02    0.319E-01
RMM:   6    -0.741445853930E+03    0.30666E-03   -0.11854E-04  7911   0.213E-02    0.168E-01
RMM:   7    -0.741445672036E+03    0.18189E-03   -0.82024E-05  7742   0.156E-02    0.706E-02
RMM:   8    -0.741445675138E+03   -0.31022E-05   -0.28802E-05  7292   0.115E-02
  40 F= -.74144568E+03 E0= -.74083519E+03  d E =-.392790E-01  mag=    -0.0000
 curvature:  -0.12 expect dE=-0.902E-01 dE for cont linesearch -0.513E-03
 trial: gam= 0.62791 g(F)=  0.764E+00 g(S)=  0.000E+00 ort = 0.971E-01 (trialstep = 0.581E-01)
 search vector abs. value=  0.174E+01
 bond charge predicted
       N       E                     dE             d eps       ncg     rms          rms(c)
DAV:   1    -0.741477065020E+03   -0.31393E-01   -0.65878E-01 13632   0.126E+00    0.188E-01
RMM:   2    -0.741478614674E+03   -0.15497E-02   -0.12043E-02 13440   0.210E-01    0.428E-01
RMM:   3    -0.741478401820E+03    0.21285E-03   -0.22410E-03 14667   0.847E-02    0.209E-01
RMM:   4    -0.741479331415E+03   -0.92959E-03   -0.52933E-04 11574   0.389E-02    0.423E-01
RMM:   5    -0.741478396590E+03    0.93483E-03   -0.21576E-04  8430   0.278E-02    0.196E-01
RMM:   6    -0.741478415342E+03   -0.18752E-04   -0.15392E-04  8179   0.237E-02    0.170E-01
RMM:   7    -0.741478366074E+03    0.49268E-04   -0.12745E-04  7941   0.202E-02    0.827E-02
RMM:   8    -0.741478345808E+03    0.20266E-04   -0.60202E-05  7708   0.144E-02
  41 F= -.74147835E+03 E0= -.74086772E+03  d E =-.326707E-01  mag=    -0.0000
 trial-energy change:   -0.032671  1 .order   -0.032473   -0.047966   -0.016979
 step:   0.0900(harm=  0.0900)  dis= 0.00506  next Energy=  -741.482799 (dE=-0.371E-01)
 bond charge predicted
       N       E                     dE             d eps       ncg     rms          rms(c)
DAV:   1    -0.741482663308E+03   -0.42972E-02   -0.19738E-01 13888   0.691E-01    0.125E-01
RMM:   2    -0.741483341981E+03   -0.67867E-03   -0.36283E-03 13440   0.115E-01    0.256E-01
RMM:   3    -0.741483201907E+03    0.14007E-03   -0.71990E-04 12840   0.478E-02    0.174E-01
RMM:   4    -0.741483085285E+03    0.11662E-03   -0.15410E-04  8266   0.234E-02    0.810E-02
RMM:   5    -0.741483152732E+03   -0.67447E-04   -0.87756E-05  7773   0.194E-02    0.143E-01
RMM:   6    -0.741483126826E+03    0.25907E-04   -0.48880E-05  7630   0.142E-02    0.869E-02
RMM:   7    -0.741483102967E+03    0.23859E-04   -0.34678E-05  7395   0.106E-02    0.635E-02
RMM:   8    -0.741483087265E+03    0.15702E-04   -0.13522E-05  6712   0.760E-03
  42 F= -.74148309E+03 E0= -.74087244E+03  d E =-.374121E-01  mag=    -0.0000
 curvature:  -0.09 expect dE=-0.114E+00 dE for cont linesearch -0.108E-04
 trial: gam= 1.67332 g(F)=  0.120E+01 g(S)=  0.000E+00 ort = 0.141E-01 (trialstep = 0.184E-01)
 search vector abs. value=  0.612E+01
 bond charge predicted
       N       E                     dE             d eps       ncg     rms          rms(c)
DAV:   1    -0.741501819657E+03   -0.18717E-01   -0.19944E-01 13952   0.693E-01    0.109E-01
RMM:   2    -0.741502251265E+03   -0.43161E-03   -0.37725E-03 13440   0.120E-01    0.191E-01
RMM:   3    -0.741502256566E+03   -0.53010E-05   -0.71588E-04 12701   0.469E-02    0.102E-01
RMM:   4    -0.741502663700E+03   -0.40713E-03   -0.17555E-04  8146   0.243E-02    0.285E-01
RMM:   5    -0.741502327963E+03    0.33574E-03   -0.77997E-05  7790   0.199E-02    0.162E-01
RMM:   6    -0.741502236529E+03    0.91433E-04   -0.51494E-05  7632   0.127E-02    0.843E-02
RMM:   7    -0.741502222782E+03    0.13747E-04   -0.44152E-05  7484   0.119E-02    0.408E-02
RMM:   8    -0.741502222483E+03    0.29940E-06   -0.19453E-05  6706   0.865E-03
  43 F= -.74150222E+03 E0= -.74089165E+03  d E =-.191352E-01  mag=    -0.0000
 trial-energy change:   -0.019135  1 .order   -0.019131   -0.022380   -0.015882
 step:   0.0632(harm=  0.0632)  dis= 0.00625  next Energy=  -741.521627 (dE=-0.385E-01)
 bond charge predicted
       N       E                     dE             d eps       ncg     rms          rms(c)
DAV:   1    -0.741521716577E+03   -0.19494E-01   -0.11909E+00 13472   0.169E+00    0.267E-01
RMM:   2    -0.741524958313E+03   -0.32417E-02   -0.22496E-02 13440   0.294E-01    0.583E-01
RMM:   3    -0.741524191712E+03    0.76660E-03   -0.43846E-03 14809   0.115E-01    0.222E-01
RMM:   4    -0.741526272369E+03   -0.20807E-02   -0.10078E-03 13358   0.562E-02    0.627E-01
RMM:   5    -0.741524639752E+03    0.16326E-02   -0.36475E-04 10999   0.377E-02    0.365E-01
RMM:   6    -0.741524280599E+03    0.35915E-03   -0.30325E-04  9838   0.306E-02    0.212E-01
RMM:   7    -0.741524126549E+03    0.15405E-03   -0.26983E-04  9648   0.282E-02    0.864E-02
RMM:   8    -0.741524126943E+03   -0.39388E-06   -0.91991E-05  7951   0.180E-02
  44 F= -.74152413E+03 E0= -.74091337E+03  d E =-.410397E-01  mag=    -0.0000
 curvature:  -0.16 expect dE=-0.109E+00 dE for cont linesearch -0.282E-03
 trial: gam= 0.66544 g(F)=  0.688E+00 g(S)=  0.000E+00 ort = 0.104E+00 (trialstep = 0.273E-01)
 search vector abs. value=  0.354E+01
 bond charge predicted
       N       E                     dE             d eps       ncg     rms          rms(c)
DAV:   1    -0.741542575588E+03   -0.18449E-01   -0.16501E-01 14080   0.622E-01    0.155E-01
RMM:   2    -0.741544988722E+03   -0.24131E-02   -0.29659E-03 13440   0.102E-01    0.544E-01
RMM:   3    -0.741543371233E+03    0.16175E-02   -0.71593E-04 12706   0.492E-02    0.336E-01
RMM:   4    -0.741543074325E+03    0.29691E-03   -0.23695E-04  8882   0.271E-02    0.218E-01
RMM:   5    -0.741543064327E+03    0.99985E-05   -0.81771E-05  7829   0.191E-02    0.195E-01
RMM:   6    -0.741542900593E+03    0.16373E-03   -0.88069E-05  7690   0.161E-02    0.102E-01
RMM:   7    -0.741542879454E+03    0.21139E-04   -0.51228E-05  7552   0.144E-02    0.518E-02
RMM:   8    -0.741542868607E+03    0.10847E-04   -0.13251E-05  6686   0.742E-03
  45 F= -.74154287E+03 E0= -.74093218E+03  d E =-.187417E-01  mag=    -0.0000
 ZBRENT: can't locate minimum, use default step
 trial-energy change:   -0.018742  1 .order   -0.018697   -0.020702   -0.016691
 step:   0.1093(harm=  0.1411)  dis= 0.00630  next Energy=  -741.577554 (dE=-0.534E-01)
 bond charge predicted
       N       E                     dE             d eps       ncg     rms          rms(c)
DAV:   1    -0.741576256991E+03   -0.33378E-01   -0.14822E+00 13472   0.186E+00    0.331E-01
RMM:   2    -0.741579870468E+03   -0.36135E-02   -0.24509E-02 13440   0.297E-01    0.547E-01
RMM:   3    -0.741580430058E+03   -0.55959E-03   -0.53438E-03 14869   0.122E-01    0.623E-01
RMM:   4    -0.741578691648E+03    0.17384E-02   -0.99690E-04 13219   0.545E-02    0.232E-01
RMM:   5    -0.741579822286E+03   -0.11306E-02   -0.52613E-04 12074   0.400E-02    0.484E-01
RMM:   6    -0.741578814029E+03    0.10083E-02   -0.51170E-04 11528   0.403E-02    0.217E-01
RMM:   7    -0.741578780822E+03    0.33207E-04   -0.42019E-04 10503   0.325E-02    0.141E-01
RMM:   8    -0.741578669522E+03    0.11130E-03   -0.11487E-04  8035   0.202E-02    0.722E-02
RMM:   9    -0.741578663658E+03    0.58641E-05   -0.25879E-05  7406   0.104E-02
  46 F= -.74157866E+03 E0= -.74096795E+03  d E =-.545367E-01  mag=    -0.0000
 curvature:  -0.30 expect dE=-0.217E+00 dE for cont linesearch -0.225E-02
 ZBRENT: extrapolating
 opt :   0.1389  next Energy=  -741.581061 (dE=-0.569E-01)
 bond charge predicted
       N       E                     dE             d eps       ncg     rms          rms(c)
DAV:   1    -0.741578294038E+03    0.37548E-03   -0.19234E-01 14016   0.670E-01    0.137E-01
RMM:   2    -0.741580123938E+03   -0.18299E-02   -0.33750E-03 13440   0.109E-01    0.456E-01
RMM:   3    -0.741578900219E+03    0.12237E-02   -0.72954E-04 12839   0.485E-02    0.257E-01
RMM:   4    -0.741578751240E+03    0.14898E-03   -0.21114E-04  8538   0.260E-02    0.167E-01
RMM:   5    -0.741578776815E+03   -0.25574E-04   -0.83289E-05  7863   0.192E-02    0.167E-01
RMM:   6    -0.741578677360E+03    0.99454E-04   -0.85052E-05  7715   0.158E-02    0.854E-02
RMM:   7    -0.741578665121E+03    0.12240E-04   -0.49025E-05  7536   0.137E-02    0.540E-02
RMM:   8    -0.741578657527E+03    0.75941E-05   -0.13215E-05  6690   0.769E-03
  47 F= -.74157866E+03 E0= -.74096800E+03  d E =-.545306E-01  mag=     0.0000
 curvature:  -0.32 expect dE=-0.332E+00 dE for cont linesearch -0.247E-02
 ZBRENT: bracketing found
 ZBRENT: interpolating
 opt :   0.1240  next Energy=  -741.579853 (dE=-0.557E-01)
 bond charge predicted
       N       E                     dE             d eps       ncg     rms          rms(c)
DAV:   1    -0.741579861334E+03   -0.11962E-02   -0.48912E-02 13952   0.338E-01    0.582E-02
RMM:   2    -0.741579985523E+03   -0.12419E-03   -0.81429E-04 12907   0.544E-02    0.123E-01
RMM:   3    -0.741579962561E+03    0.22963E-04   -0.15982E-04  7833   0.228E-02    0.619E-02
RMM:   4    -0.741580015640E+03   -0.53080E-04   -0.46882E-05  7256   0.149E-02    0.120E-01
RMM:   5    -0.741579976355E+03    0.39286E-04   -0.18839E-05  7028   0.856E-03    0.689E-02
RMM:   6    -0.741579962013E+03    0.14342E-04   -0.16105E-05  6692   0.745E-03    0.368E-02
RMM:   7    -0.741579972304E+03   -0.10291E-04   -0.10147E-05  6562   0.576E-03    0.296E-02
RMM:   8    -0.741579973083E+03   -0.77867E-06   -0.35584E-06  5236   0.425E-03
  48 F= -.74157997E+03 E0= -.74096942E+03  d E =-.558461E-01  mag=     0.0000
 curvature:  -0.16 expect dE=-0.130E+00 dE for cont linesearch -0.389E-07
 trial: gam= 0.91847 g(F)=  0.834E+00 g(S)=  0.000E+00 ort = 0.940E-03 (trialstep = 0.432E-01)
 search vector abs. value=  0.382E+01
 bond charge predicted
       N       E                     dE             d eps       ncg     rms          rms(c)
DAV:   1    -0.741601541876E+03   -0.21570E-01   -0.44010E-01 13760   0.105E+00    0.173E-01
RMM:   2    -0.741603884719E+03   -0.23428E-02   -0.82733E-03 13440   0.172E-01    0.557E-01
RMM:   3    -0.741602513222E+03    0.13715E-02   -0.15332E-03 14074   0.714E-02    0.241E-01
RMM:   4    -0.741602647463E+03   -0.13424E-03   -0.38243E-04 10122   0.346E-02    0.245E-01
RMM:   5    -0.741602487976E+03    0.15949E-03   -0.15625E-04  8083   0.247E-02    0.201E-01
RMM:   6    -0.741602430392E+03    0.57584E-04   -0.10957E-04  7809   0.208E-02    0.147E-01
RMM:   7    -0.741602428453E+03    0.19400E-05   -0.99436E-05  7719   0.173E-02    0.845E-02
RMM:   8    -0.741602375863E+03    0.52590E-04   -0.50068E-05  7279   0.132E-02
  49 F= -.74160238E+03 E0= -.74099176E+03  d E =-.224028E-01  mag=     0.0000
 trial-energy change:   -0.022403  1 .order   -0.023376   -0.036078   -0.010674
 step:   0.0729(harm=  0.0614)  dis= 0.00474  next Energy=  -741.605723 (dE=-0.257E-01)
 bond charge predicted
       N       E                     dE             d eps       ncg     rms          rms(c)
DAV:   1    -0.741604445474E+03   -0.20170E-02   -0.20655E-01 13808   0.716E-01    0.130E-01
RMM:   2    -0.741605595211E+03   -0.11497E-02   -0.39066E-03 13434   0.118E-01    0.370E-01
RMM:   3    -0.741604904203E+03    0.69101E-03   -0.73282E-04 12766   0.489E-02    0.156E-01
RMM:   4    -0.741604946186E+03   -0.41983E-04   -0.18298E-04  8277   0.254E-02    0.149E-01
RMM:   5    -0.741604924618E+03    0.21568E-04   -0.88503E-05  7778   0.199E-02    0.132E-01
RMM:   6    -0.741604889530E+03    0.35088E-04   -0.57252E-05  7582   0.147E-02    0.802E-02
RMM:   7    -0.741604889310E+03    0.21923E-06   -0.42667E-05  7349   0.119E-02    0.643E-02
RMM:   8    -0.741604871023E+03    0.18287E-04   -0.18401E-05  6678   0.905E-03
  50 F= -.74160487E+03 E0= -.74099428E+03  d E =-.248979E-01  mag=     0.0000
 curvature:  -0.08 expect dE=-0.137E+00 dE for cont linesearch -0.131E-03
 trial: gam= 1.99394 g(F)=  0.163E+01 g(S)=  0.000E+00 ort =-0.770E-01 (trialstep = 0.114E-01)
 search vector abs. value=  0.165E+02
 bond charge predicted
       N       E                     dE             d eps       ncg     rms          rms(c)
DAV:   1    -0.741620650912E+03   -0.15762E-01   -0.10932E-01 13888   0.512E-01    0.842E-02
RMM:   2    -0.741621577135E+03   -0.92622E-03   -0.20131E-03 13422   0.818E-02    0.335E-01
RMM:   3    -0.741620856508E+03    0.72063E-03   -0.35059E-04  9607   0.352E-02    0.834E-02
RMM:   4    -0.741620892723E+03   -0.36215E-04   -0.11417E-04  7774   0.217E-02    0.844E-02
RMM:   5    -0.741620876111E+03    0.16611E-04   -0.37052E-05  7421   0.130E-02    0.525E-02
RMM:   6    -0.741620880326E+03   -0.42144E-05   -0.21219E-05  7018   0.866E-03    0.335E-02
RMM:   7    -0.741620885252E+03   -0.49265E-05   -0.12781E-05  6638   0.669E-03    0.287E-02
RMM:   8    -0.741620883654E+03    0.15982E-05   -0.52145E-06  6006   0.505E-03
  51 F= -.74162088E+03 E0= -.74101035E+03  d E =-.160126E-01  mag=     0.0000
 ZBRENT: can't locate minimum, use default step
 trial-energy change:   -0.016013  1 .order   -0.015887   -0.016773   -0.015000
 step:   0.0455(harm=  0.1076)  dis= 0.00663  next Energy=  -741.684205 (dE=-0.793E-01)
 bond charge predicted
       N       E                     dE             d eps       ncg     rms          rms(c)
DAV:   1    -0.741650438369E+03   -0.29553E-01   -0.98701E-01 13504   0.154E+00    0.241E-01
RMM:   2    -0.741656288081E+03   -0.58497E-02   -0.17755E-02 13440   0.245E-01    0.800E-01
RMM:   3    -0.741652588149E+03    0.36999E-02   -0.31143E-03 14182   0.103E-01    0.275E-01
RMM:   4    -0.741652668879E+03   -0.80730E-04   -0.98494E-04 13170   0.539E-02    0.250E-01
RMM:   5    -0.741652438699E+03    0.23018E-03   -0.28573E-04  9618   0.323E-02    0.146E-01
RMM:   6    -0.741652435632E+03    0.30673E-05   -0.20065E-04  8449   0.274E-02    0.105E-01
RMM:   7    -0.741652451299E+03   -0.15667E-04   -0.12977E-04  8043   0.207E-02    0.923E-02
RMM:   8    -0.741652416322E+03    0.34977E-04   -0.54824E-05  7650   0.154E-02
  52 F= -.74165242E+03 E0= -.74104193E+03  d E =-.475453E-01  mag=     0.0000
 curvature:  -0.35 expect dE=-0.458E+00 dE for cont linesearch -0.705E-02
 ZBRENT: increasing intervall
 opt :   0.1137  next Energy=  -741.640988 (dE=-0.361E-01)
 bond charge predicted
       N       E                     dE             d eps       ncg     rms          rms(c)
DAV:   1    -0.741661215943E+03   -0.87646E-02   -0.39444E+00 13472   0.308E+00    0.487E-01
RMM:   2    -0.741684507642E+03   -0.23292E-01   -0.71239E-02 13440   0.489E-01    0.159E+00
RMM:   3    -0.741670268981E+03    0.14239E-01   -0.12494E-02 14199   0.206E-01    0.580E-01
RMM:   4    -0.741670194409E+03    0.74572E-04   -0.40186E-03 14342   0.108E-01    0.497E-01
RMM:   5    -0.741669293859E+03    0.90055E-03   -0.11310E-03 12827   0.636E-02    0.297E-01
RMM:   6    -0.741669199059E+03    0.94799E-04   -0.74898E-04 12476   0.492E-02    0.194E-01
RMM:   7    -0.741669278008E+03   -0.78949E-04   -0.54181E-04 11978   0.387E-02    0.181E-01
RMM:   8    -0.741669123762E+03    0.15425E-03   -0.20830E-04  8978   0.275E-02    0.594E-02
RMM:   9    -0.741669118967E+03    0.47949E-05   -0.61262E-05  7941   0.147E-02
  53 F= -.74166912E+03 E0= -.74105871E+03  d E =-.642479E-01  mag=     0.0000
 curvature:   0.57 expect dE= 0.111E+01 dE for cont linesearch  0.140E-01
 ZBRENT: bracketing found
 ZBRENT: interpolating
 opt :   0.0779  next Energy=  -741.661746 (dE=-0.569E-01)
 bond charge predicted
       N       E                     dE             d eps       ncg     rms          rms(c)
DAV:   1    -0.741667539491E+03    0.15843E-02   -0.10875E+00 13664   0.162E+00    0.254E-01
RMM:   2    -0.741674114465E+03   -0.65750E-02   -0.19232E-02 13440   0.254E-01    0.857E-01
RMM:   3    -0.741669810295E+03    0.43042E-02   -0.33255E-03 14088   0.107E-01    0.303E-01
RMM:   4    -0.741669852462E+03   -0.42167E-04   -0.10813E-03 13367   0.565E-02    0.256E-01
RMM:   5    -0.741669611355E+03    0.24111E-03   -0.32199E-04 10250   0.340E-02    0.153E-01
RMM:   6    -0.741669580969E+03    0.30387E-04   -0.23389E-04  8730   0.285E-02    0.104E-01
RMM:   7    -0.741669599354E+03   -0.18386E-04   -0.15241E-04  8178   0.221E-02    0.958E-02
RMM:   8    -0.741669560416E+03    0.38938E-04   -0.58467E-05  7522   0.158E-02
  54 F= -.74166956E+03 E0= -.74105919E+03  d E =-.646894E-01  mag=     0.0000
 curvature:  -0.38 expect dE=-0.535E+00 dE for cont linesearch -0.393E-02
 ZBRENT: bisectioning
 opt :   0.0958  next Energy=  -741.676154 (dE=-0.713E-01)
 bond charge predicted
       N       E                     dE             d eps       ncg     rms          rms(c)
DAV:   1    -0.741673190020E+03   -0.35907E-02   -0.27220E-01 13984   0.808E-01    0.131E-01
RMM:   2    -0.741674840769E+03   -0.16507E-02   -0.48794E-03 13440   0.129E-01    0.437E-01
RMM:   3    -0.741673780300E+03    0.10605E-02   -0.84413E-04 13304   0.547E-02    0.174E-01
RMM:   4    -0.741673755053E+03    0.25246E-04   -0.27795E-04  8982   0.292E-02    0.137E-01
RMM:   5    -0.741673680669E+03    0.74384E-04   -0.89112E-05  7539   0.211E-02    0.714E-02
RMM:   6    -0.741673694837E+03   -0.14167E-04   -0.57974E-05  7346   0.139E-02    0.635E-02
RMM:   7    -0.741673699681E+03   -0.48442E-05   -0.40659E-05  7178   0.122E-02    0.519E-02
RMM:   8    -0.741673687450E+03    0.12230E-04   -0.18346E-05  6562   0.861E-03
  55 F= -.74167369E+03 E0= -.74106326E+03  d E =-.688164E-01  mag=     0.0000
 curvature:  -0.64 expect dE=-0.102E+01 dE for cont linesearch -0.643E-04
 trial: gam= 0.47804 g(F)=  0.161E+01 g(S)=  0.000E+00 ort = 0.408E-01 (trialstep = 0.283E-01)
 search vector abs. value=  0.542E+01
 bond charge predicted
       N       E                     dE             d eps       ncg     rms          rms(c)
DAV:   1    -0.741705666255E+03   -0.31967E-01   -0.32956E-01 13888   0.920E-01    0.146E-01
RMM:   2    -0.741706422993E+03   -0.75674E-03   -0.66938E-03 13440   0.156E-01    0.294E-01
RMM:   3    -0.741706441329E+03   -0.18336E-04   -0.11190E-03 13488   0.612E-02    0.204E-01
RMM:   4    -0.741707150842E+03   -0.70951E-03   -0.28322E-04  9208   0.295E-02    0.376E-01
RMM:   5    -0.741706418456E+03    0.73239E-03   -0.88546E-05  7796   0.209E-02    0.169E-01
RMM:   6    -0.741706443684E+03   -0.25227E-04   -0.83247E-05  7670   0.141E-02    0.127E-01
RMM:   7    -0.741706478958E+03   -0.35274E-04   -0.52230E-05  7468   0.141E-02    0.122E-01
RMM:   8    -0.741706454181E+03    0.24777E-04   -0.27296E-05  7204   0.105E-02
  56 F= -.74170645E+03 E0= -.74109612E+03  d E =-.327667E-01  mag=     0.0000
 trial-energy change:   -0.032767  1 .order   -0.032416   -0.045938   -0.018893
 step:   0.0480(harm=  0.0480)  dis= 0.00434  next Energy=  -741.712702 (dE=-0.390E-01)
 bond charge predicted
       N       E                     dE             d eps       ncg     rms          rms(c)
DAV:   1    -0.741712683916E+03   -0.62050E-02   -0.16075E-01 13808   0.643E-01    0.145E-01
RMM:   2    -0.741713047660E+03   -0.36374E-03   -0.34123E-03 13436   0.111E-01    0.190E-01
RMM:   3    -0.741713056992E+03   -0.93322E-05   -0.55572E-04 11600   0.436E-02    0.126E-01
RMM:   4    -0.741713676736E+03   -0.61974E-03   -0.18804E-04  8251   0.246E-02    0.321E-01
RMM:   5    -0.741713155044E+03    0.52169E-03   -0.77792E-05  7694   0.192E-02    0.164E-01
RMM:   6    -0.741713093882E+03    0.61162E-04   -0.43677E-05  7448   0.114E-02    0.103E-01
RMM:   7    -0.741713098525E+03   -0.46427E-05   -0.35761E-05  7141   0.108E-02    0.510E-02
RMM:   8    -0.741713086160E+03    0.12365E-04   -0.13031E-05  6579   0.762E-03
  57 F= -.74171309E+03 E0= -.74110261E+03  d E =-.393987E-01  mag=     0.0000
 curvature:  -0.08 expect dE=-0.909E-01 dE for cont linesearch -0.634E-05
 trial: gam= 0.53577 g(F)=  0.114E+01 g(S)=  0.000E+00 ort = 0.207E-01 (trialstep = 0.322E-01)
 search vector abs. value=  0.271E+01
 bond charge predicted
       N       E                     dE             d eps       ncg     rms          rms(c)
DAV:   1    -0.741740150798E+03   -0.27052E-01   -0.36301E-01 13584   0.997E-01    0.172E-01
RMM:   2    -0.741741109898E+03   -0.95910E-03   -0.78860E-03 13440   0.171E-01    0.296E-01
[...]
DAV:   1    -0.741883182697E+03   -0.50995E-04   -0.36627E-03 13792   0.978E-02    0.158E-02
RMM:   2    -0.741883193296E+03   -0.10599E-04   -0.76408E-05  7300   0.169E-02    0.340E-02
RMM:   3    -0.741883189957E+03    0.33391E-05   -0.10851E-05  7098   0.791E-03    0.164E-02
RMM:   4    -0.741883199280E+03   -0.93224E-05   -0.28644E-06  5240   0.373E-03    0.405E-02
RMM:   5    -0.741883189879E+03    0.94007E-05   -0.90505E-07  3431   0.316E-03    0.145E-02
RMM:   6    -0.741883190999E+03   -0.11196E-05   -0.17739E-07  1822   0.264E-03    0.121E-02
RMM:   7    -0.741883191450E+03   -0.45195E-06   -0.14587E-07  1743   0.262E-03    0.116E-02
RMM:   8    -0.741883191368E+03    0.82466E-07   -0.37853E-09  1242   0.257E-03
 129 F= -.74188319E+03 E0= -.74127433E+03  d E =-.661721E-03  mag=    -0.0000
 curvature:  -0.09 expect dE=-0.120E-02 dE for cont linesearch -0.839E-06
 trial: gam= 0.47537 g(F)=  0.131E-01 g(S)=  0.000E+00 ort =-0.624E-03 (trialstep = 0.564E-01)
 search vector abs. value=  0.222E-01
 bond charge predicted
       N       E                     dE             d eps       ncg     rms          rms(c)
DAV:   1    -0.741883632948E+03   -0.44150E-03   -0.87242E-03 14016   0.154E-01    0.247E-02
RMM:   2    -0.741883657409E+03   -0.24461E-04   -0.19533E-04  7650   0.276E-02    0.605E-02
RMM:   3    -0.741883652517E+03    0.48921E-05   -0.27991E-05  7158   0.127E-02    0.274E-02
RMM:   4    -0.741883680116E+03   -0.27599E-04   -0.92137E-06  7096   0.581E-03    0.722E-02
RMM:   5    -0.741883650677E+03    0.29439E-04   -0.43706E-06  6100   0.469E-03    0.210E-02
RMM:   6    -0.741883653140E+03   -0.24625E-05   -0.72829E-07  3094   0.280E-03    0.238E-02
RMM:   7    -0.741883653743E+03   -0.60356E-06   -0.99607E-08  1852   0.264E-03    0.209E-02
RMM:   8    -0.741883654154E+03   -0.41054E-06   -0.44346E-07  2185   0.295E-03
 130 F= -.74188365E+03 E0= -.74127480E+03  d E =-.462786E-03  mag=    -0.0000
 trial-energy change:   -0.000463  1 .order   -0.000464   -0.000721   -0.000207
 step:   0.0791(harm=  0.0791)  dis= 0.00097  next Energy=  -741.883697 (dE=-0.506E-03)
 bond charge predicted
       N       E                     dE             d eps       ncg     rms          rms(c)
DAV:   1    -0.741883687226E+03   -0.33482E-04   -0.13742E-03 13408   0.616E-02    0.196E-02
RMM:   2    -0.741883720739E+03   -0.33514E-04   -0.37275E-05  7196   0.119E-02    0.716E-02
RMM:   3    -0.741883691278E+03    0.29461E-04   -0.79787E-06  7120   0.657E-03    0.266E-02
RMM:   4    -0.741883690962E+03    0.31654E-06   -0.83316E-07  3262   0.306E-03    0.139E-02
RMM:   5    -0.741883692525E+03   -0.15632E-05   -0.37823E-07  2588   0.288E-03    0.162E-02
RMM:   6    -0.741883691563E+03    0.96189E-06   -0.28555E-08  1672   0.267E-03    0.132E-02
RMM:   7    -0.741883691461E+03    0.10153E-06   -0.97392E-10  1378   0.252E-03    0.939E-03
RMM:   8    -0.741883691157E+03    0.30420E-06   -0.66316E-10  1132   0.251E-03
 131 F= -.74188369E+03 E0= -.74127487E+03  d E =-.499789E-03  mag=    -0.0000
 curvature:  -0.07 expect dE=-0.883E-03 dE for cont linesearch -0.140E-06
 trial: gam= 0.97109 g(F)=  0.129E-01 g(S)=  0.000E+00 ort =-0.213E-03 (trialstep = 0.404E-01)
 search vector abs. value=  0.334E-01
 bond charge predicted
       N       E                     dE             d eps       ncg     rms          rms(c)
DAV:   1    -0.741883996033E+03   -0.30457E-03   -0.70326E-03 14208   0.138E-01    0.201E-02
RMM:   2    -0.741884019743E+03   -0.23710E-04   -0.15330E-04  7498   0.246E-02    0.553E-02
RMM:   3    -0.741884010770E+03    0.89738E-05   -0.21874E-05  7148   0.113E-02    0.240E-02
RMM:   4    -0.741884015844E+03   -0.50742E-05   -0.53954E-06  6844   0.490E-03    0.345E-02
RMM:   5    -0.741884012737E+03    0.31068E-05   -0.20695E-06  4974   0.364E-03    0.269E-02
RMM:   6    -0.741884012283E+03    0.45379E-06   -0.30382E-07  2388   0.280E-03    0.187E-02
RMM:   7    -0.741884012417E+03   -0.13349E-06   -0.43065E-07  2486   0.289E-03    0.141E-02
RMM:   8    -0.741884012454E+03   -0.37675E-07   -0.26941E-07  1912   0.287E-03
 132 F= -.74188401E+03 E0= -.74127519E+03  d E =-.321297E-03  mag=     0.0000
 trial-energy change:   -0.000321  1 .order   -0.000327   -0.000513   -0.000140
 step:   0.0556(harm=  0.0556)  dis= 0.00079  next Energy=  -741.884044 (dE=-0.353E-03)
 bond charge predicted
       N       E                     dE             d eps       ncg     rms          rms(c)
DAV:   1    -0.741884028666E+03   -0.16249E-04   -0.95753E-04 13472   0.513E-02    0.126E-02
RMM:   2    -0.741884043462E+03   -0.14796E-04   -0.24966E-05  7174   0.980E-03    0.446E-02
RMM:   3    -0.741884030073E+03    0.13389E-04   -0.41780E-06  6838   0.491E-03    0.120E-02
RMM:   4    -0.741884031599E+03   -0.15259E-05   -0.47057E-08  1706   0.243E-03    0.116E-02
RMM:   5    -0.741884031741E+03   -0.14242E-06   -0.17145E-08  1594   0.228E-03    0.867E-03
RMM:   6    -0.741884031861E+03   -0.12020E-06   -0.31183E-09  1272   0.224E-03    0.873E-03
RMM:   7    -0.741884031519E+03    0.34211E-06    0.00000E+00  1180   0.222E-03    0.321E-03
RMM:   8    -0.741884031574E+03   -0.54752E-07    0.00000E+00   976   0.220E-03
 133 F= -.74188403E+03 E0= -.74127522E+03  d E =-.340417E-03  mag=     0.0000
 curvature:  -0.07 expect dE=-0.645E-03 dE for cont linesearch -0.118E-05
 trial: gam= 0.74695 g(F)=  0.882E-02 g(S)=  0.000E+00 ort =-0.735E-03 (trialstep = 0.435E-01)
 search vector abs. value=  0.263E-01
 bond charge predicted
       N       E                     dE             d eps       ncg     rms          rms(c)
DAV:   1    -0.741884312957E+03   -0.28144E-03   -0.55599E-03 14112   0.121E-01    0.164E-02
RMM:   2    -0.741884325779E+03   -0.12822E-04   -0.11561E-04  7286   0.209E-02    0.345E-02
RMM:   3    -0.741884324913E+03    0.86638E-06   -0.16276E-05  7134   0.975E-03    0.163E-02
RMM:   4    -0.741884330812E+03   -0.58994E-05   -0.41661E-06  6242   0.428E-03    0.356E-02
RMM:   5    -0.741884324245E+03    0.65667E-05   -0.97694E-07  3678   0.325E-03    0.144E-02
RMM:   6    -0.741884325411E+03   -0.11661E-05   -0.38792E-07  2308   0.281E-03    0.125E-02
RMM:   7    -0.741884326068E+03   -0.65624E-06   -0.37862E-07  2213   0.271E-03    0.135E-02
RMM:   8    -0.741884325231E+03    0.83703E-06   -0.15144E-07  1481   0.258E-03
 134 F= -.74188433E+03 E0= -.74127553E+03  d E =-.293656E-03  mag=     0.0000
 trial-energy change:   -0.000294  1 .order   -0.000292   -0.000360   -0.000224
 step:   0.1155(harm=  0.1155)  dis= 0.00123  next Energy=  -741.884510 (dE=-0.478E-03)
 bond charge predicted
       N       E                     dE             d eps       ncg     rms          rms(c)
DAV:   1    -0.741884485186E+03   -0.15912E-03   -0.15165E-02 13632   0.201E-01    0.268E-02
RMM:   2    -0.741884516786E+03   -0.31600E-04   -0.31322E-04  8379   0.342E-02    0.437E-02
RMM:   3    -0.741884517038E+03   -0.25203E-06   -0.44937E-05  7098   0.155E-02    0.174E-02
RMM:   4    -0.741884529997E+03   -0.12959E-04   -0.10879E-05  7138   0.698E-03    0.469E-02
RMM:   5    -0.741884520614E+03    0.93822E-05   -0.39458E-06  6098   0.438E-03    0.288E-02
RMM:   6    -0.741884519310E+03    0.13044E-05   -0.96407E-07  3178   0.298E-03    0.160E-02
RMM:   7    -0.741884519735E+03   -0.42553E-06   -0.76098E-07  2992   0.304E-03    0.106E-02
RMM:   8    -0.741884519752E+03   -0.16400E-07   -0.25260E-07  1904   0.287E-03
 135 F= -.74188452E+03 E0= -.74127574E+03  d E =-.488178E-03  mag=     0.0000
 curvature:  -0.18 expect dE=-0.198E-02 dE for cont linesearch -0.177E-06
 trial: gam= 0.87467 g(F)=  0.108E-01 g(S)=  0.000E+00 ort = 0.159E-03 (trialstep = 0.489E-01)
 search vector abs. value=  0.312E-01
 bond charge predicted
       N       E                     dE             d eps       ncg     rms          rms(c)
DAV:   1    -0.741884938312E+03   -0.41858E-03   -0.62056E-03 14080   0.128E-01    0.214E-02
RMM:   2    -0.741884953828E+03   -0.15516E-04   -0.13909E-04  7478   0.227E-02    0.396E-02
RMM:   3    -0.741884950931E+03    0.28968E-05   -0.20145E-05  7072   0.105E-02    0.192E-02
RMM:   4    -0.741884969885E+03   -0.18954E-04   -0.68324E-06  6822   0.506E-03    0.581E-02
RMM:   5    -0.741884951503E+03    0.18382E-04   -0.28771E-06  5502   0.403E-03    0.220E-02
RMM:   6    -0.741884951574E+03   -0.70577E-07   -0.38061E-07  2665   0.279E-03    0.142E-02
RMM:   7    -0.741884952445E+03   -0.87178E-06   -0.27924E-07  2129   0.278E-03    0.101E-02
RMM:   8    -0.741884952088E+03    0.35723E-06   -0.23690E-07  1928   0.278E-03
 136 F= -.74188495E+03 E0= -.74127618E+03  d E =-.432336E-03  mag=     0.0000
 trial-energy change:   -0.000432  1 .order   -0.000433   -0.000533   -0.000332
 step:   0.1299(harm=  0.1299)  dis= 0.00151  next Energy=  -741.885228 (dE=-0.708E-03)
 bond charge predicted
       N       E                     dE             d eps       ncg     rms          rms(c)
DAV:   1    -0.741885185634E+03   -0.23319E-03   -0.16996E-02 13952   0.211E-01    0.350E-02
RMM:   2    -0.741885225227E+03   -0.39593E-04   -0.37566E-04  9056   0.374E-02    0.583E-02
RMM:   3    -0.741885220966E+03    0.42608E-05   -0.58903E-05  7184   0.166E-02    0.275E-02
RMM:   4    -0.741885261992E+03   -0.41026E-04   -0.17694E-05  7120   0.857E-03    0.878E-02
RMM:   5    -0.741885227554E+03    0.34438E-04   -0.77104E-06  6716   0.595E-03    0.392E-02
RMM:   6    -0.741885224326E+03    0.32284E-05   -0.32067E-06  5180   0.385E-03    0.285E-02
RMM:   7    -0.741885225452E+03   -0.11260E-05   -0.15421E-06  4016   0.334E-03    0.191E-02
RMM:   8    -0.741885223878E+03    0.15738E-05   -0.67192E-07  2832   0.307E-03
 137 F= -.74188522E+03 E0= -.74127644E+03  d E =-.704126E-03  mag=     0.0000
 curvature:  -0.19 expect dE=-0.156E-02 dE for cont linesearch -0.290E-05
 trial: gam= 0.65967 g(F)=  0.840E-02 g(S)=  0.000E+00 ort =-0.698E-03 (trialstep = 0.651E-01)
 search vector abs. value=  0.211E-01
 bond charge predicted
       N       E                     dE             d eps       ncg     rms          rms(c)
DAV:   1    -0.741885455383E+03   -0.22993E-03   -0.83940E-03 14080   0.151E-01    0.253E-02
RMM:   2    -0.741885478302E+03   -0.22919E-04   -0.18265E-04  7648   0.271E-02    0.512E-02
RMM:   3    -0.741885473244E+03    0.50582E-05   -0.26945E-05  7166   0.125E-02    0.264E-02
RMM:   4    -0.741885489239E+03   -0.15995E-04   -0.80916E-06  7074   0.575E-03    0.527E-02
RMM:   5    -0.741885473855E+03    0.15384E-04   -0.39161E-06  6048   0.440E-03    0.237E-02
RMM:   6    -0.741885475819E+03   -0.19637E-05   -0.14905E-06  3756   0.318E-03    0.234E-02
RMM:   7    -0.741885474925E+03    0.89347E-06   -0.65665E-07  2980   0.303E-03    0.987E-03
RMM:   8    -0.741885475080E+03   -0.15459E-06   -0.18022E-07  1816   0.282E-03
 138 F= -.74188548E+03 E0= -.74127669E+03  d E =-.251202E-03  mag=     0.0000
 trial-energy change:   -0.000251  1 .order   -0.000249   -0.000517    0.000019
 step:   0.0629(harm=  0.0629)  dis= 0.00066  next Energy=  -741.885473 (dE=-0.250E-03)
 bond charge predicted
       N       E                     dE             d eps       ncg     rms          rms(c)
DAV:   1    -0.741885475647E+03   -0.72226E-06   -0.14153E-05  7648   0.669E-03    0.671E-03
RMM:   2    -0.741885477523E+03   -0.18757E-05   -0.18493E-06  5478   0.365E-03    0.158E-02
RMM:   3    -0.741885477225E+03    0.29791E-06   -0.44243E-09  1460   0.218E-03    0.140E-02
RMM:   4    -0.741885475699E+03    0.15268E-05   -0.40914E-10  1084   0.211E-03    0.461E-03
RMM:   5    -0.741885476062E+03   -0.36324E-06    0.00000E+00   980   0.200E-03    0.431E-03
RMM:   6    -0.741885476128E+03   -0.66735E-07    0.00000E+00   926   0.196E-03    0.447E-03
RMM:   7    -0.741885476412E+03   -0.28315E-06    0.00000E+00  1014   0.209E-03    0.275E-03
RMM:   8    -0.741885476395E+03    0.16509E-07   -0.23351E-09   981   0.214E-03
 139 F= -.74188548E+03 E0= -.74127670E+03  d E =-.252517E-03  mag=     0.0000
 curvature:  -0.08 expect dE=-0.547E-03 dE for cont linesearch -0.119E-07
 trial: gam= 0.62292 g(F)=  0.656E-02 g(S)=  0.000E+00 ort =-0.547E-04 (trialstep = 0.647E-01)
 search vector abs. value=  0.147E-01
 bond charge predicted
       N       E                     dE             d eps       ncg     rms          rms(c)
DAV:   1    -0.741885582030E+03   -0.10562E-03   -0.76270E-03 14048   0.145E-01    0.210E-02
RMM:   2    -0.741885601051E+03   -0.19021E-04   -0.16311E-04  7434   0.259E-02    0.481E-02
RMM:   3    -0.741885597968E+03    0.30829E-05   -0.22721E-05  7142   0.117E-02    0.217E-02
RMM:   4    -0.741885618509E+03   -0.20540E-04   -0.76198E-06  7080   0.527E-03    0.615E-02
RMM:   5    -0.741885596828E+03    0.21681E-04   -0.30227E-06  5796   0.419E-03    0.178E-02
RMM:   6    -0.741885598997E+03   -0.21697E-05   -0.47112E-07  2480   0.264E-03    0.174E-02
RMM:   7    -0.741885599417E+03   -0.41906E-06   -0.29136E-07  2246   0.267E-03    0.149E-02
RMM:   8    -0.741885599139E+03    0.27710E-06   -0.48261E-08  1538   0.265E-03
 140 F= -.74188560E+03 E0= -.74127683E+03  d E =-.122744E-03  mag=     0.0000
 trial-energy change:   -0.000123  1 .order   -0.000127   -0.000422    0.000169
 step:   0.0462(harm=  0.0462)  dis= 0.00040  next Energy=  -741.885627 (dE=-0.151E-03)
 bond charge predicted
       N       E                     dE             d eps       ncg     rms          rms(c)
DAV:   1    -0.741885624110E+03   -0.24693E-04   -0.65537E-04 13408   0.424E-02    0.976E-03
RMM:   2    -0.741885631606E+03   -0.74960E-05   -0.15019E-05  7176   0.761E-03    0.337E-02
RMM:   3    -0.741885627339E+03    0.42669E-05   -0.25828E-06  6098   0.402E-03    0.217E-02
RMM:   4    -0.741885624943E+03    0.23961E-05   -0.10704E-07  1418   0.207E-03    0.684E-03
RMM:   5    -0.741885625307E+03   -0.36439E-06   -0.96710E-10   938   0.188E-03    0.623E-03
RMM:   6    -0.741885625465E+03   -0.15770E-06   -0.81358E-09   852   0.191E-03    0.777E-03
RMM:   7    -0.741885625316E+03    0.14865E-06   -0.15798E-08   991   0.202E-03    0.387E-03
RMM:   8    -0.741885625352E+03   -0.35878E-07   -0.98120E-09   911   0.205E-03
 141 F= -.74188563E+03 E0= -.74127685E+03  d E =-.148957E-03  mag=     0.0000
 curvature:  -0.05 expect dE=-0.144E-03 dE for cont linesearch -0.104E-06
 trial: gam= 0.41206 g(F)=  0.277E-02 g(S)=  0.000E+00 ort =-0.171E-03 (trialstep = 0.610E-01)
 search vector abs. value=  0.512E-02
 bond charge predicted
       N       E                     dE             d eps       ncg     rms          rms(c)
DAV:   1    -0.741885722310E+03   -0.96994E-04   -0.23565E-03 13440   0.803E-02    0.126E-02
RMM:   2    -0.741885728286E+03   -0.59760E-05   -0.52481E-05  7080   0.143E-02    0.308E-02
RMM:   3    -0.741885726493E+03    0.17928E-05   -0.74052E-06  7054   0.678E-03    0.113E-02
RMM:   4    -0.741885731866E+03   -0.53733E-05   -0.24350E-07  2136   0.290E-03    0.286E-02
RMM:   5    -0.741885725921E+03    0.59453E-05   -0.40733E-08  1642   0.273E-03    0.782E-03
RMM:   6    -0.741885727011E+03   -0.10895E-05   -0.11670E-08  1346   0.270E-03    0.719E-03
RMM:   7    -0.741885727029E+03   -0.18685E-07   -0.12601E-08  1266   0.280E-03    0.522E-03
RMM:   8    -0.741885726964E+03    0.65374E-07   -0.38356E-08  1066   0.287E-03
 142 F= -.74188573E+03 E0= -.74127695E+03  d E =-.101612E-03  mag=     0.0000
 trial-energy change:   -0.000102  1 .order   -0.000105   -0.000165   -0.000044
 step:   0.0834(harm=  0.0834)  dis= 0.00053  next Energy=  -741.885738 (dE=-0.113E-03)
 bond charge predicted
       N       E                     dE             d eps       ncg     rms          rms(c)
DAV:   1    -0.741885732979E+03   -0.59494E-05   -0.31003E-04 12864   0.293E-02    0.575E-03
RMM:   2    -0.741885734156E+03   -0.11771E-05   -0.93688E-06  7060   0.621E-03    0.123E-02
RMM:   3    -0.741885733556E+03    0.59985E-06   -0.28853E-07  2014   0.286E-03    0.857E-03
RMM:   4    -0.741885733633E+03   -0.76601E-07   -0.14011E-09   954   0.264E-03    0.855E-03
RMM:   5    -0.741885733627E+03    0.51950E-08    0.00000E+00   694   0.263E-03    0.821E-03
RMM:   6    -0.741885734103E+03   -0.47560E-06   -0.61369E-08  1316   0.272E-03    0.633E-03
RMM:   7    -0.741885733858E+03    0.24490E-06   -0.64033E-08  1182   0.271E-03    0.492E-03
RMM:   8    -0.741885733854E+03    0.42201E-08   -0.18157E-09   833   0.261E-03
 143 F= -.74188573E+03 E0= -.74127696E+03  d E =-.108502E-03  mag=     0.0000
 curvature:  -0.08 expect dE=-0.128E-03 dE for cont linesearch -0.198E-06
 trial: gam= 0.57428 g(F)=  0.162E-02 g(S)=  0.000E+00 ort =-0.113E-03 (trialstep = 0.655E-01)
 search vector abs. value=  0.318E-02
 bond charge predicted
       N       E                     dE             d eps       ncg     rms          rms(c)
DAV:   1    -0.741885780661E+03   -0.46803E-04   -0.18965E-03 13632   0.712E-02    0.110E-02
RMM:   2    -0.741885784424E+03   -0.37628E-05   -0.42414E-05  7068   0.128E-02    0.178E-02
RMM:   3    -0.741885784041E+03    0.38258E-06   -0.58996E-06  7002   0.596E-03    0.765E-03
RMM:   4    -0.741885785284E+03   -0.12427E-05   -0.12530E-07  1909   0.264E-03    0.140E-02
RMM:   5    -0.741885785553E+03   -0.26903E-06   -0.75218E-09  1582   0.253E-03    0.147E-02
RMM:   6    -0.741885784634E+03    0.91887E-06   -0.48941E-09  1480   0.249E-03    0.856E-03
RMM:   7    -0.741885784517E+03    0.11684E-06   -0.48990E-09  1304   0.251E-03    0.326E-03
RMM:   8    -0.741885784565E+03   -0.47636E-07   -0.53564E-09   980   0.257E-03
 144 F= -.74188578E+03 E0= -.74127700E+03  d E =-.507112E-04  mag=     0.0000
 trial-energy change:   -0.000051  1 .order   -0.000053   -0.000102   -0.000004
 step:   0.0681(harm=  0.0681)  dis= 0.00036  next Energy=  -741.885787 (dE=-0.529E-04)
 bond charge predicted
       N       E                     dE             d eps       ncg     rms          rms(c)
DAV:   1    -0.741885784782E+03   -0.26423E-06   -0.38785E-06  7744   0.360E-03    0.468E-03
RMM:   2    -0.741885784912E+03   -0.13080E-06   -0.78732E-09  1312   0.215E-03    0.407E-03
RMM:   3    -0.741885785589E+03   -0.67612E-06    0.00000E+00   844   0.198E-03    0.109E-02
RMM:   4    -0.741885784835E+03    0.75383E-06    0.00000E+00   868   0.196E-03    0.808E-03
RMM:   5    -0.741885784684E+03    0.15074E-06    0.00000E+00   826   0.210E-03    0.205E-03
RMM:   6    -0.741885784768E+03   -0.84074E-07    0.00000E+00   698   0.213E-03    0.555E-04
RMM:   7    -0.741885784795E+03   -0.27285E-07    0.00000E+00   544   0.214E-03    0.276E-04
RMM:   8    -0.741885784799E+03   -0.32378E-08    0.00000E+00   451   0.214E-03
 145 F= -.74188578E+03 E0= -.74127700E+03  d E =-.509447E-04  mag=     0.0000
 curvature:  -0.07 expect dE=-0.111E-03 dE for cont linesearch -0.126E-06
 trial: gam= 0.96802 g(F)=  0.159E-02 g(S)=  0.000E+00 ort =-0.757E-04 (trialstep = 0.474E-01)
 search vector abs. value=  0.442E-02
 bond charge predicted
       N       E                     dE             d eps       ncg     rms          rms(c)
DAV:   1    -0.741885829268E+03   -0.44472E-04   -0.14238E-03 13280   0.604E-02    0.891E-03
RMM:   2    -0.741885832294E+03   -0.30261E-05   -0.32346E-05  7062   0.112E-02    0.167E-02
RMM:   3    -0.741885831988E+03    0.30583E-06   -0.45461E-06  6760   0.513E-03    0.827E-03
RMM:   4    -0.741885834854E+03   -0.28659E-05   -0.11051E-07  1802   0.248E-03    0.210E-02
RMM:   5    -0.741885831650E+03    0.32039E-05   -0.80804E-09  1522   0.229E-03    0.736E-03
RMM:   6    -0.741885832309E+03   -0.65954E-06   -0.52902E-09  1370   0.233E-03    0.633E-03
RMM:   7    -0.741885832251E+03    0.58157E-07   -0.64166E-09  1188   0.237E-03    0.327E-03
RMM:   8    -0.741885832237E+03    0.14406E-07   -0.74271E-09   868   0.245E-03
 146 F= -.74188583E+03 E0= -.74127704E+03  d E =-.474382E-04  mag=     0.0000
 trial-energy change:   -0.000047  1 .order   -0.000046   -0.000072   -0.000020
 step:   0.0659(harm=  0.0659)  dis= 0.00037  next Energy=  -741.885835 (dE=-0.500E-04)
 reached required accuracy - stopping structural energy minimisation
 writing wavefunctions
