       N       E                     dE             d eps       ncg     rms          rms(c)
DAV:   1     0.759808087380E+04    0.75981E+04   -0.29776E+05 15104   0.126E+03
DAV:   2     0.597728824508E+03   -0.70004E+04   -0.63146E+04 16016   0.373E+02
DAV:   3    -0.762958778764E+03   -0.13607E+04   -0.13093E+04 18544   0.165E+02
DAV:   4    -0.836965345358E+03   -0.74007E+02   -0.72203E+02 20320   0.432E+01
DAV:   5    -0.838593460532E+03   -0.16281E+01   -0.16074E+01 19296   0.600E+00    0.188E+02
RMM:   6    -0.679646750889E+03    0.15895E+03   -0.60542E+02 14907   0.390E+01    0.154E+02
RMM:   7    -0.156782555558E+04   -0.88818E+03   -0.42941E+02 16685   0.262E+01    0.391E+02
RMM:   8    -0.127778921551E+04    0.29004E+03   -0.92448E+01 18639   0.105E+01    0.336E+02
RMM:   9    -0.117614869047E+04    0.10164E+03   -0.63687E+01 15406   0.114E+01    0.334E+02
RMM:  10    -0.907299633167E+03    0.26885E+03   -0.33980E+02 20430   0.217E+01    0.292E+02
RMM:  11    -0.101564292404E+04   -0.10834E+03   -0.68981E+01 17192   0.930E+00    0.262E+02
RMM:  12    -0.983241393896E+03    0.32402E+02   -0.10493E+02 18268   0.124E+01    0.237E+02
RMM:  13    -0.135667620782E+04   -0.37343E+03   -0.23148E+02 20913   0.193E+01    0.295E+02
RMM:  14    -0.125247058769E+04    0.10421E+03   -0.15107E+01 16803   0.526E+00    0.253E+02
RMM:  15    -0.100923367639E+04    0.24324E+03   -0.68991E+01 19256   0.110E+01    0.179E+02
RMM:  16    -0.728196716453E+03    0.28104E+03   -0.31435E+01 17497   0.664E+00    0.122E+02
RMM:  17    -0.691681343528E+03    0.36515E+02   -0.13907E+01 15959   0.523E+00    0.109E+02
RMM:  18    -0.654328928167E+03    0.37352E+02   -0.68772E+00 16195   0.341E+00    0.968E+01
RMM:  19    -0.651738422797E+03    0.25905E+01   -0.24625E+00 16089   0.232E+00    0.921E+01
RMM:  20    -0.652410180955E+03   -0.67176E+00   -0.70998E-01 17294   0.110E+00    0.906E+01
RMM:  21    -0.654751651269E+03   -0.23415E+01   -0.20956E+00 16674   0.212E+00    0.841E+01
RMM:  22    -0.656866134961E+03   -0.21145E+01   -0.52567E+00 19934   0.317E+00    0.703E+01
RMM:  23    -0.659073001957E+03   -0.22069E+01   -0.25672E+00 18670   0.247E+00    0.595E+01
RMM:  24    -0.660540560806E+03   -0.14676E+01   -0.10947E+00 16318   0.170E+00    0.530E+01
RMM:  25    -0.662097333399E+03   -0.15568E+01   -0.37145E-01 15306   0.964E-01    0.495E+01
RMM:  26    -0.661237940518E+03    0.85939E+00   -0.14893E-01 16211   0.605E-01    0.482E+01
RMM:  27    -0.661008106071E+03    0.22983E+00   -0.13093E-01 15356   0.564E-01    0.460E+01
RMM:  28    -0.662253968059E+03   -0.12459E+01   -0.93998E-01 20586   0.145E+00    0.399E+01
RMM:  29    -0.663987419061E+03   -0.17335E+01   -0.18268E+00 23073   0.205E+00    0.330E+01
RMM:  30    -0.666103761999E+03   -0.21163E+01   -0.15108E+00 22083   0.183E+00    0.297E+01
RMM:  31    -0.669619302906E+03   -0.35155E+01   -0.15875E+00 21330   0.168E+00    0.284E+01
RMM:  32    -0.675794023721E+03   -0.61747E+01   -0.28540E+00 22712   0.229E+00    0.263E+01
RMM:  33    -0.677109414776E+03   -0.13154E+01   -0.21946E+00 22238   0.200E+00    0.179E+01
RMM:  34    -0.679151540136E+03   -0.20421E+01   -0.15502E+00 20977   0.165E+00    0.162E+01
RMM:  35    -0.680393332578E+03   -0.12418E+01   -0.51402E-01 18382   0.110E+00    0.155E+01
RMM:  36    -0.682293676836E+03   -0.19003E+01   -0.23635E-01 16962   0.713E-01    0.151E+01
RMM:  37    -0.685655186555E+03   -0.33615E+01   -0.65476E-01 19896   0.109E+00    0.174E+01
RMM:  38    -0.688099052711E+03   -0.24439E+01   -0.56896E-01 19733   0.974E-01    0.186E+01
RMM:  39    -0.690642055613E+03   -0.25430E+01   -0.36530E-01 18580   0.821E-01    0.167E+01
RMM:  40    -0.693813356799E+03   -0.31713E+01   -0.55212E-01 20048   0.103E+00    0.127E+01
RMM:  41    -0.695358069886E+03   -0.15447E+01   -0.29619E-01 18917   0.848E-01    0.115E+01
RMM:  42    -0.698384646731E+03   -0.30266E+01   -0.12849E-01 16115   0.564E-01    0.129E+01
RMM:  43    -0.699410942469E+03   -0.10263E+01   -0.15477E-01 16951   0.561E-01    0.129E+01
RMM:  44    -0.699561786119E+03   -0.15084E+00   -0.24138E-01 18655   0.675E-01    0.143E+01
RMM:  45    -0.699609098263E+03   -0.47312E-01   -0.22839E-01 18766   0.645E-01    0.133E+01
RMM:  46    -0.699747239261E+03   -0.13814E+00   -0.86261E-02 16044   0.447E-01    0.141E+01
RMM:  47    -0.699689290691E+03    0.57949E-01   -0.55427E-02 15529   0.356E-01    0.146E+01
RMM:  48    -0.700161757922E+03   -0.47247E+00   -0.80696E-02 17317   0.442E-01    0.118E+01
RMM:  49    -0.700597448251E+03   -0.43569E+00   -0.33734E-02 15245   0.286E-01    0.104E+01
RMM:  50    -0.701372745902E+03   -0.77530E+00   -0.73388E-02 17861   0.388E-01    0.896E+00
RMM:  51    -0.701414952400E+03   -0.42206E-01   -0.73583E-01 24989   0.115E+00    0.750E+00
RMM:  52    -0.702117319052E+03   -0.70237E+00   -0.17538E-01 19711   0.605E-01    0.715E+00
RMM:  53    -0.702631058125E+03   -0.51374E+00   -0.36590E-02 15893   0.309E-01    0.726E+00
RMM:  54    -0.702648270714E+03   -0.17213E-01   -0.44381E-02 16710   0.296E-01    0.680E+00
RMM:  55    -0.703151653776E+03   -0.50338E+00   -0.13410E-01 19666   0.447E-01    0.604E+00
RMM:  56    -0.702200392293E+03    0.95126E+00   -0.26363E-01 22362   0.686E-01    0.614E+00
RMM:  57    -0.703336670759E+03   -0.11363E+01   -0.80193E-02 18353   0.364E-01    0.550E+00
RMM:  58    -0.703406262944E+03   -0.69592E-01   -0.46873E-02 17264   0.276E-01    0.508E+00
RMM:  59    -0.703517928590E+03   -0.11167E+00   -0.14090E-02 15424   0.178E-01    0.488E+00
RMM:  60    -0.703669266647E+03   -0.15134E+00   -0.21432E-02 16864   0.182E-01    0.445E+00
RMM:  61    -0.703499086317E+03    0.17018E+00   -0.12845E-01 22232   0.493E-01    0.318E+00
RMM:  62    -0.703984341669E+03   -0.48526E+00   -0.51490E-02 18807   0.292E-01    0.282E+00
RMM:  63    -0.704405052077E+03   -0.42071E+00   -0.49964E-02 18534   0.265E-01    0.192E+00
RMM:  64    -0.704609542377E+03   -0.20449E+00   -0.25442E-02 17149   0.190E-01    0.164E+00
RMM:  65    -0.704582875297E+03    0.26667E-01   -0.61986E-03 15430   0.120E-01    0.116E+00
RMM:  66    -0.704784455933E+03   -0.20158E+00   -0.13285E-02 17564   0.169E-01    0.119E+00
RMM:  67    -0.704858229611E+03   -0.73774E-01   -0.39763E-03 15328   0.101E-01    0.782E-01
RMM:  68    -0.704974999177E+03   -0.11677E+00   -0.32385E-03 15386   0.839E-02    0.669E-01
RMM:  69    -0.705070012555E+03   -0.95013E-01   -0.32089E-03 16054   0.808E-02    0.624E-01
RMM:  70    -0.705188753550E+03   -0.11874E+00   -0.26929E-03 15780   0.725E-02    0.469E-01
RMM:  71    -0.705160334817E+03    0.28419E-01   -0.16460E-03 15087   0.628E-02    0.649E-01
RMM:  72    -0.705255769228E+03   -0.95434E-01   -0.85331E-04 13777   0.492E-02    0.411E-01
RMM:  73    -0.705384859385E+03   -0.12909E+00   -0.93086E-04 13575   0.435E-02    0.246E-01
RMM:  74    -0.705521924638E+03   -0.13707E+00   -0.89075E-04 13012   0.400E-02    0.163E-01
RMM:  75    -0.705613516757E+03   -0.91592E-01   -0.59741E-04 12224   0.324E-02    0.214E-01
RMM:  76    -0.705647930119E+03   -0.34413E-01   -0.23421E-04  9977   0.247E-02    0.175E-01
RMM:  77    -0.705677909514E+03   -0.29979E-01   -0.20474E-04  9721   0.217E-02    0.166E-01
RMM:  78    -0.705693354632E+03   -0.15445E-01   -0.15028E-04  9233   0.183E-02    0.109E-01
RMM:  79    -0.705699735645E+03   -0.63810E-02   -0.11732E-04  9142   0.158E-02    0.773E-02
RMM:  80    -0.705700500588E+03   -0.76494E-03   -0.68487E-05  8828   0.127E-02
   1 F= -.70570050E+03 E0= -.70509613E+03  d E =-.705701E+03  mag=     0.2947
       N       E                     dE             d eps       ncg     rms          rms(c)
DAV:   1    -0.662485862047E+03    0.43214E+02   -0.37962E+03 15360   0.833E+01    0.186E+01
RMM:   2    -0.705164237793E+03   -0.42678E+02   -0.31200E+02 15406   0.192E+01    0.512E+01
RMM:   3    -0.713323042449E+03   -0.81588E+01   -0.60258E+01 15907   0.800E+00    0.449E+01
RMM:   4    -0.697644843146E+03    0.15678E+02   -0.47604E+00 15039   0.378E+00    0.275E+01
RMM:   5    -0.694685865721E+03    0.29590E+01   -0.18393E+00 15107   0.226E+00    0.231E+01
RMM:   6    -0.694261524555E+03    0.42434E+00   -0.12473E+00 15432   0.152E+00    0.215E+01
RMM:   7    -0.693264067380E+03    0.99746E+00   -0.34268E-01 14978   0.106E+00    0.164E+01
RMM:   8    -0.693905302705E+03   -0.64124E+00   -0.12997E+00 16796   0.132E+00    0.183E+01
RMM:   9    -0.693019691237E+03    0.88561E+00   -0.37575E-01 15549   0.929E-01    0.127E+01
RMM:  10    -0.692452580186E+03    0.56711E+00   -0.64813E-01 16744   0.941E-01    0.933E+00
RMM:  11    -0.692102761503E+03    0.34982E+00   -0.63790E-02 14985   0.455E-01    0.561E+00
RMM:  12    -0.691992978307E+03    0.10978E+00   -0.43400E-02 15042   0.329E-01    0.446E+00
RMM:  13    -0.691891344199E+03    0.10163E+00   -0.54589E-02 15770   0.303E-01    0.292E+00
RMM:  14    -0.691839401615E+03    0.51943E-01   -0.34961E-02 15917   0.261E-01    0.158E+00
RMM:  15    -0.691829369454E+03    0.10032E-01   -0.11065E-02 15274   0.167E-01    0.114E+00
RMM:  16    -0.691821416055E+03    0.79534E-02   -0.21364E-02 16787   0.187E-01    0.811E-01
RMM:  17    -0.691819020339E+03    0.23957E-02   -0.88926E-03 15530   0.129E-01    0.751E-01
RMM:  18    -0.691815163744E+03    0.38566E-02   -0.32116E-03 15247   0.876E-02    0.539E-01
RMM:  19    -0.691812349113E+03    0.28146E-02   -0.93518E-04 13786   0.494E-02    0.365E-01
RMM:  20    -0.691811365335E+03    0.98378E-03   -0.32771E-04 10585   0.263E-02    0.336E-01
RMM:  21    -0.691813957283E+03   -0.25919E-02   -0.34616E-04 10271   0.269E-02    0.381E-01
RMM:  22    -0.691815908835E+03   -0.19516E-02   -0.48590E-04 10530   0.277E-02    0.382E-01
RMM:  23    -0.691816159659E+03   -0.25082E-03   -0.21925E-03 13930   0.511E-02    0.372E-01
RMM:  24    -0.691811479496E+03    0.46802E-02   -0.16613E-03 13417   0.442E-02    0.306E-01
RMM:  25    -0.691808891799E+03    0.25877E-02   -0.41840E-04 10600   0.293E-02    0.265E-01
RMM:  26    -0.691807631180E+03    0.12606E-02   -0.30009E-04  9967   0.257E-02    0.241E-01
RMM:  27    -0.691807220176E+03    0.41100E-03   -0.20065E-04  9475   0.221E-02    0.156E-01
RMM:  28    -0.691806248864E+03    0.97131E-03   -0.26251E-04  9772   0.216E-02    0.880E-02
RMM:  29    -0.691805265971E+03    0.98289E-03   -0.71577E-05  8711   0.140E-02    0.645E-02
RMM:  30    -0.691804487435E+03    0.77854E-03   -0.74931E-05  8499   0.110E-02    0.551E-02
RMM:  31    -0.691804800412E+03   -0.31298E-03   -0.69648E-05  8335   0.953E-03    0.526E-02
RMM:  32    -0.691805784515E+03   -0.98410E-03   -0.11465E-04  8701   0.105E-02    0.462E-02
RMM:  33    -0.691806803822E+03   -0.10193E-02   -0.62150E-05  7981   0.852E-03    0.406E-02
RMM:  34    -0.691807658715E+03   -0.85489E-03   -0.21153E-05  6502   0.613E-03    0.383E-02
RMM:  35    -0.691808741334E+03   -0.10826E-02   -0.14213E-05  6025   0.501E-03    0.369E-02
RMM:  36    -0.691809289857E+03   -0.54852E-03   -0.56906E-06  4855   0.399E-03    0.337E-02
RMM:  37    -0.691809260373E+03    0.29484E-04   -0.13446E-06  3191   0.309E-03
   2 F= -.69180926E+03 E0= -.69120901E+03  d E =0.138912E+02  mag=     0.0986
       N       E                     dE             d eps       ncg     rms          rms(c)
DAV:   1    -0.695877599182E+03   -0.40683E+01   -0.26237E+03 14992   0.597E+01    0.204E+01
RMM:   2    -0.743810104570E+03   -0.47933E+02   -0.21574E+02 14887   0.149E+01    0.657E+01
RMM:   3    -0.722162497364E+03    0.21648E+02   -0.35831E+01 15166   0.732E+00    0.324E+01
RMM:   4    -0.730309139926E+03   -0.81466E+01   -0.50167E+00 14909   0.374E+00    0.477E+01
RMM:   5    -0.709909844575E+03    0.20399E+02   -0.33047E+00 15090   0.294E+00    0.149E+01
RMM:   6    -0.708432778889E+03    0.14771E+01   -0.29531E+00 15876   0.228E+00    0.131E+01
RMM:   7    -0.707867892348E+03    0.56489E+00   -0.11176E+00 16026   0.140E+00    0.105E+01
RMM:   8    -0.708126079472E+03   -0.25819E+00   -0.10831E+00 16283   0.118E+00    0.106E+01
RMM:   9    -0.707478304478E+03    0.64777E+00   -0.37369E-01 15572   0.931E-01    0.514E+00
RMM:  10    -0.707395201131E+03    0.83103E-01   -0.10130E-01 14898   0.567E-01    0.480E+00
RMM:  11    -0.707353794742E+03    0.41406E-01   -0.68842E-02 15205   0.406E-01    0.311E+00
RMM:  12    -0.707386319180E+03   -0.32524E-01   -0.35978E-02 16324   0.262E-01    0.357E+00
RMM:  13    -0.707347446197E+03    0.38873E-01   -0.70857E-03 15455   0.137E-01    0.278E+00
RMM:  14    -0.707322334145E+03    0.25112E-01   -0.83541E-03 15479   0.130E-01    0.209E+00
RMM:  15    -0.707308571853E+03    0.13762E-01   -0.79285E-03 16028   0.115E-01    0.152E+00
RMM:  16    -0.707303542804E+03    0.50290E-02   -0.26203E-03 14855   0.681E-02    0.131E+00
RMM:  17    -0.707303879830E+03   -0.33703E-03   -0.54500E-04 12261   0.389E-02    0.125E+00
RMM:  18    -0.707304200113E+03   -0.32028E-03   -0.51976E-04 12628   0.377E-02    0.115E+00
RMM:  19    -0.707303026024E+03    0.11741E-02   -0.10935E-03 13765   0.491E-02    0.916E-01
RMM:  20    -0.707302841788E+03    0.18424E-03   -0.34207E-04 11258   0.304E-02    0.762E-01
RMM:  21    -0.707302497387E+03    0.34440E-03   -0.11569E-04  9001   0.187E-02    0.677E-01
RMM:  22    -0.707302134547E+03    0.36284E-03   -0.13087E-04  9117   0.174E-02    0.532E-01
RMM:  23    -0.707302313893E+03   -0.17935E-03   -0.25917E-04 10188   0.211E-02    0.299E-01
RMM:  24    -0.707302644756E+03   -0.33086E-03   -0.98030E-05  8898   0.171E-02    0.184E-01
RMM:  25    -0.707303013815E+03   -0.36906E-03   -0.11966E-04  9093   0.163E-02    0.885E-02
RMM:  26    -0.707303146240E+03   -0.13243E-03   -0.35357E-05  8366   0.116E-02    0.649E-02
RMM:  27    -0.707303540777E+03   -0.39454E-03   -0.47869E-05  8457   0.101E-02    0.330E-02
RMM:  28    -0.707303810478E+03   -0.26970E-03   -0.22708E-05  7826   0.794E-03    0.439E-02
RMM:  29    -0.707303923051E+03   -0.11257E-03   -0.57535E-06  6285   0.485E-03    0.283E-02
RMM:  30    -0.707304064654E+03   -0.14160E-03   -0.28760E-06  4304   0.325E-03    0.160E-02
RMM:  31    -0.707304190028E+03   -0.12537E-03   -0.18241E-06  3856   0.312E-03    0.182E-02
RMM:  32    -0.707304344263E+03   -0.15423E-03   -0.22837E-06  4015   0.321E-03    0.211E-02
RMM:  33    -0.707304541287E+03   -0.19702E-03   -0.28020E-06  4384   0.333E-03    0.148E-02
RMM:  34    -0.707304715091E+03   -0.17380E-03   -0.11367E-06  3101   0.299E-03    0.123E-02
RMM:  35    -0.707304874861E+03   -0.15977E-03   -0.13676E-06  3105   0.295E-03    0.128E-02
RMM:  36    -0.707304992737E+03   -0.11788E-03   -0.60421E-07  2728   0.288E-03    0.127E-02
RMM:  37    -0.707305337794E+03   -0.34506E-03   -0.17258E-06  3205   0.301E-03    0.506E-03
RMM:  38    -0.707305590835E+03   -0.25304E-03   -0.13404E-06  3034   0.297E-03    0.497E-03
RMM:  39    -0.707305788367E+03   -0.19753E-03   -0.13200E-06  3136   0.300E-03    0.741E-03
RMM:  40    -0.707305883414E+03   -0.95047E-04   -0.88213E-07  2854   0.294E-03
   3 F= -.70730588E+03 E0= -.70670342E+03  d E =-.160538E+01  mag=     0.0205
       N       E                     dE             d eps       ncg     rms          rms(c)
DAV:   1    -0.686302566767E+03    0.21003E+02   -0.12637E+03 14912   0.495E+01    0.122E+01
RMM:   2    -0.718180233426E+03   -0.31878E+02   -0.49008E+01 14848   0.931E+00    0.599E+01
RMM:   3    -0.691161232947E+03    0.27019E+02   -0.78108E+00 14991   0.429E+00    0.175E+01
RMM:   4    -0.689404005094E+03    0.17572E+01   -0.15796E+00 14930   0.230E+00    0.945E+00
RMM:   5    -0.689188283117E+03    0.21572E+00   -0.60594E-01 14998   0.139E+00    0.829E+00
RMM:   6    -0.689227217815E+03   -0.38935E-01   -0.29413E-01 14960   0.953E-01    0.877E+00
RMM:   7    -0.688905153713E+03    0.32206E+00   -0.13896E-01 14870   0.696E-01    0.510E+00
RMM:   8    -0.688876101194E+03    0.29053E-01   -0.23943E-01 16168   0.725E-01    0.394E+00
RMM:   9    -0.688798652174E+03    0.77449E-01   -0.21346E-01 16448   0.686E-01    0.212E+00
RMM:  10    -0.688773700286E+03    0.24952E-01   -0.25549E-02 14891   0.299E-01    0.135E+00
RMM:  11    -0.688767154570E+03    0.65457E-02   -0.11309E-02 15121   0.172E-01    0.878E-01
RMM:  12    -0.688763944335E+03    0.32102E-02   -0.51327E-03 14910   0.108E-01    0.666E-01
RMM:  13    -0.688762924364E+03    0.10200E-02   -0.18346E-03 14292   0.713E-02    0.399E-01
RMM:  14    -0.688762841369E+03    0.82995E-04   -0.11283E-03 14139   0.508E-02    0.269E-01
RMM:  15    -0.688762835741E+03    0.56284E-05   -0.34516E-04 11068   0.303E-02
   4 F= -.68876284E+03 E0= -.68814646E+03  d E =0.185430E+02  mag=     0.0157
       N       E                     dE             d eps       ncg     rms          rms(c)
DAV:   1    -0.707344639354E+03   -0.18582E+02   -0.88393E+02 15008   0.399E+01    0.183E+01
RMM:   2    -0.751623109739E+03   -0.44278E+02   -0.70320E+01 15018   0.899E+00    0.743E+01
RMM:   3    -0.718636226392E+03    0.32987E+02   -0.11796E+01 15229   0.498E+00    0.285E+01
RMM:   4    -0.717613078115E+03    0.10231E+01   -0.36122E+00 14879   0.310E+00    0.341E+01
RMM:   5    -0.709133635565E+03    0.84794E+01   -0.26919E+00 15378   0.248E+00    0.121E+01
RMM:   6    -0.708894748403E+03    0.23889E+00   -0.10469E+00 15328   0.152E+00    0.133E+01
RMM:   7    -0.707930969808E+03    0.96378E+00   -0.81142E-01 16148   0.111E+00    0.791E+00
RMM:   8    -0.707765299907E+03    0.16567E+00   -0.27062E-01 15923   0.738E-01    0.715E+00
RMM:   9    -0.707586471258E+03    0.17883E+00   -0.37425E-01 16619   0.732E-01    0.525E+00
RMM:  10    -0.707467668917E+03    0.11880E+00   -0.10504E-01 14937   0.591E-01    0.257E+00
RMM:  11    -0.707447383412E+03    0.20286E-01   -0.67714E-02 15327   0.419E-01    0.208E+00
RMM:  12    -0.707431834271E+03    0.15549E-01   -0.16018E-02 15000   0.225E-01    0.117E+00
RMM:  13    -0.707424916656E+03    0.69176E-02   -0.50536E-03 15133   0.126E-01    0.694E-01
RMM:  14    -0.707422963158E+03    0.19535E-02   -0.18942E-03 14808   0.681E-02    0.417E-01
RMM:  15    -0.707423150923E+03   -0.18777E-03   -0.85680E-04 13816   0.447E-02    0.411E-01
RMM:  16    -0.707422620311E+03    0.53061E-03   -0.93403E-04 13822   0.434E-02    0.262E-01
RMM:  17    -0.707422519518E+03    0.10079E-03   -0.42068E-04 11393   0.309E-02    0.198E-01
RMM:  18    -0.707422430283E+03    0.89235E-04   -0.18128E-04  9750   0.218E-02
   5 F= -.70742243E+03 E0= -.70681820E+03  d E =-.116547E+00  mag=     0.0109
       N       E                     dE             d eps       ncg     rms          rms(c)
DAV:   1    -0.707542090728E+03   -0.11957E+00   -0.61444E+00 15536   0.351E+00    0.111E+00
RMM:   2    -0.707969084988E+03   -0.42699E+00   -0.21527E-01 14858   0.697E-01    0.846E+00
RMM:   3    -0.707569557043E+03    0.39953E+00   -0.37799E-02 14856   0.400E-01    0.186E+00
RMM:   4    -0.707567869130E+03    0.16879E-02   -0.13818E-02 14861   0.225E-01    0.181E+00
RMM:   5    -0.707551012709E+03    0.16856E-01   -0.59489E-03 15018   0.132E-01    0.898E-01
RMM:   6    -0.707549003253E+03    0.20095E-02   -0.30189E-03 14802   0.818E-02    0.648E-01
RMM:   7    -0.707547983089E+03    0.10202E-02   -0.15134E-03 13787   0.596E-02    0.422E-01
RMM:   8    -0.707547652970E+03    0.33012E-03   -0.12250E-03 14008   0.487E-02    0.289E-01
RMM:   9    -0.707547370298E+03    0.28267E-03   -0.29819E-04 11047   0.350E-02    0.158E-01
RMM:  10    -0.707547432982E+03   -0.62684E-04   -0.97262E-05  8870   0.189E-02
   6 F= -.70754743E+03 E0= -.70694350E+03  d E =-.241550E+00  mag=     0.0091
       N       E                     dE             d eps       ncg     rms          rms(c)
DAV:   1    -0.707551075782E+03   -0.37055E-02   -0.11197E-01 15536   0.471E-01    0.241E-01
RMM:   2    -0.707593415483E+03   -0.42340E-01   -0.61246E-03 14847   0.112E-01    0.261E+00
RMM:   3    -0.707550999384E+03    0.42416E-01   -0.22670E-03 14346   0.102E-01    0.419E-01
RMM:   4    -0.707551033599E+03   -0.34215E-04   -0.57847E-04 12488   0.501E-02    0.128E-01
RMM:   5    -0.707551033046E+03    0.55264E-06   -0.17698E-04  9082   0.246E-02    0.768E-02
RMM:   6    -0.707551024620E+03    0.84256E-05   -0.62566E-05  8101   0.154E-02    0.581E-02
RMM:   7    -0.707551036363E+03   -0.11743E-04   -0.32337E-05  7661   0.102E-02    0.528E-02
RMM:   8    -0.707551038009E+03   -0.16454E-05   -0.16362E-05  7330   0.749E-03
   7 F= -.70755104E+03 E0= -.70694725E+03  d E =-.245155E+00  mag=     0.0080
       N       E                     dE             d eps       ncg     rms          rms(c)
DAV:   1    -0.705714313522E+03    0.18367E+01   -0.35513E+02 14848   0.254E+01    0.572E+00
RMM:   2    -0.710097531031E+03   -0.43832E+01   -0.71763E+00 14848   0.515E+00    0.234E+01
RMM:   3    -0.706784034947E+03    0.33135E+01   -0.20889E+00 16264   0.222E+00    0.810E+00
RMM:   4    -0.706516805403E+03    0.26723E+00   -0.41770E-01 15216   0.119E+00    0.496E+00
RMM:   5    -0.706508580560E+03    0.82248E-02   -0.18385E-01 14950   0.778E-01    0.540E+00
RMM:   6    -0.706430616898E+03    0.77964E-01   -0.70520E-02 14966   0.468E-01    0.367E+00
RMM:   7    -0.706472601651E+03   -0.41985E-01   -0.11348E-01 16183   0.496E-01    0.435E+00
RMM:   8    -0.706379002827E+03    0.93599E-01   -0.65646E-02 15555   0.407E-01    0.173E+00
RMM:   9    -0.706366642941E+03    0.12360E-01   -0.17371E-02 14918   0.250E-01    0.116E+00
RMM:  10    -0.706364896408E+03    0.17465E-02   -0.60597E-03 15560   0.131E-01    0.805E-01
RMM:  11    -0.706362551927E+03    0.23445E-02   -0.22477E-03 14634   0.849E-02    0.596E-01
RMM:  12    -0.706361467328E+03    0.10846E-02   -0.24614E-03 14549   0.675E-02    0.516E-01
RMM:  13    -0.706360278302E+03    0.11890E-02   -0.19210E-03 14955   0.612E-02    0.209E-01
RMM:  14    -0.706360144342E+03    0.13396E-03   -0.51225E-04 12766   0.363E-02    0.102E-01
RMM:  15    -0.706360161151E+03   -0.16810E-04   -0.11842E-04  9116   0.201E-02
   8 F= -.70636016E+03 E0= -.70575407E+03  d E =0.119088E+01  mag=     0.0061
       N       E                     dE             d eps       ncg     rms          rms(c)
DAV:   1    -0.707293874845E+03   -0.93373E+00   -0.20160E+02 14880   0.191E+01    0.481E+00
RMM:   2    -0.710093649648E+03   -0.27998E+01   -0.41590E+00 14848   0.384E+00    0.215E+01
RMM:   3    -0.708541602625E+03    0.15520E+01   -0.10201E+00 15644   0.170E+00    0.115E+01
RMM:   4    -0.707721943391E+03    0.81966E+00   -0.23577E-01 15027   0.972E-01    0.394E+00
RMM:   5    -0.707704205958E+03    0.17737E-01   -0.12032E-01 14978   0.615E-01    0.433E+00
RMM:   6    -0.707635799312E+03    0.68407E-01   -0.68584E-02 14939   0.440E-01    0.238E+00
RMM:   7    -0.707634585230E+03    0.12141E-02   -0.48657E-02 15229   0.353E-01    0.195E+00
RMM:   8    -0.707628854313E+03    0.57309E-02   -0.28567E-02 15107   0.285E-01    0.164E+00
RMM:   9    -0.707625707655E+03    0.31467E-02   -0.12851E-02 15475   0.178E-01    0.113E+00
RMM:  10    -0.707618234105E+03    0.74735E-02   -0.30823E-03 14499   0.106E-01    0.591E-01
RMM:  11    -0.707617155688E+03    0.10784E-02   -0.12524E-03 14297   0.548E-02    0.457E-01
RMM:  12    -0.707616416941E+03    0.73875E-03   -0.20166E-03 14962   0.590E-02    0.372E-01
RMM:  13    -0.707616016724E+03    0.40022E-03   -0.98768E-04 14166   0.455E-02    0.199E-01
RMM:  14    -0.707615945960E+03    0.70764E-04   -0.32646E-04 11275   0.305E-02
   9 F= -.70761595E+03 E0= -.70701117E+03  d E =-.649080E-01  mag=     0.0048
       N       E                     dE             d eps       ncg     rms          rms(c)
DAV:   1    -0.707652504310E+03   -0.36488E-01   -0.15171E+00 16000   0.168E+00    0.416E-01
RMM:   2    -0.707703622080E+03   -0.51118E-01   -0.31195E-02 14858   0.330E-01    0.291E+00
RMM:   3    -0.707656043967E+03    0.47578E-01   -0.77757E-03 15186   0.164E-01    0.643E-01
RMM:   4    -0.707655245575E+03    0.79839E-03   -0.20351E-03 14775   0.884E-02    0.329E-01
RMM:   5    -0.707655822717E+03   -0.57714E-03   -0.83996E-04 13768   0.518E-02    0.493E-01
RMM:   6    -0.707656112985E+03   -0.29027E-03   -0.74817E-04 13656   0.446E-02    0.532E-01
RMM:   7    -0.707655164184E+03    0.94880E-03   -0.55676E-04 12552   0.386E-02    0.291E-01
RMM:   8    -0.707654718196E+03    0.44599E-03   -0.25938E-04 10542   0.259E-02    0.110E-01
RMM:   9    -0.707654775360E+03   -0.57164E-04   -0.82328E-05  8735   0.194E-02
  10 F= -.70765478E+03 E0= -.70705075E+03  d E =-.103737E+00  mag=     0.0043
       N       E                     dE             d eps       ncg     rms          rms(c)
DAV:   1    -0.707658112128E+03   -0.33939E-02   -0.29002E+00 15648   0.232E+00    0.523E-01
RMM:   2    -0.707732826742E+03   -0.74715E-01   -0.58125E-02 14852   0.450E-01    0.350E+00
RMM:   3    -0.707662521478E+03    0.70305E-01   -0.14140E-02 15547   0.211E-01    0.558E-01
RMM:   4    -0.707665266579E+03   -0.27451E-02   -0.33208E-03 15443   0.106E-01    0.740E-01
RMM:   5    -0.707665383106E+03   -0.11653E-03   -0.17607E-03 14412   0.750E-02    0.789E-01
RMM:   6    -0.707664604808E+03    0.77830E-03   -0.14130E-03 14349   0.594E-02    0.575E-01
RMM:   7    -0.707663293421E+03    0.13114E-02   -0.63424E-04 13177   0.421E-02    0.334E-01
RMM:   8    -0.707662880295E+03    0.41313E-03   -0.30863E-04 11030   0.309E-02    0.146E-01
RMM:   9    -0.707662858628E+03    0.21667E-04   -0.86366E-05  8817   0.196E-02
  11 F= -.70766286E+03 E0= -.70705884E+03  d E =-.111821E+00  mag=     0.0038
       N       E                     dE             d eps       ncg     rms          rms(c)
DAV:   1    -0.707671001748E+03   -0.81215E-02   -0.79657E-01 15872   0.122E+00    0.280E-01
RMM:   2    -0.707686149992E+03   -0.15148E-01   -0.15237E-02 14850   0.233E-01    0.160E+00
RMM:   3    -0.707672262015E+03    0.13888E-01   -0.36463E-03 15405   0.106E-01    0.376E-01
RMM:   4    -0.707673126617E+03   -0.86460E-03   -0.89064E-04 13911   0.549E-02    0.474E-01
RMM:   5    -0.707672631956E+03    0.49466E-03   -0.54722E-04 12719   0.418E-02    0.403E-01
RMM:   6    -0.707672509284E+03    0.12267E-03   -0.37602E-04 11659   0.329E-02    0.329E-01
RMM:   7    -0.707672114563E+03    0.39472E-03   -0.35579E-04 10993   0.308E-02    0.159E-01
RMM:   8    -0.707672054173E+03    0.60390E-04   -0.10495E-04  8451   0.197E-02
  12 F= -.70767205E+03 E0= -.70706811E+03  d E =-.121016E+00  mag=     0.0034
       N       E                     dE             d eps       ncg     rms          rms(c)
DAV:   1    -0.707633694729E+03    0.38420E-01   -0.47449E+01 15280   0.904E+00    0.228E+00
RMM:   2    -0.707868197413E+03   -0.23450E+00   -0.10115E+00 14872   0.178E+00    0.554E+00
RMM:   3    -0.707930262121E+03   -0.62065E-01   -0.25869E-01 15950   0.830E-01    0.630E+00
RMM:   4    -0.707760935528E+03    0.16933E+00   -0.71880E-02 15505   0.447E-01    0.344E+00
RMM:   5    -0.707693912769E+03    0.67023E-01   -0.28773E-02 14905   0.316E-01    0.180E+00
RMM:   6    -0.707691706796E+03    0.22060E-02   -0.16804E-02 15145   0.217E-01    0.177E+00
RMM:   7    -0.707685348004E+03    0.63588E-02   -0.21145E-02 15899   0.213E-01    0.137E+00
RMM:   8    -0.707680013035E+03    0.53350E-02   -0.72803E-03 14941   0.148E-01    0.845E-01
RMM:   9    -0.707677272147E+03    0.27409E-02   -0.26380E-03 14689   0.991E-02    0.498E-01
RMM:  10    -0.707676601067E+03    0.67108E-03   -0.91523E-04 14032   0.487E-02    0.312E-01
RMM:  11    -0.707675978940E+03    0.62213E-03   -0.25086E-04 10382   0.276E-02    0.140E-01
RMM:  12    -0.707675948489E+03    0.30451E-04   -0.13860E-04  9141   0.203E-02
  13 F= -.70767595E+03 E0= -.70707001E+03  d E =-.389432E-02  mag=     0.0029
       N       E                     dE             d eps       ncg     rms          rms(c)
DAV:   1    -0.707784703325E+03   -0.10872E+00   -0.15342E+01 15296   0.513E+00    0.130E+00
RMM:   2    -0.707828894960E+03   -0.44192E-01   -0.28769E-01 14864   0.984E-01    0.225E+00
RMM:   3    -0.707895762323E+03   -0.66867E-01   -0.80847E-02 16300   0.444E-01    0.420E+00
RMM:   4    -0.707831448506E+03    0.64314E-01   -0.21017E-02 15094   0.256E-01    0.223E+00
RMM:   5    -0.707804696734E+03    0.26752E-01   -0.75421E-03 14868   0.177E-01    0.104E+00
RMM:   6    -0.707803116738E+03    0.15800E-02   -0.39288E-03 14792   0.114E-01    0.963E-01
RMM:   7    -0.707800679916E+03    0.24368E-02   -0.79203E-03 16347   0.128E-01    0.686E-01
RMM:   8    -0.707798999826E+03    0.16801E-02   -0.19953E-03 14426   0.771E-02    0.286E-01
RMM:   9    -0.707798728747E+03    0.27108E-03   -0.81856E-04 13471   0.497E-02    0.164E-01
RMM:  10    -0.707798727910E+03    0.83720E-06   -0.21535E-04  9932   0.267E-02
  14 F= -.70779873E+03 E0= -.70719382E+03  d E =-.126674E+00  mag=     0.0026
       N       E                     dE             d eps       ncg     rms          rms(c)
DAV:   1    -0.707751114866E+03    0.47614E-01   -0.10114E+01 15152   0.469E+00    0.123E+00
RMM:   2    -0.708083868378E+03   -0.33275E+00   -0.30890E-01 14862   0.914E-01    0.784E+00
RMM:   3    -0.707792786197E+03    0.29108E+00   -0.53905E-02 15290   0.430E-01    0.271E+00
RMM:   4    -0.707840667400E+03   -0.47881E-01   -0.14444E-02 14940   0.232E-01    0.382E+00
RMM:   5    -0.707779396994E+03    0.61270E-01   -0.17532E-02 15617   0.193E-01    0.224E+00
RMM:   6    -0.707766834901E+03    0.12562E-01   -0.94360E-03 15694   0.152E-01    0.150E+00
RMM:   7    -0.707762047680E+03    0.47872E-02   -0.58322E-03 15183   0.113E-01    0.737E-01
RMM:   8    -0.707761594174E+03    0.45351E-03   -0.21045E-03 14533   0.745E-02    0.581E-01
RMM:   9    -0.707761198856E+03    0.39532E-03   -0.74142E-04 13221   0.512E-02    0.478E-01
RMM:  10    -0.707761046323E+03    0.15253E-03   -0.28230E-04 10738   0.299E-02    0.418E-01
RMM:  11    -0.707760792560E+03    0.25376E-03   -0.18280E-04  9657   0.225E-02    0.316E-01
RMM:  12    -0.707760536249E+03    0.25631E-03   -0.20578E-04  9431   0.223E-02    0.156E-01
RMM:  13    -0.707760507445E+03    0.28803E-04   -0.72524E-05  8649   0.167E-02
  15 F= -.70776051E+03 E0= -.70715339E+03  d E =0.382205E-01  mag=     0.0023
       N       E                     dE             d eps       ncg     rms          rms(c)
DAV:   1    -0.707863112454E+03   -0.10258E+00   -0.36858E+00 15328   0.283E+00    0.740E-01
RMM:   2    -0.708018149732E+03   -0.15504E+00   -0.10736E-01 14866   0.549E-01    0.523E+00
RMM:   3    -0.707873914496E+03    0.14424E+00   -0.18939E-02 15058   0.270E-01    0.152E+00
RMM:   4    -0.707882569027E+03   -0.86545E-02   -0.50085E-03 14847   0.143E-01    0.180E+00
RMM:   5    -0.707877246672E+03    0.53224E-02   -0.33219E-03 14852   0.957E-02    0.155E+00
RMM:   6    -0.707871482817E+03    0.57639E-02   -0.26499E-03 15178   0.851E-02    0.113E+00
RMM:   7    -0.707867032174E+03    0.44506E-02   -0.27273E-03 15443   0.748E-02    0.389E-01
RMM:   8    -0.707866701120E+03    0.33105E-03   -0.79490E-04 13536   0.456E-02    0.220E-01
RMM:   9    -0.707866667958E+03    0.33161E-04   -0.26107E-04 10469   0.312E-02
  16 F= -.70786667E+03 E0= -.70726108E+03  d E =-.679400E-01  mag=     0.0021
       N       E                     dE             d eps       ncg     rms          rms(c)
DAV:   1    -0.707843033754E+03    0.23667E-01   -0.26288E+00 15376   0.224E+00    0.544E-01
RMM:   2    -0.707858555701E+03   -0.15522E-01   -0.51794E-02 14846   0.387E-01    0.163E+00
RMM:   3    -0.707863223122E+03   -0.46674E-02   -0.92085E-03 15966   0.153E-01    0.178E+00
RMM:   4    -0.707853017114E+03    0.10206E-01   -0.23124E-03 15292   0.733E-02    0.131E+00
RMM:   5    -0.707853383902E+03   -0.36679E-03   -0.19960E-03 14703   0.738E-02    0.142E+00
RMM:   6    -0.707853069929E+03    0.31397E-03   -0.41324E-04 11676   0.350E-02    0.139E+00
RMM:   7    -0.707851827103E+03    0.12428E-02   -0.33584E-04 11129   0.287E-02    0.143E+00
RMM:   8    -0.707852893497E+03   -0.10664E-02   -0.18151E-03 15476   0.599E-02    0.118E+00
RMM:   9    -0.707858040850E+03   -0.51474E-02   -0.16636E-02 24510   0.167E-01    0.115E+00
RMM:  10    -0.707862856606E+03   -0.48158E-02   -0.37482E-03 19502   0.808E-02    0.194E+00
RMM:  11    -0.707856628248E+03    0.62284E-02   -0.25897E-03 16394   0.681E-02    0.150E+00
RMM:  12    -0.707848217621E+03    0.84106E-02   -0.15197E-02 24097   0.159E-01    0.527E-01
RMM:  13    -0.707847461316E+03    0.75630E-03   -0.10885E-03 14749   0.446E-02    0.336E-01
RMM:  14    -0.707847347028E+03    0.11429E-03   -0.17165E-04  9057   0.227E-02    0.297E-01
RMM:  15    -0.707847285468E+03    0.61561E-04   -0.66792E-05  8814   0.173E-02
  17 F= -.70784729E+03 E0= -.70724100E+03  d E =0.193825E-01  mag=     0.0019
       N       E                     dE             d eps       ncg     rms          rms(c)
DAV:   1    -0.707883832992E+03   -0.36486E-01   -0.10095E+00 15360   0.139E+00    0.404E-01
RMM:   2    -0.707895377584E+03   -0.11545E-01   -0.21641E-02 14836   0.251E-01    0.141E+00
RMM:   3    -0.707889009635E+03    0.63679E-02   -0.36946E-03 15531   0.103E-01    0.886E-01
RMM:   4    -0.707893993592E+03   -0.49840E-02   -0.14580E-03 14406   0.664E-02    0.125E+00
RMM:   5    -0.707885860284E+03    0.81333E-02   -0.78359E-04 13678   0.541E-02    0.427E-01
RMM:   6    -0.707886322449E+03   -0.46217E-03   -0.61861E-04 12938   0.411E-02    0.400E-01
RMM:   7    -0.707885989655E+03    0.33279E-03   -0.35737E-04 11376   0.340E-02    0.307E-01
RMM:   8    -0.707885972878E+03    0.16777E-04   -0.13847E-04  8650   0.225E-02
  18 F= -.70788597E+03 E0= -.70728057E+03  d E =-.193049E-01  mag=     0.0018
       N       E                     dE             d eps       ncg     rms          rms(c)
DAV:   1    -0.707898792456E+03   -0.12803E-01   -0.32532E-01 15472   0.780E-01    0.219E-01
RMM:   2    -0.707939405234E+03   -0.40613E-01   -0.87308E-03 14889   0.174E-01    0.254E+00
RMM:   3    -0.707898894548E+03    0.40511E-01   -0.19387E-03 14616   0.100E-01    0.378E-01
RMM:   4    -0.707899179815E+03   -0.28527E-03   -0.67132E-04 13413   0.472E-02    0.321E-01
RMM:   5    -0.707899165607E+03    0.14208E-04   -0.26425E-04 10521   0.315E-02    0.217E-01
RMM:   6    -0.707899541792E+03   -0.37618E-03   -0.16187E-04  8975   0.231E-02    0.310E-01
RMM:   7    -0.707899401411E+03    0.14038E-03   -0.11751E-04  8551   0.203E-02    0.266E-01
RMM:   8    -0.707899086748E+03    0.31466E-03   -0.84143E-05  8381   0.159E-02    0.144E-01
RMM:   9    -0.707899029020E+03    0.57727E-04   -0.45678E-05  8183   0.128E-02
  19 F= -.70789903E+03 E0= -.70729334E+03  d E =-.130561E-01  mag=     0.0017
       N       E                     dE             d eps       ncg     rms          rms(c)
DAV:   1    -0.707900120869E+03   -0.10341E-02   -0.51647E-02 15520   0.309E-01    0.905E-02
RMM:   2    -0.707900560433E+03   -0.43956E-03   -0.10448E-03 14328   0.638E-02    0.238E-01
RMM:   3    -0.707900244767E+03    0.31567E-03   -0.25109E-04  9735   0.273E-02    0.105E-01
RMM:   4    -0.707900871190E+03   -0.62642E-03   -0.12676E-04  8620   0.210E-02    0.353E-01
RMM:   5    -0.707900301826E+03    0.56936E-03   -0.51298E-05  8226   0.167E-02    0.157E-01
RMM:   6    -0.707900200785E+03    0.10104E-03   -0.32128E-05  7817   0.959E-03    0.775E-02
RMM:   7    -0.707900211925E+03   -0.11140E-04   -0.15952E-05  7726   0.830E-03    0.383E-02
RMM:   8    -0.707900217196E+03   -0.52716E-05   -0.75583E-06  6830   0.534E-03
  20 F= -.70790022E+03 E0= -.70729466E+03  d E =-.142443E-01  mag=     0.0016
       N       E                     dE             d eps       ncg     rms          rms(c)
DAV:   1    -0.707907106992E+03   -0.68951E-02   -0.18251E-01 15424   0.550E-01    0.147E-01
RMM:   2    -0.707908315700E+03   -0.12087E-02   -0.37423E-03 14842   0.116E-01    0.435E-01
RMM:   3    -0.707907572577E+03    0.74312E-03   -0.98533E-04 14270   0.495E-02    0.234E-01
RMM:   4    -0.707908397525E+03   -0.82495E-03   -0.26183E-04 10284   0.293E-02    0.424E-01
RMM:   5    -0.707907490766E+03    0.90676E-03   -0.16095E-04  9048   0.257E-02    0.230E-01
RMM:   6    -0.707907476918E+03    0.13848E-04   -0.16108E-04  8874   0.205E-02    0.188E-01
RMM:   7    -0.707907289443E+03    0.18747E-03   -0.86818E-05  8290   0.175E-02    0.645E-02
RMM:   8    -0.707907303988E+03   -0.14545E-04   -0.31588E-05  7992   0.111E-02
  21 F= -.70790730E+03 E0= -.70730164E+03  d E =-.708679E-02  mag=     0.0015
       N       E                     dE             d eps       ncg     rms          rms(c)
DAV:   1    -0.707907879159E+03   -0.58972E-03   -0.27916E-02 15504   0.215E-01    0.680E-02
RMM:   2    -0.707908285526E+03   -0.40637E-03   -0.65126E-04 12798   0.472E-02    0.261E-01
RMM:   3    -0.707907976754E+03    0.30877E-03   -0.15245E-04  8695   0.226E-02    0.122E-01
RMM:   4    -0.707908084183E+03   -0.10743E-03   -0.65893E-05  8179   0.166E-02    0.169E-01
RMM:   5    -0.707907925252E+03    0.15893E-03   -0.26416E-05  7985   0.108E-02    0.708E-02
RMM:   6    -0.707907930468E+03   -0.52164E-05   -0.12935E-05  7311   0.713E-03    0.653E-02
RMM:   7    -0.707907914386E+03    0.16082E-04   -0.12208E-05  7139   0.676E-03    0.274E-02
RMM:   8    -0.707907920540E+03   -0.61540E-05   -0.47494E-06  6475   0.455E-03
  22 F= -.70790792E+03 E0= -.70730221E+03  d E =-.770334E-02  mag=     0.0013
       N       E                     dE             d eps       ncg     rms          rms(c)
DAV:   1    -0.707915719750E+03   -0.78054E-02   -0.20576E-01 15360   0.554E-01    0.148E-01
RMM:   2    -0.707916283711E+03   -0.56396E-03   -0.35505E-03 14792   0.124E-01    0.299E-01
RMM:   3    -0.707916127725E+03    0.15599E-03   -0.99240E-04 14219   0.499E-02    0.204E-01
RMM:   4    -0.707917864015E+03   -0.17363E-02   -0.26953E-04 10299   0.272E-02    0.564E-01
RMM:   5    -0.707916418945E+03    0.14451E-02   -0.17022E-04  9136   0.265E-02    0.307E-01
RMM:   6    -0.707916171212E+03    0.24773E-03   -0.14296E-04  8589   0.212E-02    0.241E-01
RMM:   7    -0.707916036320E+03    0.13489E-03   -0.16614E-04  8839   0.219E-02    0.130E-01
RMM:   8    -0.707915963100E+03    0.73221E-04   -0.52385E-05  8203   0.145E-02
  23 F= -.70791596E+03 E0= -.70730998E+03  d E =-.804256E-02  mag=     0.0013
       N       E                     dE             d eps       ncg     rms          rms(c)
DAV:   1    -0.707920380927E+03   -0.43446E-02   -0.69882E-01 15296   0.102E+00    0.272E-01
RMM:   2    -0.707924957761E+03   -0.45768E-02   -0.12173E-02 14842   0.228E-01    0.855E-01
RMM:   3    -0.707922054678E+03    0.29031E-02   -0.36937E-03 16775   0.919E-02    0.472E-01
RMM:   4    -0.707924953806E+03   -0.28991E-02   -0.62937E-04 13438   0.440E-02    0.804E-01
RMM:   5    -0.707922606735E+03    0.23471E-02   -0.68561E-04 13545   0.439E-02    0.554E-01
RMM:   6    -0.707922002805E+03    0.60393E-03   -0.76783E-04 13692   0.435E-02    0.392E-01
RMM:   7    -0.707921420572E+03    0.58223E-03   -0.45759E-04 12496   0.340E-02    0.181E-01
RMM:   8    -0.707921410624E+03    0.99484E-05   -0.10255E-04  8772   0.201E-02
  24 F= -.70792141E+03 E0= -.70731483E+03  d E =-.134901E-01  mag=     0.0012
       N       E                     dE             d eps       ncg     rms          rms(c)
DAV:   1    -0.707926999832E+03   -0.55793E-02   -0.13454E-01 15504   0.426E-01    0.165E-01
RMM:   2    -0.707927490519E+03   -0.49069E-03   -0.25553E-03 14758   0.980E-02    0.280E-01
RMM:   3    -0.707927376171E+03    0.11435E-03   -0.75169E-04 13619   0.447E-02    0.212E-01
RMM:   4    -0.707927809132E+03   -0.43296E-03   -0.19795E-04  9450   0.234E-02    0.309E-01
RMM:   5    -0.707927757170E+03    0.51962E-04   -0.20835E-04  9597   0.261E-02    0.328E-01
RMM:   6    -0.707927318734E+03    0.43844E-03   -0.86961E-05  8403   0.205E-02    0.181E-01
RMM:   7    -0.707927190948E+03    0.12779E-03   -0.54513E-05  8245   0.138E-02    0.651E-02
RMM:   8    -0.707927211101E+03   -0.20154E-04   -0.24697E-05  7866   0.917E-03
  25 F= -.70792721E+03 E0= -.70732061E+03  d E =-.580048E-02  mag=     0.0011
       N       E                     dE             d eps       ncg     rms          rms(c)
DAV:   1    -0.707931509729E+03   -0.43188E-02   -0.12194E+00 15248   0.128E+00    0.368E-01
RMM:   2    -0.707947998336E+03   -0.16489E-01   -0.20297E-02 14854   0.281E-01    0.175E+00
RMM:   3    -0.707936596403E+03    0.11402E-01   -0.59409E-03 16822   0.121E-01    0.992E-01
RMM:   4    -0.707943436934E+03   -0.68405E-02   -0.12460E-03 14443   0.599E-02    0.143E+00
RMM:   5    -0.707934329690E+03    0.91072E-02   -0.16568E-03 14727   0.626E-02    0.771E-01
RMM:   6    -0.707933902161E+03    0.42753E-03   -0.17464E-03 15877   0.630E-02    0.540E-01
RMM:   7    -0.707932873878E+03    0.10283E-02   -0.55547E-04 13302   0.384E-02    0.317E-01
RMM:   8    -0.707932966172E+03   -0.92294E-04   -0.19258E-04  9725   0.255E-02
  26 F= -.70793297E+03 E0= -.70732571E+03  d E =-.115555E-01  mag=     0.0010
       N       E                     dE             d eps       ncg     rms          rms(c)
DAV:   1    -0.707933822882E+03   -0.94900E-03   -0.12505E-01 15456   0.408E-01    0.313E-01
RMM:   2    -0.708036408406E+03   -0.10259E+00   -0.87688E-03 14897   0.145E-01    0.399E+00
RMM:   3    -0.707932346644E+03    0.10406E+00   -0.35900E-03 14846   0.136E-01    0.415E-01
RMM:   4    -0.707933126150E+03   -0.77951E-03   -0.88073E-04 13681   0.608E-02    0.172E-01
RMM:   5    -0.707933414603E+03   -0.28845E-03   -0.27324E-04 10447   0.306E-02    0.167E-01
RMM:   6    -0.707933381491E+03    0.33112E-04   -0.12680E-04  8332   0.208E-02    0.162E-01
RMM:   7    -0.707933418970E+03   -0.37479E-04   -0.59342E-05  8047   0.143E-02    0.166E-01
RMM:   8    -0.707933306159E+03    0.11281E-03   -0.46846E-05  7944   0.120E-02    0.107E-01
RMM:   9    -0.707933274287E+03    0.31872E-04   -0.21373E-05  7301   0.896E-03
  27 F= -.70793327E+03 E0= -.70732642E+03  d E =-.118637E-01  mag=     0.0009
       N       E                     dE             d eps       ncg     rms          rms(c)
DAV:   1    -0.707936555481E+03   -0.32493E-02   -0.32531E-02 15584   0.273E-01    0.625E-02
RMM:   2    -0.707937389866E+03   -0.83438E-03   -0.79361E-04 13279   0.535E-02    0.371E-01
RMM:   3    -0.707936606237E+03    0.78363E-03   -0.15167E-04  8459   0.251E-02    0.978E-02
RMM:   4    -0.707936684514E+03   -0.78277E-04   -0.56097E-05  8041   0.161E-02    0.129E-01
RMM:   5    -0.707936687331E+03   -0.28174E-05   -0.17616E-05  7699   0.853E-03    0.122E-01
RMM:   6    -0.707936637900E+03    0.49431E-04   -0.75602E-06  6886   0.532E-03    0.926E-02
RMM:   7    -0.707936615339E+03    0.22561E-04   -0.90640E-06  7264   0.570E-03    0.482E-02
RMM:   8    -0.707936614385E+03    0.95397E-06   -0.40580E-06  6277   0.434E-03
  28 F= -.70793661E+03 E0= -.70732975E+03  d E =-.334010E-02  mag=     0.0009
       N       E                     dE             d eps       ncg     rms          rms(c)
DAV:   1    -0.707937169414E+03   -0.55407E-03   -0.12605E-02 15648   0.170E-01    0.443E-02
RMM:   2    -0.707937511150E+03   -0.34174E-03   -0.28631E-04  9574   0.321E-02    0.208E-01
RMM:   3    -0.707937328824E+03    0.18233E-03   -0.84094E-05  8026   0.186E-02    0.181E-01
RMM:   4    -0.707937239235E+03    0.89589E-04   -0.23500E-05  7946   0.112E-02    0.104E-01
RMM:   5    -0.707937207452E+03    0.31784E-04   -0.59981E-06  6799   0.562E-03    0.824E-02
RMM:   6    -0.707937218052E+03   -0.10600E-04   -0.44233E-06  5815   0.431E-03    0.796E-02
RMM:   7    -0.707937200472E+03    0.17580E-04   -0.30571E-06  5742   0.399E-03    0.599E-02
RMM:   8    -0.707937188735E+03    0.11737E-04   -0.15765E-06  4168   0.336E-03
  29 F= -.70793719E+03 E0= -.70733031E+03  d E =-.391445E-02  mag=     0.0008
       N       E                     dE             d eps       ncg     rms          rms(c)
DAV:   1    -0.707939707277E+03   -0.25068E-02   -0.28532E-02 15440   0.223E-01    0.656E-02
RMM:   2    -0.707939889863E+03   -0.18259E-03   -0.56969E-04 12940   0.472E-02    0.173E-01
RMM:   3    -0.707940088773E+03   -0.19891E-03   -0.14694E-04  8424   0.233E-02    0.253E-01
RMM:   4    -0.707939785455E+03    0.30332E-03   -0.38594E-05  8006   0.147E-02    0.118E-01
RMM:   5    -0.707939752707E+03    0.32748E-04   -0.13352E-05  7537   0.671E-03    0.821E-02
RMM:   6    -0.707939753571E+03   -0.86397E-06   -0.11552E-05  7160   0.651E-03    0.658E-02
RMM:   7    -0.707939763876E+03   -0.10305E-04   -0.15234E-05  7560   0.731E-03    0.651E-02
RMM:   8    -0.707939756260E+03    0.76154E-05   -0.66896E-06  6651   0.504E-03
  30 F= -.70793976E+03 E0= -.70733270E+03  d E =-.256753E-02  mag=     0.0007
       N       E                     dE             d eps       ncg     rms          rms(c)
DAV:   1    -0.707941859139E+03   -0.20953E-02   -0.13393E-01 15312   0.483E-01    0.148E-01
RMM:   2    -0.707943657836E+03   -0.17987E-02   -0.27066E-03 14748   0.102E-01    0.534E-01
RMM:   3    -0.707944512604E+03   -0.85477E-03   -0.79205E-04 13871   0.511E-02    0.662E-01
RMM:   4    -0.707942325782E+03    0.21868E-02   -0.21418E-04  9647   0.311E-02    0.272E-01
RMM:   5    -0.707942222372E+03    0.10341E-03   -0.69746E-05  8417   0.178E-02    0.228E-01
RMM:   6    -0.707942131134E+03    0.91237E-04   -0.46305E-05  8142   0.127E-02    0.176E-01
RMM:   7    -0.707942107169E+03    0.23965E-04   -0.61300E-05  8041   0.143E-02    0.132E-01
RMM:   8    -0.707942051750E+03    0.55420E-04   -0.29591E-05  7867   0.106E-02
  31 F= -.70794205E+03 E0= -.70733470E+03  d E =-.486301E-02  mag=     0.0007
       N       E                     dE             d eps       ncg     rms          rms(c)
DAV:   1    -0.707943985098E+03   -0.18779E-02   -0.19653E-02 15648   0.165E-01    0.882E-02
RMM:   2    -0.707947648598E+03   -0.36635E-02   -0.59062E-04 13115   0.420E-02    0.747E-01
RMM:   3    -0.707944184607E+03    0.34640E-02   -0.26036E-04  9986   0.332E-02    0.261E-01
RMM:   4    -0.707944125362E+03    0.59245E-04   -0.73100E-05  8082   0.201E-02    0.142E-01
RMM:   5    -0.707944023101E+03    0.10226E-03   -0.19440E-05  7870   0.100E-02    0.967E-02
RMM:   6    -0.707944017548E+03    0.55525E-05   -0.11284E-05  7112   0.677E-03    0.672E-02
RMM:   7    -0.707944020074E+03   -0.25257E-05   -0.59450E-06  6725   0.507E-03    0.671E-02
RMM:   8    -0.707944030229E+03   -0.10155E-04   -0.60358E-06  6484   0.471E-03
  32 F= -.70794403E+03 E0= -.70733665E+03  d E =-.197848E-02  mag=     0.0006
       N       E                     dE             d eps       ncg     rms          rms(c)
DAV:   1    -0.707947998362E+03   -0.39783E-02   -0.17673E-01 15296   0.492E-01    0.137E-01
RMM:   2    -0.707948628513E+03   -0.63015E-03   -0.28211E-03 14742   0.103E-01    0.331E-01
RMM:   3    -0.707948552614E+03    0.75900E-04   -0.62607E-04 12855   0.460E-02    0.272E-01
RMM:   4    -0.707948299506E+03    0.25311E-03   -0.20701E-04  9622   0.231E-02    0.169E-01
RMM:   5    -0.707948395077E+03   -0.95570E-04   -0.70590E-05  8368   0.167E-02    0.222E-01
RMM:   6    -0.707948397675E+03   -0.25987E-05   -0.86102E-05  8363   0.160E-02    0.190E-01
RMM:   7    -0.707948250119E+03    0.14756E-03   -0.84674E-05  8215   0.154E-02    0.121E-01
RMM:   8    -0.707948231797E+03    0.18322E-04   -0.54932E-05  8009   0.135E-02
  33 F= -.70794823E+03 E0= -.70734029E+03  d E =-.618005E-02  mag=     0.0006
       N       E                     dE             d eps       ncg     rms          rms(c)
DAV:   1    -0.707946766919E+03    0.14832E-02   -0.70575E-01 15184   0.987E-01    0.256E-01
RMM:   2    -0.707952508428E+03   -0.57415E-02   -0.11786E-02 14850   0.206E-01    0.960E-01
RMM:   3    -0.707948900650E+03    0.36078E-02   -0.29861E-03 16015   0.883E-02    0.512E-01
RMM:   4    -0.707949988395E+03   -0.10877E-02   -0.92981E-04 13859   0.512E-02    0.665E-01
RMM:   5    -0.707948494540E+03    0.14939E-02   -0.39464E-04 12157   0.362E-02    0.429E-01
RMM:   6    -0.707947979839E+03    0.51470E-03   -0.32719E-04 11217   0.320E-02    0.302E-01
RMM:   7    -0.707947677087E+03    0.30275E-03   -0.21825E-04  9709   0.255E-02    0.150E-01
RMM:   8    -0.707947672299E+03    0.47877E-05   -0.64787E-05  8560   0.167E-02
  34 F= -.70794767E+03 E0= -.70733876E+03  d E =-.562055E-02  mag=     0.0005
       N       E                     dE             d eps       ncg     rms          rms(c)
DAV:   1    -0.707949608893E+03   -0.19318E-02   -0.23119E-01 15296   0.564E-01    0.203E-01
RMM:   2    -0.707961696624E+03   -0.12088E-01   -0.48652E-03 14858   0.128E-01    0.139E+00
RMM:   3    -0.707950375953E+03    0.11321E-01   -0.11906E-03 14007   0.677E-02    0.439E-01
RMM:   4    -0.707950079235E+03    0.29672E-03   -0.44980E-04 11926   0.423E-02    0.289E-01
RMM:   5    -0.707949984614E+03    0.94621E-04   -0.14001E-04  8964   0.228E-02    0.248E-01
RMM:   6    -0.707949787886E+03    0.19673E-03   -0.10760E-04  8487   0.194E-02    0.178E-01
RMM:   7    -0.707949712000E+03    0.75885E-04   -0.63876E-05  8098   0.152E-02    0.102E-01
RMM:   8    -0.707949680479E+03    0.31521E-04   -0.37192E-05  7915   0.110E-02
  35 F= -.70794968E+03 E0= -.70734120E+03  d E =-.762873E-02  mag=     0.0005
       N       E                     dE             d eps       ncg     rms          rms(c)
DAV:   1    -0.707952541755E+03   -0.28298E-02   -0.54705E-02 15520   0.267E-01    0.975E-02
RMM:   2    -0.707957807923E+03   -0.52662E-02   -0.12585E-03 14364   0.601E-02    0.903E-01
RMM:   3    -0.707952510937E+03    0.52970E-02   -0.32557E-04 10800   0.374E-02    0.180E-01
RMM:   4    -0.707952641280E+03   -0.13034E-03   -0.12281E-04  8373   0.232E-02    0.166E-01
RMM:   5    -0.707952649362E+03   -0.80814E-05   -0.35824E-05  7971   0.125E-02    0.139E-01
RMM:   6    -0.707952574402E+03    0.74959E-04   -0.18565E-05  7460   0.808E-03    0.971E-02
RMM:   7    -0.707952577583E+03   -0.31808E-05   -0.16287E-05  7653   0.752E-03    0.781E-02
RMM:   8    -0.707952555319E+03    0.22264E-04   -0.11401E-05  7097   0.633E-03
  36 F= -.70795256E+03 E0= -.70734396E+03  d E =-.287484E-02  mag=     0.0004
       N       E                     dE             d eps       ncg     rms          rms(c)
DAV:   1    -0.707954558495E+03   -0.19809E-02   -0.20560E-01 15312   0.516E-01    0.134E-01
RMM:   2    -0.707959768185E+03   -0.52097E-02   -0.33745E-03 14843   0.104E-01    0.915E-01
RMM:   3    -0.707955028380E+03    0.47398E-02   -0.78958E-04 13207   0.493E-02    0.291E-01
RMM:   4    -0.707955412163E+03   -0.38378E-03   -0.23230E-04  9701   0.281E-02    0.370E-01
RMM:   5    -0.707955041962E+03    0.37020E-03   -0.11529E-04  8668   0.207E-02    0.250E-01
RMM:   6    -0.707954884448E+03    0.15751E-03   -0.57398E-05  8170   0.155E-02    0.184E-01
RMM:   7    -0.707954880171E+03    0.42770E-05   -0.63292E-05  8087   0.138E-02    0.145E-01
RMM:   8    -0.707954814666E+03    0.65505E-04   -0.25562E-05  7728   0.106E-02
  37 F= -.70795481E+03 E0= -.70734557E+03  d E =-.513419E-02  mag=     0.0004
       N       E                     dE             d eps       ncg     rms          rms(c)
DAV:   1    -0.707956030450E+03   -0.11503E-02   -0.14271E-02 15520   0.184E-01    0.693E-02
RMM:   2    -0.707958443003E+03   -0.24126E-02   -0.50615E-04 13531   0.412E-02    0.591E-01
RMM:   3    -0.707956195013E+03    0.22480E-02   -0.18053E-04  8852   0.284E-02    0.226E-01
RMM:   4    -0.707956122538E+03    0.72475E-04   -0.55732E-05  7996   0.176E-02    0.110E-01
RMM:   5    -0.707956061981E+03    0.60557E-04   -0.14530E-05  7923   0.829E-03    0.700E-02
RMM:   6    -0.707956084094E+03   -0.22113E-04   -0.67286E-06  6724   0.526E-03    0.785E-02
RMM:   7    -0.707956088497E+03   -0.44031E-05   -0.35572E-06  5702   0.409E-03    0.813E-02
RMM:   8    -0.707956075560E+03    0.12937E-04   -0.24928E-06  5321   0.377E-03
  38 F= -.70795608E+03 E0= -.70734676E+03  d E =-.126089E-02  mag=     0.0004
       N       E                     dE             d eps       ncg     rms          rms(c)
DAV:   1    -0.707956492916E+03   -0.40442E-03   -0.20470E-02 15504   0.219E-01    0.393E-02
RMM:   2    -0.707956637645E+03   -0.14473E-03   -0.44971E-04 12219   0.438E-02    0.133E-01
RMM:   3    -0.707956551844E+03    0.85801E-04   -0.86578E-05  8130   0.184E-02    0.677E-02
RMM:   4    -0.707956603380E+03   -0.51536E-04   -0.24430E-05  7897   0.105E-02    0.117E-01
RMM:   5    -0.707956534168E+03    0.69211E-04   -0.11430E-05  7508   0.701E-03    0.385E-02
RMM:   6    -0.707956545289E+03   -0.11121E-04   -0.58581E-06  6788   0.502E-03    0.376E-02
RMM:   7    -0.707956554371E+03   -0.90824E-05   -0.16578E-06  4811   0.355E-03    0.445E-02
RMM:   8    -0.707956548528E+03    0.58430E-05   -0.16227E-06  4341   0.329E-03
  39 F= -.70795655E+03 E0= -.70734714E+03  d E =-.173386E-02  mag=     0.0003
       N       E                     dE             d eps       ncg     rms          rms(c)
DAV:   1    -0.707957241371E+03   -0.68700E-03   -0.17953E-02 15504   0.200E-01    0.433E-02
RMM:   2    -0.707957386198E+03   -0.14483E-03   -0.40336E-04 11299   0.406E-02    0.154E-01
RMM:   3    -0.707957305568E+03    0.80630E-04   -0.79706E-05  8130   0.184E-02    0.843E-02
RMM:   4    -0.707957348113E+03   -0.42546E-04   -0.30748E-05  7968   0.119E-02    0.113E-01
RMM:   5    -0.707957286696E+03    0.61417E-04   -0.11269E-05  7644   0.748E-03    0.601E-02
RMM:   6    -0.707957276644E+03    0.10052E-04   -0.46605E-06  6570   0.452E-03    0.370E-02
RMM:   7    -0.707957277172E+03   -0.52724E-06   -0.30685E-06  5395   0.383E-03    0.223E-02
RMM:   8    -0.707957279029E+03   -0.18574E-05   -0.11815E-06  4054   0.321E-03
  40 F= -.70795728E+03 E0= -.70734790E+03  d E =-.730501E-03  mag=     0.0003
       N       E                     dE             d eps       ncg     rms          rms(c)
DAV:   1    -0.707957341327E+03   -0.64156E-04   -0.21652E-03 15280   0.697E-02    0.130E-02
RMM:   2    -0.707957356228E+03   -0.14900E-04   -0.50462E-05  7910   0.144E-02    0.419E-02
RMM:   3    -0.707957345761E+03    0.10466E-04   -0.86507E-06  7702   0.699E-03    0.196E-02
RMM:   4    -0.707957359447E+03   -0.13686E-04   -0.25319E-06  5285   0.357E-03    0.529E-02
RMM:   5    -0.707957345863E+03    0.13584E-04   -0.55067E-07  3377   0.308E-03    0.274E-02
RMM:   6    -0.707957345326E+03    0.53757E-06   -0.10737E-07  2070   0.272E-03    0.206E-02
RMM:   7    -0.707957344931E+03    0.39506E-06   -0.94587E-08  1767   0.266E-03    0.965E-03
RMM:   8    -0.707957345859E+03   -0.92835E-06   -0.66710E-08  1657   0.261E-03
  41 F= -.70795735E+03 E0= -.70734794E+03  d E =-.797331E-03  mag=     0.0003
       N       E                     dE             d eps       ncg     rms          rms(c)
DAV:   1    -0.707957726252E+03   -0.38132E-03   -0.13132E-02 15504   0.177E-01    0.352E-02
RMM:   2    -0.707957855629E+03   -0.12938E-03   -0.30986E-04  9732   0.342E-02    0.150E-01
RMM:   3    -0.707957773864E+03    0.81765E-04   -0.57738E-05  7960   0.167E-02    0.834E-02
RMM:   4    -0.707957754821E+03    0.19043E-04   -0.15975E-05  7889   0.881E-03    0.496E-02
RMM:   5    -0.707957752649E+03    0.21724E-05   -0.64006E-06  7108   0.541E-03    0.370E-02
RMM:   6    -0.707957750247E+03    0.24015E-05   -0.40264E-06  5884   0.421E-03    0.339E-02
RMM:   7    -0.707957749784E+03    0.46336E-06   -0.25972E-06  5415   0.382E-03    0.193E-02
RMM:   8    -0.707957749460E+03    0.32393E-06   -0.13575E-06  3898   0.317E-03
  42 F= -.70795775E+03 E0= -.70734833E+03  d E =-.403601E-03  mag=     0.0003
       N       E                     dE             d eps       ncg     rms          rms(c)
DAV:   1    -0.707957749005E+03    0.77948E-06   -0.62307E-06  8560   0.540E-03    0.102E-02
RMM:   2    -0.707957812730E+03   -0.63725E-04   -0.62529E-06  6499   0.457E-03    0.100E-01
RMM:   3    -0.707957742251E+03    0.70478E-04   -0.34099E-06  5795   0.447E-03    0.294E-02
RMM:   4    -0.707957748280E+03   -0.60282E-05   -0.22345E-07  2275   0.251E-03    0.557E-03
RMM:   5    -0.707957749249E+03   -0.96953E-06   -0.26076E-08  1246   0.228E-03    0.631E-03
RMM:   6    -0.707957749226E+03    0.23130E-07   -0.13951E-08  1012   0.228E-03    0.626E-03
RMM:   7    -0.707957749128E+03    0.98255E-07   -0.13899E-08   930   0.230E-03    0.465E-03
RMM:   8    -0.707957749203E+03   -0.75663E-07   -0.32084E-08   961   0.235E-03
  43 F= -.70795775E+03 E0= -.70734834E+03  d E =-.403344E-03  mag=     0.0002
       N       E                     dE             d eps       ncg     rms          rms(c)
DAV:   1    -0.707957919048E+03   -0.16992E-03   -0.37229E-03 15312   0.891E-02    0.163E-02
RMM:   2    -0.707957936372E+03   -0.17323E-04   -0.73607E-05  7854   0.175E-02    0.566E-02
RMM:   3    -0.707957922478E+03    0.13894E-04   -0.12659E-05  7831   0.830E-03    0.235E-02
RMM:   4    -0.707957938734E+03   -0.16256E-04   -0.36560E-06  6143   0.409E-03    0.535E-02
RMM:   5    -0.707957922129E+03    0.16605E-04   -0.18759E-06  5021   0.355E-03    0.256E-02
RMM:   6    -0.707957923320E+03   -0.11911E-05   -0.23940E-07  2265   0.284E-03    0.164E-02
RMM:   7    -0.707957924557E+03   -0.12373E-05   -0.67277E-07  2643   0.294E-03    0.117E-02
RMM:   8    -0.707957925337E+03   -0.77969E-06   -0.68069E-07  2677   0.297E-03
  44 F= -.70795793E+03 E0= -.70734854E+03  d E =-.176133E-03  mag=     0.0002
