       N       E                     dE             d eps       ncg     rms          rms(c)
DAV:   1    -0.322316213336E+03   -0.32232E+03   -0.15981E-03  7536   0.167E-01    0.114E+00
RMM:   2    -0.322386982929E+03   -0.70770E-01   -0.52465E-02  8327   0.333E-01    0.314E+00
RMM:   3    -0.322337161182E+03    0.49822E-01   -0.30698E-02  8335   0.267E-01    0.194E+00
RMM:   4    -0.322315862378E+03    0.21299E-01   -0.16016E-02  8334   0.182E-01    0.144E+00
RMM:   5    -0.322277221731E+03    0.38641E-01   -0.12384E-02  8358   0.159E-01    0.944E-01
RMM:   6    -0.322248041237E+03    0.29180E-01   -0.60519E-03  8350   0.106E-01    0.678E-01
RMM:   7    -0.322193193111E+03    0.54848E-01   -0.49016E-03  8551   0.721E-02    0.653E-01
RMM:   8    -0.322111930407E+03    0.81263E-01   -0.46684E-03  8817   0.699E-02    0.587E-01
RMM:   9    -0.321889567451E+03    0.22236E+00   -0.15257E-02 10075   0.124E-01    0.834E-01
RMM:  10    -0.321632469373E+03    0.25710E+00   -0.12500E-02  9884   0.118E-01    0.602E-01
RMM:  11    -0.321532863508E+03    0.99606E-01   -0.31233E-03  8811   0.724E-02    0.455E-01
RMM:  12    -0.321422684528E+03    0.11018E+00   -0.20095E-03  8500   0.613E-02    0.461E-01
RMM:  13    -0.321382101089E+03    0.40583E-01   -0.95254E-04  8317   0.467E-02    0.379E-01
RMM:  14    -0.321405507388E+03   -0.23406E-01   -0.31005E-03  9114   0.617E-02    0.429E-01
RMM:  15    -0.321430244004E+03   -0.24737E-01   -0.19550E-03  8922   0.522E-02    0.362E-01
RMM:  16    -0.321476125622E+03   -0.45882E-01   -0.20723E-03  8941   0.496E-02    0.283E-01
RMM:  17    -0.321530666632E+03   -0.54541E-01   -0.23087E-03  8841   0.502E-02    0.276E-01
RMM:  18    -0.321592266113E+03   -0.61599E-01   -0.34062E-03  9311   0.601E-02    0.266E-01
RMM:  19    -0.321655004856E+03   -0.62739E-01   -0.34763E-03  9374   0.630E-02    0.274E-01
RMM:  20    -0.321744789084E+03   -0.89784E-01   -0.61941E-03 10086   0.811E-02    0.298E-01
RMM:  21    -0.321827604156E+03   -0.82815E-01   -0.41488E-03  9594   0.676E-02    0.205E-01
RMM:  22    -0.321910656806E+03   -0.83053E-01   -0.22174E-03  8835   0.500E-02    0.168E-01
RMM:  23    -0.322015140931E+03   -0.10448E+00   -0.18699E-03  8164   0.391E-02    0.147E-01
RMM:  24    -0.322073474372E+03   -0.58333E-01   -0.38576E-04  6223   0.246E-02    0.121E-01
RMM:  25    -0.322127104962E+03   -0.53631E-01   -0.24108E-04  5478   0.202E-02    0.109E-01
RMM:  26    -0.322175377891E+03   -0.48273E-01   -0.16058E-04  5112   0.168E-02    0.766E-02
RMM:  27    -0.322199081235E+03   -0.23703E-01   -0.10707E-04  4981   0.132E-02    0.760E-02
RMM:  28    -0.322230242591E+03   -0.31161E-01   -0.11330E-04  5048   0.126E-02    0.509E-02
RMM:  29    -0.322262511329E+03   -0.32269E-01   -0.86673E-05  4964   0.105E-02    0.488E-02
RMM:  30    -0.322293915284E+03   -0.31404E-01   -0.54723E-05  4874   0.912E-03    0.393E-02
RMM:  31    -0.322317504908E+03   -0.23590E-01   -0.29400E-05  4774   0.699E-03    0.282E-02
RMM:  32    -0.322325973373E+03   -0.84685E-02   -0.14895E-05  4286   0.518E-03    0.197E-02
RMM:  33    -0.322329414392E+03   -0.34410E-02   -0.53197E-06  2667   0.382E-03    0.157E-02
RMM:  34    -0.322330635929E+03   -0.12215E-02   -0.12162E-06  1498   0.306E-03    0.740E-03
RMM:  35    -0.322331383131E+03   -0.74720E-03   -0.15119E-06  1611   0.320E-03    0.670E-03
RMM:  36    -0.322331827038E+03   -0.44391E-03   -0.16656E-06  1593   0.319E-03    0.362E-03
RMM:  37    -0.322332038630E+03   -0.21159E-03   -0.20825E-06  1641   0.314E-03    0.295E-03
RMM:  38    -0.322332090418E+03   -0.51788E-04   -0.68054E-07  1179   0.284E-03
   1 F= -.32233209E+03 E0= -.32231291E+03  d E =-.322332E+03  mag=    17.4906
       N       E                     dE             d eps       ncg     rms          rms(c)
DAV:   1    -0.322257122675E+03    0.74916E-01   -0.42508E+00  8464   0.301E+00    0.741E-01
RMM:   2    -0.322271435413E+03   -0.14313E-01   -0.95613E-02  8331   0.396E-01    0.119E+00
RMM:   3    -0.322265816071E+03    0.56193E-02   -0.10418E-02  8341   0.159E-01    0.585E-01
RMM:   4    -0.322310161758E+03   -0.44346E-01   -0.12024E-02  8370   0.155E-01    0.234E+00
RMM:   5    -0.322269458448E+03    0.40703E-01   -0.90645E-03  8336   0.146E-01    0.891E-01
RMM:   6    -0.322266718950E+03    0.27395E-02   -0.40757E-03  8322   0.101E-01    0.600E-01
RMM:   7    -0.322265435318E+03    0.12836E-02   -0.21515E-03  8338   0.689E-02    0.342E-01
RMM:   8    -0.322265088038E+03    0.34728E-03   -0.11400E-03  8297   0.545E-02    0.223E-01
RMM:   9    -0.322264680883E+03    0.40716E-03   -0.37555E-04  6304   0.309E-02    0.791E-02
RMM:  10    -0.322264653582E+03    0.27301E-04   -0.89468E-05  4753   0.142E-02
   2 F= -.32226465E+03 E0= -.32224522E+03  d E =0.674368E-01  mag=    17.4884
       N       E                     dE             d eps       ncg     rms          rms(c)
DAV:   1    -0.322325252880E+03   -0.60572E-01   -0.25786E+00  8576   0.233E+00    0.574E-01
RMM:   2    -0.322334634134E+03   -0.93813E-02   -0.57964E-02  8331   0.310E-01    0.992E-01
RMM:   3    -0.322330352309E+03    0.42818E-02   -0.66646E-03  8340   0.128E-01    0.463E-01
RMM:   4    -0.322353011623E+03   -0.22659E-01   -0.65719E-03  8335   0.117E-01    0.169E+00
RMM:   5    -0.322333485013E+03    0.19527E-01   -0.52851E-03  8331   0.110E-01    0.765E-01
RMM:   6    -0.322331152842E+03    0.23322E-02   -0.28164E-03  8321   0.850E-02    0.514E-01
RMM:   7    -0.322329960965E+03    0.11919E-02   -0.13509E-03  8344   0.534E-02    0.243E-01
RMM:   8    -0.322329836006E+03    0.12496E-03   -0.70585E-04  7985   0.429E-02    0.177E-01
RMM:   9    -0.322329567211E+03    0.26880E-03   -0.23026E-04  5014   0.242E-02    0.646E-02
RMM:  10    -0.322329542839E+03    0.24372E-04   -0.56661E-05  4641   0.115E-02
   3 F= -.32232954E+03 E0= -.32231021E+03  d E =0.254758E-02  mag=    17.4858
       N       E                     dE             d eps       ncg     rms          rms(c)
DAV:   1    -0.322332267731E+03   -0.27005E-02   -0.10374E-01  8608   0.470E-01    0.123E-01
RMM:   2    -0.322332827951E+03   -0.56022E-03   -0.24945E-03  8069   0.661E-02    0.248E-01
RMM:   3    -0.322332507180E+03    0.32077E-03   -0.37745E-04  5490   0.318E-02    0.107E-01
RMM:   4    -0.322333155310E+03   -0.64813E-03   -0.26830E-04  5239   0.242E-02    0.287E-01
RMM:   5    -0.322332692242E+03    0.46307E-03   -0.22076E-04  4976   0.222E-02    0.164E-01
RMM:   6    -0.322332549482E+03    0.14276E-03   -0.15425E-04  4868   0.195E-02    0.967E-02
RMM:   7    -0.322332522383E+03    0.27100E-04   -0.50518E-05  4588   0.992E-03    0.376E-02
RMM:   8    -0.322332561348E+03   -0.38965E-04   -0.25923E-05  4543   0.807E-03
   4 F= -.32233256E+03 E0= -.32231334E+03  d E =-.470930E-03  mag=    17.4854
       N       E                     dE             d eps       ncg     rms          rms(c)
DAV:   1    -0.322332561234E+03   -0.38851E-04   -0.62620E-04  8544   0.441E-02    0.194E-02
RMM:   2    -0.322332639690E+03   -0.78456E-04   -0.55910E-05  4545   0.123E-02    0.834E-02
RMM:   3    -0.322332593222E+03    0.46468E-04   -0.26180E-05  4433   0.878E-03    0.174E-02
RMM:   4    -0.322332601775E+03   -0.85526E-05   -0.16642E-07  1064   0.283E-03    0.162E-02
RMM:   5    -0.322332610361E+03   -0.85867E-05   -0.16572E-07   875   0.298E-03    0.186E-02
RMM:   6    -0.322332621528E+03   -0.11167E-04   -0.21125E-07   855   0.264E-03    0.751E-03
RMM:   7    -0.322332644490E+03   -0.22962E-04   -0.20026E-08   899   0.273E-03    0.501E-03
RMM:   8    -0.322332661501E+03   -0.17011E-04   -0.87159E-08   908   0.287E-03
   5 F= -.32233266E+03 E0= -.32231344E+03  d E =-.571083E-03  mag=    17.4858
       N       E                     dE             d eps       ncg     rms          rms(c)
DAV:   1    -0.322323535842E+03    0.91086E-02   -0.74322E-01  8528   0.125E+00    0.253E-01
RMM:   2    -0.322325893323E+03   -0.23575E-02   -0.15347E-02  8324   0.169E-01    0.441E-01
RMM:   3    -0.322325784269E+03    0.10905E-03   -0.21035E-03  8303   0.721E-02    0.361E-01
RMM:   4    -0.322326727282E+03   -0.94301E-03   -0.12728E-03  8298   0.544E-02    0.474E-01
RMM:   5    -0.322325368616E+03    0.13587E-02   -0.77962E-04  8170   0.442E-02    0.274E-01
RMM:   6    -0.322325036954E+03    0.33166E-03   -0.43803E-04  6980   0.336E-02    0.172E-01
RMM:   7    -0.322324999303E+03    0.37650E-04   -0.23577E-04  5036   0.240E-02    0.130E-01
RMM:   8    -0.322324918612E+03    0.80691E-04   -0.13800E-04  4722   0.189E-02
   6 F= -.32232492E+03 E0= -.32230561E+03  d E =0.774289E-02  mag=    17.4856
       N       E                     dE             d eps       ncg     rms          rms(c)
DAV:   1    -0.322331861056E+03   -0.68618E-02   -0.59191E-01  8608   0.111E+00    0.228E-01
RMM:   2    -0.322333686710E+03   -0.18257E-02   -0.12279E-02  8324   0.152E-01    0.388E-01
RMM:   3    -0.322333567563E+03    0.11915E-03   -0.17369E-03  8276   0.657E-02    0.309E-01
RMM:   4    -0.322334703374E+03   -0.11358E-02   -0.10363E-03  8250   0.486E-02    0.465E-01
RMM:   5    -0.322333304833E+03    0.13985E-02   -0.66368E-04  8012   0.407E-02    0.247E-01
RMM:   6    -0.322333059617E+03    0.24522E-03   -0.36470E-04  6115   0.305E-02    0.165E-01
RMM:   7    -0.322332982017E+03    0.77600E-04   -0.19854E-04  4953   0.219E-02    0.104E-01
RMM:   8    -0.322332943268E+03    0.38749E-04   -0.10735E-04  4693   0.164E-02
   7 F= -.32233294E+03 E0= -.32231374E+03  d E =-.281767E-03  mag=    17.4855
       N       E                     dE             d eps       ncg     rms          rms(c)
DAV:   1    -0.322332929456E+03    0.52561E-04   -0.36965E-03  8672   0.967E-02    0.394E-02
RMM:   2    -0.322333163443E+03   -0.23399E-03   -0.24470E-04  5031   0.256E-02    0.176E-01
RMM:   3    -0.322332939798E+03    0.22364E-03   -0.11482E-04  4605   0.184E-02    0.309E-02
RMM:   4    -0.322332941165E+03   -0.13667E-05   -0.14847E-05  4385   0.561E-03    0.196E-02
RMM:   5    -0.322332948237E+03   -0.70721E-05   -0.32177E-06  2446   0.373E-03    0.272E-02
RMM:   6    -0.322332947331E+03    0.90641E-06   -0.44512E-07  1134   0.316E-03    0.194E-02
RMM:   7    -0.322332948628E+03   -0.12968E-05   -0.17331E-07   918   0.271E-03    0.101E-02
RMM:   8    -0.322332950644E+03   -0.20168E-05   -0.76768E-08   815   0.277E-03
   8 F= -.32233295E+03 E0= -.32231373E+03  d E =-.289143E-03  mag=    17.4857
       N       E                     dE             d eps       ncg     rms          rms(c)
DAV:   1    -0.322325028096E+03    0.79205E-02   -0.42811E-01  8592   0.944E-01    0.159E-01
RMM:   2    -0.322325869858E+03   -0.84176E-03   -0.76331E-03  8320   0.133E-01    0.186E-01
RMM:   3    -0.322326228181E+03   -0.35832E-03   -0.13928E-03  8267   0.600E-02    0.242E-01
RMM:   4    -0.322327109945E+03   -0.88176E-03   -0.75404E-04  8099   0.416E-02    0.404E-01
RMM:   5    -0.322325869785E+03    0.12402E-02   -0.33732E-04  5720   0.300E-02    0.135E-01
RMM:   6    -0.322325832151E+03    0.37634E-04   -0.14056E-04  4799   0.193E-02    0.960E-02
RMM:   7    -0.322325808770E+03    0.23381E-04   -0.76074E-05  4568   0.137E-02    0.673E-02
RMM:   8    -0.322325794787E+03    0.13983E-04   -0.53685E-05  4522   0.116E-02
   9 F= -.32232579E+03 E0= -.32230653E+03  d E =0.715586E-02  mag=    17.4852
       N       E                     dE             d eps       ncg     rms          rms(c)
DAV:   1    -0.322332334115E+03   -0.65253E-02   -0.37249E-01  8624   0.882E-01    0.152E-01
RMM:   2    -0.322333199824E+03   -0.86571E-03   -0.67317E-03  8332   0.125E-01    0.210E-01
RMM:   3    -0.322333468621E+03   -0.26880E-03   -0.12659E-03  8314   0.579E-02    0.245E-01
RMM:   4    -0.322334106375E+03   -0.63775E-03   -0.67742E-04  7989   0.395E-02    0.368E-01
RMM:   5    -0.322333121808E+03    0.98457E-03   -0.30218E-04  5332   0.284E-02    0.138E-01
RMM:   6    -0.322333056783E+03    0.65025E-04   -0.13626E-04  4771   0.189E-02    0.857E-02
RMM:   7    -0.322333033286E+03    0.23498E-04   -0.69861E-05  4582   0.129E-02    0.508E-02
RMM:   8    -0.322333032448E+03    0.83749E-06   -0.44653E-05  4535   0.106E-02
  10 F= -.32233303E+03 E0= -.32231378E+03  d E =-.818039E-04  mag=    17.4853
       N       E                     dE             d eps       ncg     rms          rms(c)
DAV:   1    -0.322332719955E+03    0.31333E-03   -0.19112E-01  8656   0.599E-01    0.124E-01
RMM:   2    -0.322333677122E+03   -0.95717E-03   -0.37836E-03  8312   0.101E-01    0.340E-01
RMM:   3    -0.322333002649E+03    0.67447E-03   -0.68460E-04  7808   0.445E-02    0.130E-01
RMM:   4    -0.322333593707E+03   -0.59106E-03   -0.33580E-04  5707   0.282E-02    0.284E-01
RMM:   5    -0.322333323473E+03    0.27023E-03   -0.26348E-04  5126   0.245E-02    0.218E-01
RMM:   6    -0.322333035979E+03    0.28749E-03   -0.15751E-04  4776   0.204E-02    0.106E-01
RMM:   7    -0.322333004144E+03    0.31835E-04   -0.76418E-05  4577   0.133E-02    0.634E-02
RMM:   8    -0.322333001496E+03    0.26482E-05   -0.49910E-05  4518   0.114E-02
  11 F= -.32233300E+03 E0= -.32231373E+03  d E =0.309527E-04  mag=    17.4852
       N       E                     dE             d eps       ncg     rms          rms(c)
DAV:   1    -0.322333126354E+03   -0.12221E-03   -0.51662E-02  8592   0.312E-01    0.643E-02
RMM:   2    -0.322333380369E+03   -0.25401E-03   -0.10101E-03  7978   0.519E-02    0.175E-01
RMM:   3    -0.322333197890E+03    0.18248E-03   -0.18501E-04  4691   0.229E-02    0.622E-02
RMM:   4    -0.322333277819E+03   -0.79930E-04   -0.89496E-05  4549   0.151E-02    0.112E-01
RMM:   5    -0.322333219393E+03    0.58427E-04   -0.50548E-05  4517   0.118E-02    0.595E-02
RMM:   6    -0.322333256563E+03   -0.37171E-04   -0.26700E-05  4544   0.770E-03    0.853E-02
RMM:   7    -0.322333208683E+03    0.47880E-04   -0.18629E-05  4481   0.652E-03    0.360E-02
RMM:   8    -0.322333208182E+03    0.50163E-06   -0.11459E-05  4367   0.547E-03
  12 F= -.32233321E+03 E0= -.32231395E+03  d E =-.175733E-03  mag=    17.4853
       N       E                     dE             d eps       ncg     rms          rms(c)
DAV:   1    -0.322333284235E+03   -0.75551E-04   -0.29158E-02  8608   0.229E-01    0.384E-02
RMM:   2    -0.322333394632E+03   -0.11040E-03   -0.45501E-04  6391   0.374E-02    0.111E-01
RMM:   3    -0.322333320812E+03    0.73820E-04   -0.99637E-05  4500   0.169E-02    0.411E-02
RMM:   4    -0.322333353845E+03   -0.33033E-04   -0.33594E-05  4502   0.914E-03    0.685E-02
RMM:   5    -0.322333344210E+03    0.96352E-05   -0.21112E-05  4493   0.709E-03    0.606E-02
RMM:   6    -0.322333324231E+03    0.19978E-04   -0.13569E-05  4448   0.595E-03    0.313E-02
RMM:   7    -0.322333322035E+03    0.21961E-05   -0.76351E-06  3755   0.454E-03    0.203E-02
RMM:   8    -0.322333321763E+03    0.27218E-06   -0.42290E-06  3096   0.398E-03
  13 F= -.32233332E+03 E0= -.32231404E+03  d E =-.113581E-03  mag=    17.4853
       N       E                     dE             d eps       ncg     rms          rms(c)
DAV:   1    -0.322333320952E+03    0.10834E-05   -0.32763E-04  8144   0.257E-02    0.834E-03
RMM:   2    -0.322333330651E+03   -0.96994E-05   -0.14583E-05  4381   0.658E-03    0.357E-02
RMM:   3    -0.322333320957E+03    0.96944E-05   -0.48427E-06  3468   0.417E-03    0.692E-03
RMM:   4    -0.322333322000E+03   -0.10428E-05   -0.30145E-07   833   0.218E-03    0.904E-03
RMM:   5    -0.322333321887E+03    0.11234E-06   -0.85993E-08   607   0.210E-03    0.758E-03
RMM:   6    -0.322333321648E+03    0.23958E-06   -0.23749E-08   553   0.191E-03    0.428E-03
RMM:   7    -0.322333321701E+03   -0.53202E-07   -0.25281E-09   518   0.184E-03    0.273E-03
RMM:   8    -0.322333321870E+03   -0.16938E-06   -0.82097E-10   532   0.189E-03
  14 F= -.32233332E+03 E0= -.32231404E+03  d E =-.113689E-03  mag=    17.4853
       N       E                     dE             d eps       ncg     rms          rms(c)
DAV:   1    -0.322333370183E+03   -0.48482E-04   -0.90883E-03  8640   0.135E-01    0.241E-02
RMM:   2    -0.322333399102E+03   -0.28919E-04   -0.16641E-04  4680   0.206E-02    0.535E-02
RMM:   3    -0.322333386422E+03    0.12680E-04   -0.28938E-05  4407   0.880E-03    0.274E-02
RMM:   4    -0.322333408072E+03   -0.21650E-04   -0.15451E-05  4415   0.604E-03    0.545E-02
RMM:   5    -0.322333387173E+03    0.20899E-04   -0.75311E-06  3927   0.463E-03    0.260E-02
RMM:   6    -0.322333384588E+03    0.25851E-05   -0.21808E-07   969   0.308E-03    0.154E-02
RMM:   7    -0.322333385292E+03   -0.70478E-06   -0.11626E-06  1308   0.333E-03    0.129E-02
RMM:   8    -0.322333384417E+03    0.87498E-06   -0.93437E-08   714   0.299E-03
  15 F= -.32233338E+03 E0= -.32231409E+03  d E =-.625472E-04  mag=    17.4852
       N       E                     dE             d eps       ncg     rms          rms(c)
DAV:   1    -0.322333385642E+03   -0.34925E-06   -0.24395E-05  4816   0.851E-03    0.507E-03
RMM:   2    -0.322333390723E+03   -0.50812E-05   -0.36029E-06  2942   0.400E-03    0.249E-02
RMM:   3    -0.322333386178E+03    0.45446E-05    0.17782E-38   636   0.269E-03    0.106E-02
RMM:   4    -0.322333385702E+03    0.47579E-06    0.60866E-13   558   0.266E-03    0.517E-03
RMM:   5    -0.322333385768E+03   -0.65193E-07    0.24446E-14   492   0.263E-03    0.433E-03
RMM:   6    -0.322333385796E+03   -0.28638E-07    0.99170-155   457   0.263E-03    0.419E-03
RMM:   7    -0.322333385779E+03    0.17695E-07   -0.15352E-09   684   0.275E-03    0.337E-03
RMM:   8    -0.322333385491E+03    0.28778E-06   -0.49828E-08   754   0.287E-03
  16 F= -.32233339E+03 E0= -.32231409E+03  d E =-.636205E-04  mag=    17.4850
       N       E                     dE             d eps       ncg     rms          rms(c)
DAV:   1    -0.322333450231E+03   -0.64452E-04   -0.47946E-03  8560   0.986E-02    0.166E-02
RMM:   2    -0.322333460289E+03   -0.10059E-04   -0.83868E-05  4462   0.143E-02    0.265E-02
RMM:   3    -0.322333461530E+03   -0.12404E-05   -0.15783E-05  4328   0.647E-03    0.271E-02
RMM:   4    -0.322333462748E+03   -0.12178E-05   -0.44639E-06  2845   0.397E-03    0.280E-02
RMM:   5    -0.322333458378E+03    0.43696E-05   -0.50067E-07  1172   0.337E-03    0.185E-02
RMM:   6    -0.322333456140E+03    0.22382E-05   -0.60073E-08   705   0.292E-03    0.955E-03
RMM:   7    -0.322333455861E+03    0.27835E-06   -0.23187E-07   677   0.293E-03    0.769E-03
RMM:   8    -0.322333454998E+03    0.86369E-06   -0.45792E-09   541   0.279E-03
  17 F= -.32233345E+03 E0= -.32231415E+03  d E =-.695069E-04  mag=    17.4848
       N       E                     dE             d eps       ncg     rms          rms(c)
DAV:   1    -0.322333456412E+03   -0.55053E-06   -0.15028E-04  5536   0.180E-02    0.562E-03
RMM:   2    -0.322333463433E+03   -0.70209E-05   -0.12598E-05  3998   0.647E-03    0.295E-02
RMM:   3    -0.322333456349E+03    0.70841E-05   -0.79668E-08   738   0.302E-03    0.852E-03
RMM:   4    -0.322333456466E+03   -0.11758E-06   -0.39656E-08   594   0.312E-03    0.812E-03
RMM:   5    -0.322333455784E+03    0.68196E-06   -0.41541E-08   508   0.311E-03    0.579E-03
RMM:   6    -0.322333455182E+03    0.60222E-06    0.58763E-98   469   0.311E-03    0.487E-03
RMM:   7    -0.322333454196E+03    0.98650E-06   -0.81419E-08   599   0.326E-03    0.327E-03
RMM:   8    -0.322333453268E+03    0.92771E-06   -0.20013E-07   671   0.333E-03
  18 F= -.32233345E+03 E0= -.32231415E+03  d E =-.677771E-04  mag=    17.4846
       N       E                     dE             d eps       ncg     rms          rms(c)
DAV:   1    -0.322333452627E+03    0.15689E-05   -0.13412E-05  4768   0.619E-03    0.349E-03
RMM:   2    -0.322333452354E+03    0.27264E-06   -0.18998E-07   575   0.215E-03    0.820E-03
RMM:   3    -0.322333452274E+03    0.79977E-07    0.26614E-59   543   0.179E-03    0.954E-03
RMM:   4    -0.322333451463E+03    0.81130E-06    0.12651E-84   494   0.186E-03    0.629E-03
RMM:   5    -0.322333450375E+03    0.10880E-05   -0.31862E-09   459   0.210E-03    0.262E-03
RMM:   6    -0.322333449961E+03    0.41351E-06   -0.21604E-09   426   0.214E-03    0.929E-04
RMM:   7    -0.322333449525E+03    0.43656E-06    0.32218E-83   453   0.221E-03    0.822E-04
RMM:   8    -0.322333449351E+03    0.17416E-06    0.74370-134   404   0.218E-03
  19 F= -.32233345E+03 E0= -.32231414E+03  d E =-.638597E-04  mag=    17.4843
       N       E                     dE             d eps       ncg     rms          rms(c)
DAV:   1    -0.322333449599E+03   -0.73807E-07   -0.52721E-06  4848   0.357E-03    0.227E-03
RMM:   2    -0.322333449543E+03    0.55414E-07   -0.26885E-08   372   0.150E-03    0.533E-03
RMM:   3    -0.322333449581E+03   -0.37719E-07    0.25463-123   457   0.124E-03    0.704E-03
RMM:   4    -0.322333449225E+03    0.35577E-06    0.55376-124   428   0.127E-03    0.458E-03
RMM:   5    -0.322333448815E+03    0.41048E-06   -0.25491E-09   385   0.150E-03    0.154E-03
RMM:   6    -0.322333448666E+03    0.14808E-06    0.54848-284   342   0.157E-03    0.838E-04
RMM:   7    -0.322333448580E+03    0.86264E-07    0.25045-218   314   0.160E-03    0.561E-04
RMM:   8    -0.322333448537E+03    0.43190E-07    0.21561-193   253   0.161E-03
  20 F= -.32233345E+03 E0= -.32231414E+03  d E =-.630462E-04  mag=    17.4841
       N       E                     dE             d eps       ncg     rms          rms(c)
DAV:   1    -0.322333470105E+03   -0.21525E-04   -0.57419E-04  8560   0.344E-02    0.520E-03
RMM:   2    -0.322333471094E+03   -0.98906E-06   -0.10113E-05  3501   0.513E-03    0.765E-03
RMM:   3    -0.322333471233E+03   -0.13935E-06   -0.25075E-07   609   0.261E-03    0.879E-03
RMM:   4    -0.322333470841E+03    0.39279E-06   -0.10022E-08   485   0.254E-03    0.634E-03
RMM:   5    -0.322333470706E+03    0.13446E-06    0.51199-124   436   0.247E-03    0.579E-03
RMM:   6    -0.322333470476E+03    0.22992E-06    0.22849-164   405   0.239E-03    0.432E-03
RMM:   7    -0.322333470259E+03    0.21700E-06    0.22568-158   393   0.244E-03    0.317E-03
RMM:   8    -0.322333469975E+03    0.28405E-06    0.28768E-98   393   0.251E-03
  21 F= -.32233347E+03 E0= -.32231416E+03  d E =-.214381E-04  mag=    17.4838
