 vasp.6.3.2 27Jun22 (build Aug 29 2022 23:59:14) complex                         
 executed on              LinuxNV date 2023.05.27  12:25:56
 running   16 mpi-ranks, with    8 threads/rank
 distrk:  each k-point on   16 cores,    1 groups
 distr:  one band on NCORE=   1 cores,   16 groups


--------------------------------------------------------------------------------------------------------


 INCAR:
   ALGO = Fast
   EDIFF = 0.0001
   EDIFFG = -0.05
   ENCUT = 500
   GGA = PE
   IBRION = 2
   ISIF = 0
   ISMEAR = 1
   ISPIN = 2
   ISTART = 1
   ISYM = 0
   LASPH = True
   LCHARG = False
   LMAXMIX = 4
   LORBIT = 11
   LREAL = True
   LVTOT = False
   LWAVE = True
   MAGMOM = 1*0.414 1*0.413 1*0.374 1*0.372 2*0.406 1*0.371 1*0.37 2*0.405 2*0.37 2*0.414 2*0.373 1*0.272 1*0.251 1*0.271 1*0.146 1*0.307 1*0.266 1*0.307 1*0.091 1*0.272 1*0.251 1*0.272 1*0.16 1*0.303 1*0.255 1*0.303 1*0.243 1*0.292 2*0.299 2*0.292 2*0.299 1*0.292 1*0.297 2*0.299 1*0.296 1*0.297 2*0.298 1*0.297 1*0.394 1*0.417 1*0.394 1*0.404 1*0.395 1*0.416 1*0.396 1*0.375 1*0.394 1*0.416 1*0.394 1*0.403 1*0.402 1*0.428 1*0.402 1*0.411 1*0.099 1*0.113
   NCORE = 4
   NELM = 80
   NELMIN = 8
   NSW = 300
   PREC = Accurate
   SIGMA = 0.2
   SYMPREC = 1e-10

 POTCAR:    PAW_PBE Pd 04Jan2005                  
 POTCAR:    PAW_PBE O 08Apr2002                   
 POTCAR:    PAW_PBE Pd 04Jan2005                  
   SHA256 =  dd6f6f02930356371984e2b707ff5e456046761dc76b07c1eba30abd15eb3c39 Pd/POTCAR             
   COPYR  = (c) Copyright 04Jan2005 Georg Kresse                                                    
   COPYR  = This file is part of the software VASP. Any use, copying, and all other rights are regul
   COPYR  = If you do not have a valid VASP license, you may not use, copy or distribute this file. 
   VRHFIN =Pd : s1 d9                                                                               
   LEXCH  = PE                                                                                      
   EATOM  =   809.7530 eV,   59.5152 Ry                                                             
                                                                                                    
   TITEL  = PAW_PBE Pd 04Jan2005                                                                    
   LULTRA =        F    use ultrasoft PP ?                                                          
   IUNSCR =        1    unscreen: 0-lin 1-nonlin 2-no                                               
   RPACOR =    2.000    partial core radius                                                         
   POMASS =  106.420; ZVAL   =   10.000    mass and valenz                                          
   RCORE  =    2.600    outmost cutoff radius                                                       
   RWIGS  =    2.710; RWIGS  =    1.434    wigner-seitz radius (au A)                               
   ENMAX  =  250.925; ENMIN  =  188.194 eV                                                          
   ICORE  =        3    local potential                                                             
   LCOR   =        T    correct aug charges                                                         
   LPAW   =        T    paw PP                                                                      
   EAUG   =  416.230                                                                                
   DEXC   =    0.000                                                                                
   RMAX   =    2.653    core radius for proj-oper                                                   
   RAUG   =    1.300    factor for augmentation sphere                                              
   RDEP   =    2.734    radius for radial grids                                                     
   RDEPT  =    2.103    core radius for aug-charge                                                  
                                                                                                    
   Atomic configuration                                                                             
   12 entries                                                                                       
     n  l   j            E        occ.                                                              
     1  0  0.50    -24164.6631   2.0000                                                             
     2  0  0.50     -3530.9218   2.0000                                                             
     2  1  1.50     -3165.6822   6.0000                                                             
     3  0  0.50      -639.4577   2.0000                                                             
     3  1  1.50      -519.4532   6.0000                                                             
     3  2  2.50      -328.9757  10.0000                                                             
     4  0  0.50       -88.7014   2.0000                                                             
     4  1  1.50       -54.4540   6.0000                                                             
     4  2  2.50        -6.6878   9.0000                                                             
     5  0  0.50        -4.3543   1.0000                                                             
     5  1  0.50        -1.3606   0.0000                                                             
     4  3  2.50        -1.3606   0.0000                                                             
   Description                                                                                      
     l       E           TYP  RCUT    TYP  RCUT                                                     
     2     -6.6878251     23  2.400                                                                 
     2     -8.0484077     23  2.400                                                                 
     0     -4.3542939     23  2.400                                                                 
     0      4.3406793     23  2.400                                                                 
     1     -4.0817478     23  2.600                                                                 
     1     15.8380318     23  2.600                                                                 
     3     -4.0817478     23  2.400                                                                 
  local pseudopotential read in
  partial core-charges read in
  partial kinetic energy density read in
  atomic valenz-charges read in
  non local Contribution for L=            2  read in
    real space projection operators read in
  non local Contribution for L=            2  read in
    real space projection operators read in
  non local Contribution for L=            0  read in
    real space projection operators read in
  non local Contribution for L=            0  read in
    real space projection operators read in
  non local Contribution for L=            1  read in
    real space projection operators read in
  non local Contribution for L=            1  read in
    real space projection operators read in
    PAW grid and wavefunctions read in
 
   number of l-projection  operators is LMAX  =            6
   number of lm-projection operators is LMMAX =           18
 
 POTCAR:    PAW_PBE O 08Apr2002                   
   SHA256 =  818f92134a0a090dccd8ba1447fa70422a3b330e708bb4f08108d8ae51209ddf O/POTCAR              
   COPYR  = (c) Copyright 08Apr2002 Georg Kresse                                                    
   COPYR  = This file is part of the software VASP. Any use, copying, and all other rights are regul
   COPYR  = If you do not have a valid VASP license, you may not use, copy or distribute this file. 
   VRHFIN =O: s2p4                                                                                  
   LEXCH  = PE                                                                                      
   EATOM  =   432.3788 eV,   31.7789 Ry                                                             
                                                                                                    
   TITEL  = PAW_PBE O 08Apr2002                                                                     
   LULTRA =        F    use ultrasoft PP ?                                                          
   IUNSCR =        1    unscreen: 0-lin 1-nonlin 2-no                                               
   RPACOR =    1.200    partial core radius                                                         
   POMASS =   16.000; ZVAL   =    6.000    mass and valenz                                          
   RCORE  =    1.520    outmost cutoff radius                                                       
   RWIGS  =    1.550; RWIGS  =    0.820    wigner-seitz radius (au A)                               
   ENMAX  =  400.000; ENMIN  =  300.000 eV                                                          
   ICORE  =        2    local potential                                                             
   LCOR   =        T    correct aug charges                                                         
   LPAW   =        T    paw PP                                                                      
   EAUG   =  605.392                                                                                
   DEXC   =    0.000                                                                                
   RMAX   =    1.553    core radius for proj-oper                                                   
   RAUG   =    1.300    factor for augmentation sphere                                              
   RDEP   =    1.550    radius for radial grids                                                     
   RDEPT  =    1.329    core radius for aug-charge                                                  
                                                                                                    
   Atomic configuration                                                                             
    4 entries                                                                                       
     n  l   j            E        occ.                                                              
     1  0  0.50      -514.6923   2.0000                                                             
     2  0  0.50       -23.9615   2.0000                                                             
     2  1  0.50        -9.0305   4.0000                                                             
     3  2  1.50        -9.5241   0.0000                                                             
   Description                                                                                      
     l       E           TYP  RCUT    TYP  RCUT                                                     
     0    -23.9615318     23  1.200                                                                 
     0     -9.5240782     23  1.200                                                                 
     1     -9.0304911     23  1.520                                                                 
     1      8.1634956     23  1.520                                                                 
     2     -9.5240782      7  1.500                                                                 
  local pseudopotential read in
  partial core-charges read in
  partial kinetic energy density read in
  kinetic energy density of atom read in
  atomic valenz-charges read in
  non local Contribution for L=            0  read in
    real space projection operators read in
  non local Contribution for L=            0  read in
    real space projection operators read in
  non local Contribution for L=            1  read in
    real space projection operators read in
  non local Contribution for L=            1  read in
    real space projection operators read in
    PAW grid and wavefunctions read in
 
   number of l-projection  operators is LMAX  =            4
   number of lm-projection operators is LMMAX =            8
 
 -----------------------------------------------------------------------------
|                                                                             |
|           W    W    AA    RRRRR   N    N  II  N    N   GGGG   !!!           |
|           W    W   A  A   R    R  NN   N  II  NN   N  G    G  !!!           |
|           W    W  A    A  R    R  N N  N  II  N N  N  G       !!!           |
|           W WW W  AAAAAA  RRRRR   N  N N  II  N  N N  G  GGG   !            |
|           WW  WW  A    A  R   R   N   NN  II  N   NN  G    G                |
|           W    W  A    A  R    R  N    N  II  N    N   GGGG   !!!           |
|                                                                             |
|     The real-space projection scheme for the treatment of the non-local     |
|     pseudopotentials has been switched on but on file POTCAR I have not     |
|     found any entries, signalling me that you have never performed a        |
|     real-space optimization of all non-local projectors! BE WARNED that     |
|     a calculation using the real-space projection scheme together with      |
|     non-local projectors which were not real-space optimized (according     |
|     to the plane-wave cutoff used in this calculation) might give more      |
|     or less inaccurate results. I hope you know what you are doing.         |
|                                                                             |
 -----------------------------------------------------------------------------

  PAW_PBE Pd 04Jan2005                  :
 energy of atom  1       EATOM= -809.7530
 kinetic energy error for atom=    0.0049 (will be added to EATOM!!)
  PAW_PBE O 08Apr2002                   :
 energy of atom  2       EATOM= -432.3788
 kinetic energy error for atom=    0.0224 (will be added to EATOM!!)
 
 
 POSCAR: Pd64 O2
  positions in direct lattice
  No initial velocities read in
 exchange correlation table for  LEXCH =        8
   RHO(1)=    0.500       N(1)  =     2000
   RHO(2)=  100.500       N(2)  =     4000
 


--------------------------------------------------------------------------------------------------------


 ion  position               nearest neighbor table
   1  1.000  0.250  0.525-  17 2.74  29 2.75  18 2.76  30 2.76  13 2.77   5 2.77  61 2.77   2 2.77
                            49 2.77  62 2.77  50 2.77   4 2.78
   2  1.000  0.500  0.525-  19 2.74  31 2.75  18 2.76  30 2.76  14 2.77   6 2.77  63 2.77   1 2.77
                            51 2.77  62 2.77  50 2.77   3 2.78
   3  0.001  0.751  0.526-   4 2.74  19 2.75  32 2.75  31 2.76   7 2.76  52 2.78   2 2.78  51 2.79
                            64 2.79  15 2.80  63 2.81  20 2.85
   4  0.001  0.999  0.526-   3 2.74  17 2.75  32 2.75   8 2.76  29 2.76  52 2.78   1 2.78  49 2.79
                            64 2.79  16 2.80  61 2.81  20 2.85
   5  0.250  0.250  0.525-  21 2.74  17 2.75  22 2.76  18 2.76   9 2.77   1 2.77  53 2.77   6 2.77
                            49 2.78  54 2.78  50 2.78   8 2.79
   6  0.250  0.500  0.525-  23 2.75  19 2.75  22 2.76  18 2.76  10 2.77   2 2.77  55 2.77   5 2.77
                            51 2.78  54 2.78  50 2.78   7 2.79
   7  0.251  0.752  0.526-   8 2.72  11 2.75  23 2.75   3 2.76  19 2.77  56 2.78   6 2.79  52 2.79
                            55 2.81  51 2.81  20 2.86  24 3.11
   8  0.251  0.998  0.526-   7 2.72  12 2.75  21 2.75   4 2.76  17 2.77  56 2.78   5 2.79  52 2.79
                            53 2.81  49 2.81  20 2.86  24 3.12
   9  0.500  0.250  0.525-  21 2.75  25 2.75  22 2.76  26 2.76   5 2.77  13 2.77  10 2.77  53 2.77
                            57 2.78  54 2.78  58 2.78  12 2.79
  10  0.500  0.500  0.525-  23 2.74  27 2.75  22 2.76  26 2.76   6 2.77  14 2.77  55 2.77   9 2.77
                            59 2.77  54 2.78  58 2.78  11 2.79
  11  0.499  0.752  0.526-  12 2.72   7 2.75  23 2.75  15 2.77  27 2.77  56 2.78  10 2.79  60 2.79
                            55 2.81  59 2.81  28 2.85  24 3.13
  12  0.499  0.998  0.526-  11 2.72   8 2.75  21 2.75  16 2.77  25 2.77  56 2.78   9 2.79  60 2.79
                            53 2.81  57 2.81  28 2.85  24 3.13
  13  0.750  0.250  0.525-  25 2.74  29 2.75  26 2.76  30 2.76   1 2.77   9 2.77  61 2.77  14 2.77
                            57 2.77  62 2.77  58 2.77  16 2.78
  14  0.750  0.500  0.525-  27 2.74  31 2.75  26 2.76  30 2.76   2 2.77  10 2.77  63 2.77  13 2.77
                            59 2.77  62 2.77  58 2.77  15 2.78
  15  0.749  0.751  0.526-  16 2.74  27 2.75  32 2.76  31 2.76  11 2.77  60 2.78  14 2.78  64 2.79
                            59 2.79   3 2.80  63 2.81  28 2.84
  16  0.749  0.999  0.526-  15 2.74  25 2.75  32 2.76  29 2.76  12 2.77  60 2.78  13 2.78  64 2.79
                            57 2.79   4 2.80  61 2.81  28 2.84
  17  0.124  0.127  0.575-   1 2.74  18 2.75   4 2.75   5 2.75  29 2.76   8 2.77  21 2.78  20 2.80

  18  0.124  0.375  0.575-  19 2.75  17 2.75   2 2.76   1 2.76  30 2.76   6 2.76   5 2.76  22 2.78

  19  0.124  0.623  0.575-   2 2.74  18 2.75   3 2.75   6 2.75  31 2.76   7 2.77  23 2.78  20 2.80

  20  0.124  0.875  0.579-  65 1.92  32 2.76  24 2.78  19 2.80  17 2.80   4 2.85   3 2.85   7 2.86
                             8 2.86
  21  0.375  0.127  0.575-   5 2.74   9 2.75  22 2.75   8 2.75  12 2.75  17 2.78  25 2.78  24 2.84

  22  0.375  0.375  0.575-  23 2.75  21 2.75   6 2.76  10 2.76   9 2.76   5 2.76  26 2.78  18 2.78

  23  0.375  0.623  0.575-  10 2.74   6 2.75  22 2.75  11 2.75   7 2.75  27 2.78  19 2.78  24 2.84

  24  0.373  0.875  0.589-  65 1.94  66 1.96  20 2.78  28 2.83  23 2.84  21 2.84   7 3.11   8 3.12
                            11 3.13  12 3.13
  25  0.626  0.127  0.575-  13 2.74  26 2.75  16 2.75   9 2.75  29 2.76  12 2.77  21 2.78  28 2.80

  26  0.626  0.375  0.575-  27 2.75  25 2.75  14 2.76  13 2.76  30 2.76  10 2.76   9 2.76  22 2.78

  27  0.626  0.623  0.575-  14 2.74  26 2.75  15 2.75  10 2.75  31 2.76  11 2.77  23 2.78  28 2.80

  28  0.626  0.875  0.579-  66 1.92  32 2.76  25 2.80  27 2.80  24 2.83  16 2.84  15 2.84  12 2.85
                            11 2.85
  29  0.875  0.127  0.575-   1 2.75  13 2.75  30 2.75  17 2.76  25 2.76  16 2.76   4 2.76  32 2.79

  30  0.875  0.375  0.575-  31 2.75  29 2.75  14 2.76   2 2.76  13 2.76   1 2.76  26 2.76  18 2.76

  31  0.875  0.623  0.575-   2 2.75  14 2.75  30 2.75  19 2.76  27 2.76  15 2.76   3 2.76  32 2.79

  32  0.876  0.875  0.575-   4 2.75   3 2.75  16 2.76  15 2.76  20 2.76  28 2.76  29 2.79  31 2.79

  33  0.250  0.000  0.425-  49 2.77  52 2.77  53 2.77  56 2.77  34 2.77  36 2.77  37 2.77  45 2.77

  34  0.250  0.250  0.425-  49 2.77  50 2.77  53 2.77  54 2.77  33 2.77  35 2.77  38 2.77  46 2.77

  35  0.250  0.500  0.425-  50 2.77  51 2.77  54 2.77  55 2.77  34 2.77  36 2.77  39 2.77  47 2.77

  36  0.250  0.750  0.425-  51 2.77  52 2.77  55 2.77  56 2.77  33 2.77  35 2.77  40 2.77  48 2.77

  37  0.500  0.000  0.425-  53 2.77  56 2.77  57 2.77  60 2.77  33 2.77  38 2.77  40 2.77  41 2.77

  38  0.500  0.250  0.425-  53 2.77  54 2.77  57 2.77  58 2.77  34 2.77  37 2.77  39 2.77  42 2.77

  39  0.500  0.500  0.425-  54 2.77  55 2.77  58 2.77  59 2.77  35 2.77  38 2.77  40 2.77  43 2.77

  40  0.500  0.750  0.425-  55 2.77  56 2.77  59 2.77  60 2.77  36 2.77  37 2.77  39 2.77  44 2.77

  41  0.750  0.000  0.425-  57 2.77  60 2.77  61 2.77  64 2.77  37 2.77  42 2.77  44 2.77  45 2.77

  42  0.750  0.250  0.425-  57 2.77  58 2.77  61 2.77  62 2.77  38 2.77  41 2.77  43 2.77  46 2.77

  43  0.750  0.500  0.425-  58 2.77  59 2.77  62 2.77  63 2.77  39 2.77  42 2.77  44 2.77  47 2.77

  44  0.750  0.750  0.425-  59 2.77  60 2.77  63 2.77  64 2.77  40 2.77  41 2.77  43 2.77  48 2.77

  45  0.000  0.000  0.425-  49 2.77  52 2.77  61 2.77  64 2.77  33 2.77  41 2.77  46 2.77  48 2.77

  46  0.000  0.250  0.425-  49 2.77  50 2.77  61 2.77  62 2.77  34 2.77  42 2.77  45 2.77  47 2.77

  47  0.000  0.500  0.425-  50 2.77  51 2.77  62 2.77  63 2.77  35 2.77  43 2.77  46 2.77  48 2.77

  48  0.000  0.750  0.425-  51 2.77  52 2.77  63 2.77  64 2.77  36 2.77  44 2.77  45 2.77  47 2.77

  49  0.125  0.125  0.475-  33 2.77  34 2.77  45 2.77  46 2.77  50 2.77  52 2.77  53 2.77  61 2.77
                             1 2.77   5 2.78   4 2.79   8 2.81
  50  0.125  0.375  0.475-  34 2.77  35 2.77  46 2.77  47 2.77  49 2.77  51 2.77  54 2.77  62 2.77
                             1 2.77   2 2.77   6 2.78   5 2.78
  51  0.125  0.625  0.475-  35 2.77  36 2.77  47 2.77  48 2.77  50 2.77  52 2.77  55 2.77  63 2.77
                             2 2.77   6 2.78   3 2.79   7 2.81
  52  0.125  0.875  0.475-  33 2.77  36 2.77  45 2.77  48 2.77  49 2.77  51 2.77  56 2.77  64 2.77
                             3 2.78   4 2.78   7 2.79   8 2.79
  53  0.375  0.125  0.475-  33 2.77  34 2.77  37 2.77  38 2.77  49 2.77  54 2.77  56 2.77  57 2.77
                             5 2.77   9 2.77  12 2.81   8 2.81
  54  0.375  0.375  0.475-  34 2.77  35 2.77  38 2.77  39 2.77  50 2.77  53 2.77  55 2.77  58 2.77
                             5 2.78   6 2.78  10 2.78   9 2.78
  55  0.375  0.625  0.475-  35 2.77  36 2.77  39 2.77  40 2.77  51 2.77  54 2.77  56 2.77  59 2.77
                             6 2.77  10 2.77  11 2.81   7 2.81
  56  0.375  0.875  0.475-  33 2.77  36 2.77  37 2.77  40 2.77  52 2.77  53 2.77  55 2.77  60 2.77
                            11 2.78   7 2.78  12 2.78   8 2.78
  57  0.625  0.125  0.475-  37 2.77  38 2.77  41 2.77  42 2.77  53 2.77  58 2.77  60 2.77  61 2.77
                            13 2.77   9 2.78  16 2.79  12 2.81
  58  0.625  0.375  0.475-  38 2.77  39 2.77  42 2.77  43 2.77  54 2.77  57 2.77  59 2.77  62 2.77
                            13 2.77  14 2.77  10 2.78   9 2.78
  59  0.625  0.625  0.475-  39 2.77  40 2.77  43 2.77  44 2.77  55 2.77  58 2.77  60 2.77  63 2.77
                            14 2.77  10 2.77  15 2.79  11 2.81
  60  0.625  0.875  0.475-  37 2.77  40 2.77  41 2.77  44 2.77  56 2.77  57 2.77  59 2.77  64 2.77
                            15 2.78  16 2.78  11 2.79  12 2.79
  61  0.875  0.125  0.475-  41 2.77  42 2.77  45 2.77  46 2.77  49 2.77  57 2.77  62 2.77  64 2.77
                            13 2.77   1 2.77  16 2.81   4 2.81
  62  0.875  0.375  0.475-  42 2.77  43 2.77  46 2.77  47 2.77  50 2.77  58 2.77  61 2.77  63 2.77
                            13 2.77  14 2.77   1 2.77   2 2.77
  63  0.875  0.625  0.475-  43 2.77  44 2.77  47 2.77  48 2.77  51 2.77  59 2.77  62 2.77  64 2.77
                            14 2.77   2 2.77  15 2.81   3 2.81
  64  0.875  0.875  0.475-  41 2.77  44 2.77  45 2.77  48 2.77  52 2.77  60 2.77  61 2.77  63 2.77
                            15 2.79  16 2.79   3 2.79   4 2.79
  65  0.231  0.873  0.618-  20 1.92  24 1.94
  66  0.518  0.875  0.617-  28 1.92  24 1.96
 

IMPORTANT INFORMATION: All symmetrisations will be switched off!
NOSYMM: (Re-)initialisation of all symmetry stuff for point group C_1.


----------------------------------------------------------------------------------------

                                     Primitive cell                                     

  volume of cell :    4808.9583

  direct lattice vectors                    reciprocal lattice vectors
    11.079802020  0.000000000  0.000000000     0.090254320  0.000000000  0.000000000
     0.000000000 11.079802020  0.000000000     0.000000000  0.090254320  0.000000000
     0.000000000  0.000000000 39.173015700     0.000000000  0.000000000  0.025527777

  length of vectors
    11.079802020 11.079802020 39.173015700     0.090254320  0.090254320  0.025527777

  position of ions in fractional coordinates (direct lattice)
     0.999960920  0.249875570  0.525130860
     0.999962680  0.500143010  0.525129090
     0.001313880  0.751295780  0.525810620
     0.001355480  0.998729110  0.525823290
     0.250059420  0.249793710  0.525221340
     0.250058470  0.500225260  0.525217590
     0.250756580  0.752123240  0.526032610
     0.250762020  0.997907600  0.526036060
     0.499964090  0.249790210  0.525223980
     0.499973670  0.500221170  0.525217330
     0.499220090  0.752099950  0.526031720
     0.499199490  0.997929500  0.526037340
     0.750087260  0.249877150  0.525127090
     0.750088430  0.500144280  0.525123050
     0.748830160  0.751314140  0.525812880
     0.748828780  0.998707530  0.525817550
     0.124018800  0.127045060  0.574829450
     0.124224650  0.375041350  0.574735160
     0.123992180  0.622956840  0.574835680
     0.124189860  0.874974850  0.579244100
     0.374943620  0.126952210  0.574771080
     0.375014420  0.375049550  0.574709750
     0.375033190  0.623026340  0.574764090
     0.373187870  0.874943160  0.588616700
     0.626026600  0.127123930  0.574822540
     0.625796350  0.375051800  0.574734940
     0.626054090  0.622933430  0.574820380
     0.626351920  0.875114970  0.578948350
     0.875040570  0.126652900  0.574741840
     0.875008170  0.375069560  0.574760090
     0.875038020  0.623447540  0.574738840
     0.875500860  0.875122140  0.575222610
     0.250000000  0.000000000  0.425000000
     0.250000000  0.250000000  0.425000000
     0.250000000  0.500000000  0.425000000
     0.250000000  0.750000000  0.425000000
     0.500000000  0.000000000  0.425000000
     0.500000000  0.250000000  0.425000000
     0.500000000  0.500000000  0.425000000
     0.500000000  0.750000000  0.425000000
     0.750000000  0.000000000  0.425000000
     0.750000000  0.250000000  0.425000000
     0.750000000  0.500000000  0.425000000
     0.750000000  0.750000000  0.425000000
     0.000000000  0.000000000  0.425000000
     0.000000000  0.250000000  0.425000000
     0.000000000  0.500000000  0.425000000
     0.000000000  0.750000000  0.425000000
     0.125000000  0.125000000  0.475000000
     0.125000000  0.375000000  0.475000000
     0.125000000  0.625000000  0.475000000
     0.125000000  0.875000000  0.475000000
     0.375000000  0.125000000  0.475000000
     0.375000000  0.375000000  0.475000000
     0.375000000  0.625000000  0.475000000
     0.375000000  0.875000000  0.475000000
     0.625000000  0.125000000  0.475000000
     0.625000000  0.375000000  0.475000000
     0.625000000  0.625000000  0.475000000
     0.625000000  0.875000000  0.475000000
     0.875000000  0.125000000  0.475000000
     0.875000000  0.375000000  0.475000000
     0.875000000  0.625000000  0.475000000
     0.875000000  0.875000000  0.475000000
     0.231499830  0.873144350  0.617797330
     0.517947530  0.874992790  0.617327900

  ion indices of the primitive-cell ions
   primitive index   ion index
                 1           1
                 2           2
                 3           3
                 4           4
                 5           5
                 6           6
                 7           7
                 8           8
                 9           9
                10          10
                11          11
                12          12
                13          13
                14          14
                15          15
                16          16
                17          17
                18          18
                19          19
                20          20
                21          21
                22          22
                23          23
                24          24
                25          25
                26          26
                27          27
                28          28
                29          29
                30          30
                31          31
                32          32
                33          33
                34          34
                35          35
                36          36
                37          37
                38          38
                39          39
                40          40
                41          41
                42          42
                43          43
                44          44
                45          45
                46          46
                47          47
                48          48
                49          49
                50          50
                51          51
                52          52
                53          53
                54          54
                55          55
                56          56
                57          57
                58          58
                59          59
                60          60
                61          61
                62          62
                63          63
                64          64
                65          65
                66          66

----------------------------------------------------------------------------------------

 
 
 KPOINTS: Automatic kpoint scheme                 

Automatic generation of k-mesh.
 Grid dimensions read from file:
 generate k-points for:    3    3    1

 Generating k-lattice:

  Cartesian coordinates                     Fractional coordinates (reciprocal lattice)
     0.030084773  0.000000000  0.000000000     0.333333333  0.000000000  0.000000000
     0.000000000  0.030084773  0.000000000     0.000000000  0.333333333  0.000000000
     0.000000000  0.000000000  0.025527777     0.000000000  0.000000000  1.000000000

  Length of vectors
     0.030084773  0.030084773  0.025527777

  Shift w.r.t. Gamma in fractional coordinates (k-lattice)
     0.000000000  0.000000000  0.000000000

 
 Subroutine IBZKPT returns following result:
 ===========================================
 
 Found      5 irreducible k-points:
 
 Following reciprocal coordinates:
            Coordinates               Weight
  0.000000  0.000000  0.000000      1.000000
  0.333333  0.000000  0.000000      2.000000
  0.000000  0.333333  0.000000      2.000000
  0.333333  0.333333  0.000000      2.000000
 -0.333333  0.333333  0.000000      2.000000
 
 Following cartesian coordinates:
            Coordinates               Weight
  0.000000  0.000000  0.000000      1.000000
  0.030085  0.000000  0.000000      2.000000
  0.000000  0.030085  0.000000      2.000000
  0.030085  0.030085  0.000000      2.000000
 -0.030085  0.030085  0.000000      2.000000
 


--------------------------------------------------------------------------------------------------------




 Dimension of arrays:
   k-points           NKPTS =      5   k-points in BZ     NKDIM =      5   number of bands    NBANDS=    416
   number of dos      NEDOS =    301   number of ions     NIONS =     66
   non local maximal  LDIM  =      6   non local SUM 2l+1 LMDIM =     18
   total plane-waves  NPLWV = ******
   max r-space proj   IRMAX =   4947   max aug-charges    IRDMAX=  20695
   dimension x,y,z NGX =    84 NGY =   84 NGZ =  288
   dimension x,y,z NGXF=   168 NGYF=  168 NGZF=  576
   support grid    NGXF=   168 NGYF=  168 NGZF=  576
   ions per type =              64   2
   NGX,Y,Z   is equivalent  to a cutoff of  12.60, 12.60, 12.22 a.u.
   NGXF,Y,Z  is equivalent  to a cutoff of  25.21, 25.21, 24.44 a.u.

 SYSTEM =  unknown system                          
 POSCAR =  Pd64 O2                                 

 Startparameter for this run:
   NWRITE =      2    write-flag & timer
   PREC   = accura    normal or accurate (medium, high low for compatibility)
   ISTART =      1    job   : 0-new  1-cont  2-samecut
   ICHARG =      0    charge: 1-file 2-atom 10-const
   ISPIN  =      2    spin polarized calculation?
   LNONCOLLINEAR =      F non collinear calculations
   LSORBIT =      F    spin-orbit coupling
   INIWAV =      1    electr: 0-lowe 1-rand  2-diag
   LASPH  =      T    aspherical Exc in radial PAW
 Electronic Relaxation 1
   ENCUT  =  500.0 eV  36.75 Ry    6.06 a.u.  20.20 20.20 71.42*2*pi/ulx,y,z
   ENINI  =  500.0     initial cutoff
   ENAUG  =  605.4 eV  augmentation charge cutoff
   NELM   =     80;   NELMIN=  8; NELMDL=  0     # of ELM steps 
   EDIFF  = 0.1E-03   stopping-criterion for ELM
   LREAL  =      T    real-space projection
   NLSPLINE    = F    spline interpolate recip. space projectors
   LCOMPAT=      F    compatible to vasp.4.4
   GGA_COMPAT  = T    GGA compatible to vasp.4.4-vasp.4.6
   LMAXPAW     = -100 max onsite density
   LMAXMIX     =    4 max onsite mixed and CHGCAR
   VOSKOWN=      0    Vosko Wilk Nusair interpolation
   ROPT   =    0.00000   0.00000
 Ionic relaxation
   EDIFFG = -.5E-01   stopping-criterion for IOM
   NSW    =    300    number of steps for IOM
   NBLOCK =      1;   KBLOCK =    300    inner block; outer block 
   IBRION =      2    ionic relax: 0-MD 1-quasi-New 2-CG
   NFREE  =      1    steps in history (QN), initial steepest desc. (CG)
   ISIF   =      0    stress and relaxation
   IWAVPR =     11    prediction:  0-non 1-charg 2-wave 3-comb
   ISYM   =      0    0-nonsym 1-usesym 2-fastsym
   LCORR  =      T    Harris-Foulkes like correction to forces

   POTIM  = 0.5000    time-step for ionic-motion
   TEIN   =    0.0    initial temperature
   TEBEG  =    0.0;   TEEND  =   0.0 temperature during run
   SMASS  =  -3.00    Nose mass-parameter (am)
   estimated Nose-frequenzy (Omega)   =  0.10E-29 period in steps = 0.13E+47 mass=  -0.281E-26a.u.
   SCALEE = 1.0000    scale energy and forces
   NPACO  =    256;   APACO  = 10.0  distance and # of slots for P.C.
   PSTRESS=    0.0 pullay stress

  Mass of Ions in am
   POMASS = 106.42 16.00
  Ionic Valenz
   ZVAL   =  10.00  6.00
  Atomic Wigner-Seitz radii
   RWIGS  =  -1.00 -1.00
  virtual crystal weights 
   VCA    =   1.00  1.00
   NELECT =     652.0000    total number of electrons
   NUPDOWN=      -1.0000    fix difference up-down

 DOS related values:
   EMIN   =  10.00;   EMAX   =-10.00  energy-range for DOS
   EFERMI =   0.00
   ISMEAR =     1;   SIGMA  =   0.20  broadening in eV -4-tet -1-fermi 0-gaus

 Electronic relaxation 2 (details)
   IALGO  =     68    algorithm
   LDIAG  =      T    sub-space diagonalisation (order eigenvalues)
   LSUBROT=      F    optimize rotation matrix (better conditioning)
   TURBO    =      0    0=normal 1=particle mesh
   IRESTART =      0    0=no restart 2=restart with 2 vectors
   NREBOOT  =      0    no. of reboots
   NMIN     =      0    reboot dimension
   EREF     =   0.00    reference energy to select bands
   IMIX   =      4    mixing-type and parameters
     AMIX     =   0.40;   BMIX     =  1.00
     AMIX_MAG =   1.60;   BMIX_MAG =  1.00
     AMIN     =   0.10
     WC   =   100.;   INIMIX=   1;  MIXPRE=   1;  MAXMIX= -45

 Intra band minimization:
   WEIMIN = 0.0010     energy-eigenvalue tresh-hold
   EBREAK =  0.60E-07  absolut break condition
   DEPER  =   0.30     relativ break condition  

   TIME   =   0.40     timestep for ELM

  volume/ion in A,a.u.               =      72.86       491.70
  Fermi-wavevector in a.u.,A,eV,Ry     =   0.841021  1.589300  9.623631  0.707317
  Thomas-Fermi vector in A             =   1.955498
 
 Write flags
   LWAVE        =      T    write WAVECAR
   LDOWNSAMPLE  =      F    k-point downsampling of WAVECAR
   LCHARG       =      F    write CHGCAR
   LVTOT        =      F    write LOCPOT, total local potential
   LVHAR        =      F    write LOCPOT, Hartree potential only
   LELF         =      F    write electronic localiz. function (ELF)
   LORBIT       =     11    0 simple, 1 ext, 2 COOP (PROOUT), +10 PAW based schemes


 Dipole corrections
   LMONO  =      F    monopole corrections only (constant potential shift)
   LDIPOL =      F    correct potential (dipole corrections)
   IDIPOL =      0    1-x, 2-y, 3-z, 4-all directions 
   EPSILON=  1.0000000 bulk dielectric constant

 Exchange correlation treatment:
   GGA     =    PE    GGA type
   LEXCH   =     8    internal setting for exchange type
   LIBXC   =     F    Libxc                    
   VOSKOWN =     0    Vosko Wilk Nusair interpolation
   LHFCALC =     F    Hartree Fock is set to
   LHFONE  =     F    Hartree Fock one center treatment
   AEXX    =    0.0000 exact exchange contribution

 Linear response parameters
   LEPSILON=     F    determine dielectric tensor
   LRPA    =     F    only Hartree local field effects (RPA)
   LNABLA  =     F    use nabla operator in PAW spheres
   LVEL    =     F    velocity operator in full k-point grid
   CSHIFT  =0.1000    complex shift for real part using Kramers Kronig
   OMEGAMAX=  -1.0    maximum frequency
   DEG_THRESHOLD= 0.2000000E-02 threshold for treating states as degnerate
   RTIME   =   -0.100 relaxation time in fs
  (WPLASMAI=    0.000 imaginary part of plasma frequency in eV, 0.658/RTIME)
   DFIELD  = 0.0000000 0.0000000 0.0000000 field for delta impulse in time
 
  Optional k-point grid parameters
   LKPOINTS_OPT  =     F    use optional k-point grid
   KPOINTS_OPT_MODE=     1    mode for optional k-point grid
 
 Orbital magnetization related:
   ORBITALMAG=     F  switch on orbital magnetization
   LCHIMAG   =     F  perturbation theory with respect to B field
   DQ        =  0.001000  dq finite difference perturbation B field
   LLRAUG    =     F  two centre corrections for induced B field



--------------------------------------------------------------------------------------------------------


 conjugate gradient relaxation of ions
   using selective dynamics as specified on POSCAR
 charge density and potential will be updated during run
 spin polarized calculation
 RMM-DIIS sequential band-by-band and
  variant of blocked Davidson during initial phase
 perform sub-space diagonalisation
    before iterative eigenvector-optimisation
 modified Broyden-mixing scheme, WC =      100.0
 initial mixing is a Kerker type mixing with AMIX =  0.4000 and BMIX =      1.0000
 Hartree-type preconditioning will be used
 using additional bands            90
 real space projection scheme for non local part
 use partial core corrections
 calculate Harris-corrections to forces 
   (improved forces if not selfconsistent)
 use gradient corrections 
 use of overlap-Matrix (Vanderbilt PP)
 Methfessel and Paxton  Order N= 1 SIGMA  =   0.20


--------------------------------------------------------------------------------------------------------


  energy-cutoff  :      500.00
  volume of cell :     4808.96
      direct lattice vectors                 reciprocal lattice vectors
    11.079802020  0.000000000  0.000000000     0.090254320  0.000000000  0.000000000
     0.000000000 11.079802020  0.000000000     0.000000000  0.090254320  0.000000000
     0.000000000  0.000000000 39.173015700     0.000000000  0.000000000  0.025527777

  length of vectors
    11.079802020 11.079802020 39.173015700     0.090254320  0.090254320  0.025527777


 
 old parameters found on file WAVECAR:
  energy-cutoff  :      500.00
  volume of cell :     4808.96
      direct lattice vectors                 reciprocal lattice vectors
    11.079802020  0.000000000  0.000000000     0.090254320 -0.000000000  0.000000000
     0.000000000 11.079802020  0.000000000     0.000000000  0.090254320  0.000000000
     0.000000000  0.000000000 39.173015700    -0.000000000 -0.000000000  0.025527777

  length of vectors

 
 k-points in units of 2pi/SCALE and weight: Automatic kpoint scheme                 
   0.00000000  0.00000000  0.00000000       0.111
   0.03008477  0.00000000  0.00000000       0.222
   0.00000000  0.03008477  0.00000000       0.222
   0.03008477  0.03008477  0.00000000       0.222
  -0.03008477  0.03008477  0.00000000       0.222
 
 k-points in reciprocal lattice and weights: Automatic kpoint scheme                 
   0.00000000  0.00000000  0.00000000       0.111
   0.33333333  0.00000000  0.00000000       0.222
   0.00000000  0.33333333  0.00000000       0.222
   0.33333333  0.33333333  0.00000000       0.222
  -0.33333333  0.33333333  0.00000000       0.222
 
 position of ions in fractional coordinates (direct lattice) 
   0.99996092  0.24987557  0.52513086
   0.99996268  0.50014301  0.52512909
   0.00131388  0.75129578  0.52581062
   0.00135548  0.99872911  0.52582329
   0.25005942  0.24979371  0.52522134
   0.25005847  0.50022526  0.52521759
   0.25075658  0.75212324  0.52603261
   0.25076202  0.99790760  0.52603606
   0.49996409  0.24979021  0.52522398
   0.49997367  0.50022117  0.52521733
   0.49922009  0.75209995  0.52603172
   0.49919949  0.99792950  0.52603734
   0.75008726  0.24987715  0.52512709
   0.75008843  0.50014428  0.52512305
   0.74883016  0.75131414  0.52581288
   0.74882878  0.99870753  0.52581755
   0.12401880  0.12704506  0.57482945
   0.12422465  0.37504135  0.57473516
   0.12399218  0.62295684  0.57483568
   0.12418986  0.87497485  0.57924410
   0.37494362  0.12695221  0.57477108
   0.37501442  0.37504955  0.57470975
   0.37503319  0.62302634  0.57476409
   0.37318787  0.87494316  0.58861670
   0.62602660  0.12712393  0.57482254
   0.62579635  0.37505180  0.57473494
   0.62605409  0.62293343  0.57482038
   0.62635192  0.87511497  0.57894835
   0.87504057  0.12665290  0.57474184
   0.87500817  0.37506956  0.57476009
   0.87503802  0.62344754  0.57473884
   0.87550086  0.87512214  0.57522261
   0.25000000  0.00000000  0.42500000
   0.25000000  0.25000000  0.42500000
   0.25000000  0.50000000  0.42500000
   0.25000000  0.75000000  0.42500000
   0.50000000  0.00000000  0.42500000
   0.50000000  0.25000000  0.42500000
   0.50000000  0.50000000  0.42500000
   0.50000000  0.75000000  0.42500000
   0.75000000  0.00000000  0.42500000
   0.75000000  0.25000000  0.42500000
   0.75000000  0.50000000  0.42500000
   0.75000000  0.75000000  0.42500000
   0.00000000  0.00000000  0.42500000
   0.00000000  0.25000000  0.42500000
   0.00000000  0.50000000  0.42500000
   0.00000000  0.75000000  0.42500000
   0.12500000  0.12500000  0.47500000
   0.12500000  0.37500000  0.47500000
   0.12500000  0.62500000  0.47500000
   0.12500000  0.87500000  0.47500000
   0.37500000  0.12500000  0.47500000
   0.37500000  0.37500000  0.47500000
   0.37500000  0.62500000  0.47500000
   0.37500000  0.87500000  0.47500000
   0.62500000  0.12500000  0.47500000
   0.62500000  0.37500000  0.47500000
   0.62500000  0.62500000  0.47500000
   0.62500000  0.87500000  0.47500000
   0.87500000  0.12500000  0.47500000
   0.87500000  0.37500000  0.47500000
   0.87500000  0.62500000  0.47500000
   0.87500000  0.87500000  0.47500000
   0.23149983  0.87314435  0.61779733
   0.51794753  0.87499279  0.61732790
 
 position of ions in cartesian coordinates  (Angst):
  11.07936902  2.76857185 20.57095942
  11.07938852  5.54148553 20.57089009
   0.01455753  8.32420850 20.59758767
   0.01501845 11.06572081 20.59808399
   2.77060887  2.76766485 20.57450380
   2.77059834  5.54239685 20.57435690
   2.77833326  8.33337659 20.60628369
   2.77839354 11.05661864 20.60641884
   5.53950313  2.76762607 20.57460721
   5.53960928  5.54235153 20.57434671
   5.53125976  8.33311855 20.60624883
   5.53103152 11.05686129 20.60646898
   8.31081834  2.76858935 20.57081174
   8.31083130  5.54149960 20.57065348
   8.29688992  8.32441193 20.59767620
   8.29687463 11.06548171 20.59785914
   1.37410375  1.40763411 22.51780307
   1.37638453  4.15538391 22.51410945
   1.37380881  6.90223845 22.51804712
   1.37599906  9.69454811 22.69073822
   4.15430108  1.40660535 22.51551654
   4.15508553  4.15547476 22.51311406
   4.15529350  6.90300850 22.51524272
   4.13484772  9.69419699 23.05789123
   6.93625079  1.40850798 22.51753238
   6.93369966  4.15549969 22.51410083
   6.93655537  6.90197908 22.51744777
   6.93985527  9.69610061 22.67915280
   9.69527628  1.40328906 22.51437112
   9.69491729  4.15569647 22.51508603
   9.69524802  6.90767531 22.51425360
   9.70037620  9.69618005 22.53320433
   2.76995051  0.00000000 16.64853167
   2.76995051  2.76995051 16.64853167
   2.76995051  5.53990101 16.64853167
   2.76995051  8.30985152 16.64853167
   5.53990101  0.00000000 16.64853167
   5.53990101  2.76995051 16.64853167
   5.53990101  5.53990101 16.64853167
   5.53990101  8.30985152 16.64853167
   8.30985152  0.00000000 16.64853167
   8.30985152  2.76995051 16.64853167
   8.30985152  5.53990101 16.64853167
   8.30985152  8.30985152 16.64853167
   0.00000000  0.00000000 16.64853167
   0.00000000  2.76995051 16.64853167
   0.00000000  5.53990101 16.64853167
   0.00000000  8.30985152 16.64853167
   1.38497525  1.38497525 18.60718246
   1.38497525  4.15492576 18.60718246
   1.38497525  6.92487626 18.60718246
   1.38497525  9.69482677 18.60718246
   4.15492576  1.38497525 18.60718246
   4.15492576  4.15492576 18.60718246
   4.15492576  6.92487626 18.60718246
   4.15492576  9.69482677 18.60718246
   6.92487626  1.38497525 18.60718246
   6.92487626  4.15492576 18.60718246
   6.92487626  6.92487626 18.60718246
   6.92487626  9.69482677 18.60718246
   9.69482677  1.38497525 18.60718246
   9.69482677  4.15492576 18.60718246
   9.69482677  6.92487626 18.60718246
   9.69482677  9.69482677 18.60718246
   2.56497228  9.67426653 24.20098451
   5.73875609  9.69474688 24.18259552
 


--------------------------------------------------------------------------------------------------------


 k-point   1 :   0.0000 0.0000 0.0000  plane waves:  122103
 k-point   2 :   0.3333 0.0000 0.0000  plane waves:  122036
 k-point   3 :   0.0000 0.3333 0.0000  plane waves:  122036
 k-point   4 :   0.3333 0.3333 0.0000  plane waves:  122170
 k-point   5 :  -0.3333 0.3333 0.0000  plane waves:  122170

 maximum and minimum number of plane-waves per node :    122170   122036

 maximum number of plane-waves:    122170
 maximum index in each direction: 
   IXMAX=   20   IYMAX=   20   IZMAX=   71
   IXMIN=  -20   IYMIN=  -20   IZMIN=  -71


 serial   3D FFT for wavefunctions
 parallel 3D FFT for charge:
    minimum data exchange during FFTs selected (reduces bandwidth)


 total amount of memory used by VASP MPI-rank0   891595. kBytes
=======================================================================

   base      :      30000. kBytes
   nonlr-proj:      54563. kBytes
   fftplans  :      43681. kBytes
   grid      :     248188. kBytes
   one-center:       2052. kBytes
   wavefun   :     513111. kBytes
 
     INWAV:  cpu time      9.4172: real time      9.4182
 Broyden mixing: mesh for mixing (old mesh)
   NGX = 41   NGY = 41   NGZ =143
  (NGX  =168   NGY  =168   NGZ  =576)
  gives a total of 240383 points

 charge density for first step will be calculated from the start-wavefunctions


--------------------------------------------------------------------------------------------------------


 Maximum index for non-local projection operator           624
 Maximum index for augmentation-charges          1674 (set IRDMAX)


--------------------------------------------------------------------------------------------------------


 initial charge from wavefunction
 First call to EWALD:  gamma=   0.105
 Maximum number of real-space cells 4x 4x 1
 Maximum number of reciprocal cells 2x 2x 6

    FEWALD:  cpu time      0.0117: real time      0.0018


--------------------------------------- Iteration      1(   1)  ---------------------------------------


    POTLOK:  cpu time      1.9397: real time      1.0496
    SETDIJ:  cpu time      4.3499: real time      0.5651
     EDDAV:  cpu time    279.6659: real time     41.5260
       DOS:  cpu time      0.0015: real time      0.0022
    CHARGE:  cpu time     15.8412: real time      2.2400
    MIXING:  cpu time      0.0554: real time      0.0126
    --------------------------------------------
      LOOP:  cpu time    301.8538: real time     45.3956

 eigenvalue-minimisations  :  7536
 total energy-change (2. order) :-0.3223162E+03  (-0.1598068E-03)
 number of electron     651.9999990 magnetization      21.6319086
 augmentation part      270.7416707 magnetization      13.9689910

 Broyden mixing:
  rms(total) = 0.11403E+00    rms(broyden)= 0.11402E+00
  rms(prec ) = 0.11619E+00
  weight for this iteration     100.00

 Free energy of the ion-electron system (eV)
  ---------------------------------------------------
  alpha Z        PSCENC =       571.81432613
  Ewald energy   TEWEN  =    599467.64590310
  -Hartree energ DENC   =   -651968.69970499
  -exchange      EXHF   =         0.00000000
  -V(xc)+E(xc)   XCENC  =     -1846.05470836
  PAW double counting   =     61043.44577883   -57201.80627504
  entropy T*S    EENTRO =         0.05029186
  eigenvalues    EBANDS =     -3077.30322845
  atomic energy  EATOM  =     52688.59140359
  Solvation  Ediel_sol  =         0.00000000
  ---------------------------------------------------
  free energy    TOTEN  =      -322.31621334 eV

  energy without entropy =     -322.36650519  energy(sigma->0) =     -322.33297729


--------------------------------------------------------------------------------------------------------




--------------------------------------- Iteration      1(   2)  ---------------------------------------


    POTLOK:  cpu time      1.8659: real time      0.8958
    SETDIJ:  cpu time      4.3799: real time      0.5585
    EDDIAG:  cpu time     49.6167: real time      7.8679
  RMM-DIIS:  cpu time    173.5295: real time     22.2838
    ORTHCH:  cpu time      7.0910: real time      1.6608
       DOS:  cpu time      0.0011: real time      0.0011
    CHARGE:  cpu time     15.8729: real time      2.2717
    MIXING:  cpu time      0.0514: real time      0.0147
    --------------------------------------------
      LOOP:  cpu time    252.4085: real time     35.5544

 eigenvalue-minimisations  :  8327
 total energy-change (2. order) :-0.7076959E-01  (-0.5246520E-02)
 number of electron     651.9999990 magnetization      21.6209262
 augmentation part      270.7833126 magnetization      14.0911874

 Broyden mixing:
  rms(total) = 0.31391E+00    rms(broyden)= 0.31390E+00
  rms(prec ) = 0.35997E+00
  weight for this iteration     100.00

 eigenvalues of (default mixing * dielectric matrix)
  average eigenvalue GAMMA=   0.2476
  0.2476

 Free energy of the ion-electron system (eV)
  ---------------------------------------------------
  alpha Z        PSCENC =       571.81432613
  Ewald energy   TEWEN  =    599467.64590310
  -Hartree energ DENC   =   -651963.06941001
  -exchange      EXHF   =         0.00000000
  -V(xc)+E(xc)   XCENC  =     -1846.22238521
  PAW double counting   =     61039.24082080   -57197.72236948
  entropy T*S    EENTRO =         0.01513115
  eigenvalues    EBANDS =     -3082.68040300
  atomic energy  EATOM  =     52688.59140359
  Solvation  Ediel_sol  =         0.00000000
  ---------------------------------------------------
  free energy    TOTEN  =      -322.38698293 eV

  energy without entropy =     -322.40211408  energy(sigma->0) =     -322.39202664


--------------------------------------------------------------------------------------------------------




--------------------------------------- Iteration      1(   3)  ---------------------------------------


    POTLOK:  cpu time      1.8449: real time      0.9070
    SETDIJ:  cpu time      4.4165: real time      0.5623
    EDDIAG:  cpu time     50.2998: real time      7.7778
  RMM-DIIS:  cpu time    173.7024: real time     22.2435
    ORTHCH:  cpu time      6.8654: real time      1.6134
       DOS:  cpu time      0.0012: real time      0.0012
    CHARGE:  cpu time     15.9578: real time      2.2638
    MIXING:  cpu time      0.0549: real time      0.0111
    --------------------------------------------
      LOOP:  cpu time    253.1429: real time     35.3801

 eigenvalue-minimisations  :  8335
 total energy-change (2. order) : 0.4982175E-01  (-0.3069763E-02)
 number of electron     651.9999990 magnetization      21.5990151
 augmentation part      270.8025694 magnetization      14.0000344

 Broyden mixing:
  rms(total) = 0.19425E+00    rms(broyden)= 0.19421E+00
  rms(prec ) = 0.22897E+00
  weight for this iteration     100.00

 eigenvalues of (default mixing * dielectric matrix)
  average eigenvalue GAMMA=   0.4087
  0.7217  0.0957

 Free energy of the ion-electron system (eV)
  ---------------------------------------------------
  alpha Z        PSCENC =       571.81432613
  Ewald energy   TEWEN  =    599467.64590310
  -Hartree energ DENC   =   -651965.20664292
  -exchange      EXHF   =         0.00000000
  -V(xc)+E(xc)   XCENC  =     -1846.23158149
  PAW double counting   =     61039.35729308   -57197.84974739
  entropy T*S    EENTRO =         0.01498668
  eigenvalues    EBANDS =     -3080.47310196
  atomic energy  EATOM  =     52688.59140359
  Solvation  Ediel_sol  =         0.00000000
  ---------------------------------------------------
  free energy    TOTEN  =      -322.33716118 eV

  energy without entropy =     -322.35214786  energy(sigma->0) =     -322.34215674


--------------------------------------------------------------------------------------------------------




--------------------------------------- Iteration      1(   4)  ---------------------------------------


    POTLOK:  cpu time      1.8745: real time      0.9201
    SETDIJ:  cpu time      4.2847: real time      0.5512
    EDDIAG:  cpu time     50.2100: real time      7.9034
  RMM-DIIS:  cpu time    173.4673: real time     22.1912
    ORTHCH:  cpu time      7.5706: real time      1.7316
       DOS:  cpu time      0.0013: real time      0.0013
    CHARGE:  cpu time     15.8525: real time      2.2631
    MIXING:  cpu time      0.0490: real time      0.0102
    --------------------------------------------
      LOOP:  cpu time    253.3097: real time     35.5719

 eigenvalue-minimisations  :  8334
 total energy-change (2. order) : 0.2129880E-01  (-0.1601607E-02)
 number of electron     651.9999990 magnetization      21.5405494
 augmentation part      270.7604527 magnetization      13.9553120

 Broyden mixing:
  rms(total) = 0.14418E+00    rms(broyden)= 0.14416E+00
  rms(prec ) = 0.15940E+00
  weight for this iteration     100.00

 eigenvalues of (default mixing * dielectric matrix)
  average eigenvalue GAMMA=   0.5144
  1.2839  0.1744  0.0847

 Free energy of the ion-electron system (eV)
  ---------------------------------------------------
  alpha Z        PSCENC =       571.81432613
  Ewald energy   TEWEN  =    599467.64590310
  -Hartree energ DENC   =   -651967.38252922
  -exchange      EXHF   =         0.00000000
  -V(xc)+E(xc)   XCENC  =     -1846.25878858
  PAW double counting   =     61039.15759688   -57197.63856335
  entropy T*S    EENTRO =         0.00713563
  eigenvalues    EBANDS =     -3078.25234656
  atomic energy  EATOM  =     52688.59140359
  Solvation  Ediel_sol  =         0.00000000
  ---------------------------------------------------
  free energy    TOTEN  =      -322.31586238 eV

  energy without entropy =     -322.32299801  energy(sigma->0) =     -322.31824092


--------------------------------------------------------------------------------------------------------




--------------------------------------- Iteration      1(   5)  ---------------------------------------


    POTLOK:  cpu time      1.8726: real time      0.8794
    SETDIJ:  cpu time      4.3843: real time      0.5613
    EDDIAG:  cpu time     50.1914: real time      7.8482
  RMM-DIIS:  cpu time    174.2404: real time     22.2592
    ORTHCH:  cpu time      8.0474: real time      1.7280
       DOS:  cpu time      0.0011: real time      0.0011
    CHARGE:  cpu time     15.7441: real time      2.2577
    MIXING:  cpu time      0.0528: real time      0.0110
    --------------------------------------------
      LOOP:  cpu time    254.5342: real time     35.5458

 eigenvalue-minimisations  :  8358
 total energy-change (2. order) : 0.3864065E-01  (-0.1238407E-02)
 number of electron     651.9999990 magnetization      21.5059922
 augmentation part      270.7799988 magnetization      13.9212643

 Broyden mixing:
  rms(total) = 0.94403E-01    rms(broyden)= 0.94391E-01
  rms(prec ) = 0.99074E-01
  weight for this iteration     100.00

 eigenvalues of (default mixing * dielectric matrix)
  average eigenvalue GAMMA=   0.5230
  1.4905  0.3618  0.1561  0.0837

 Free energy of the ion-electron system (eV)
  ---------------------------------------------------
  alpha Z        PSCENC =       571.81432613
  Ewald energy   TEWEN  =    599467.64590310
  -Hartree energ DENC   =   -651967.67972610
  -exchange      EXHF   =         0.00000000
  -V(xc)+E(xc)   XCENC  =     -1846.27571581
  PAW double counting   =     61037.59076157   -57196.08178841
  entropy T*S    EENTRO =        -0.00101902
  eigenvalues    EBANDS =     -3077.88136678
  atomic energy  EATOM  =     52688.59140359
  Solvation  Ediel_sol  =         0.00000000
  ---------------------------------------------------
  free energy    TOTEN  =      -322.27722173 eV

  energy without entropy =     -322.27620271  energy(sigma->0) =     -322.27688206


--------------------------------------------------------------------------------------------------------




--------------------------------------- Iteration      1(   6)  ---------------------------------------


    POTLOK:  cpu time      1.8326: real time      0.8979
    SETDIJ:  cpu time      4.2347: real time      0.5507
    EDDIAG:  cpu time     50.3533: real time      7.7902
  RMM-DIIS:  cpu time    174.6258: real time     22.2466
    ORTHCH:  cpu time      6.9699: real time      1.6403
       DOS:  cpu time      0.0011: real time      0.0011
    CHARGE:  cpu time     15.7154: real time      2.2627
    MIXING:  cpu time      0.0498: real time      0.0107
    --------------------------------------------
      LOOP:  cpu time    253.7837: real time     35.4004

 eigenvalue-minimisations  :  8350
 total energy-change (2. order) : 0.2918049E-01  (-0.6051878E-03)
 number of electron     651.9999990 magnetization      21.4450683
 augmentation part      270.7933667 magnetization      13.8919829

 Broyden mixing:
  rms(total) = 0.67768E-01    rms(broyden)= 0.67764E-01
  rms(prec ) = 0.68739E-01
  weight for this iteration     100.00

 eigenvalues of (default mixing * dielectric matrix)
  average eigenvalue GAMMA=   0.6036
  1.9044  0.6573  0.0837  0.1530  0.2193

 Free energy of the ion-electron system (eV)
  ---------------------------------------------------
  alpha Z        PSCENC =       571.81432613
  Ewald energy   TEWEN  =    599467.64590310
  -Hartree energ DENC   =   -651965.94792844
  -exchange      EXHF   =         0.00000000
  -V(xc)+E(xc)   XCENC  =     -1846.26475130
  PAW double counting   =     61036.53314385   -57195.01900344
  entropy T*S    EENTRO =        -0.00139826
  eigenvalues    EBANDS =     -3079.59973646
  atomic energy  EATOM  =     52688.59140359
  Solvation  Ediel_sol  =         0.00000000
  ---------------------------------------------------
  free energy    TOTEN  =      -322.24804124 eV

  energy without entropy =     -322.24664297  energy(sigma->0) =     -322.24757515


--------------------------------------------------------------------------------------------------------




--------------------------------------- Iteration      1(   7)  ---------------------------------------


    POTLOK:  cpu time      1.8398: real time      0.8900
    SETDIJ:  cpu time      4.2386: real time      0.5602
    EDDIAG:  cpu time     49.6055: real time      7.7283
  RMM-DIIS:  cpu time    181.6643: real time     23.0287
    ORTHCH:  cpu time      6.7666: real time      1.6360
       DOS:  cpu time      0.0011: real time      0.0011
    CHARGE:  cpu time     15.9565: real time      2.2938
    MIXING:  cpu time      0.0528: real time      0.0116
    --------------------------------------------
      LOOP:  cpu time    260.1241: real time     36.1496

 eigenvalue-minimisations  :  8551
 total energy-change (2. order) : 0.5484813E-01  (-0.4901559E-03)
 number of electron     651.9999990 magnetization      21.3713999
 augmentation part      270.7846115 magnetization      13.8414011

 Broyden mixing:
  rms(total) = 0.65308E-01    rms(broyden)= 0.65305E-01
  rms(prec ) = 0.66155E-01
  weight for this iteration     100.00

 eigenvalues of (default mixing * dielectric matrix)
  average eigenvalue GAMMA=   0.5949
  2.0856  0.7446  0.3035  0.0838  0.2003  0.1518

 Free energy of the ion-electron system (eV)
  ---------------------------------------------------
  alpha Z        PSCENC =       571.81432613
  Ewald energy   TEWEN  =    599467.64590310
  -Hartree energ DENC   =   -651967.17642870
  -exchange      EXHF   =         0.00000000
  -V(xc)+E(xc)   XCENC  =     -1846.23435785
  PAW double counting   =     61035.93544428   -57194.39879595
  entropy T*S    EENTRO =        -0.00649994
  eigenvalues    EBANDS =     -3078.36418778
  atomic energy  EATOM  =     52688.59140359
  Solvation  Ediel_sol  =         0.00000000
  ---------------------------------------------------
  free energy    TOTEN  =      -322.19319311 eV

  energy without entropy =     -322.18669317  energy(sigma->0) =     -322.19102646


--------------------------------------------------------------------------------------------------------




--------------------------------------- Iteration      1(   8)  ---------------------------------------


    POTLOK:  cpu time      1.9782: real time      0.9257
    SETDIJ:  cpu time      4.2334: real time      0.5589
    EDDIAG:  cpu time     50.1235: real time      7.8803
  RMM-DIIS:  cpu time    186.3908: real time     23.7792
    ORTHCH:  cpu time      6.7144: real time      1.5634
       DOS:  cpu time      0.0012: real time      0.0012
    CHARGE:  cpu time     15.7908: real time      2.2637
    MIXING:  cpu time      0.0527: real time      0.0121
    --------------------------------------------
      LOOP:  cpu time    265.2850: real time     36.9846

 eigenvalue-minimisations  :  8817
 total energy-change (2. order) : 0.8126270E-01  (-0.4668426E-03)
 number of electron     651.9999990 magnetization      21.1722594
 augmentation part      270.7846315 magnetization      13.6601767

 Broyden mixing:
  rms(total) = 0.58732E-01    rms(broyden)= 0.58731E-01
  rms(prec ) = 0.59229E-01
  weight for this iteration     100.00

 eigenvalues of (default mixing * dielectric matrix)
  average eigenvalue GAMMA=   0.6991
  2.3385  1.1939  0.6810  0.0837  0.2530  0.1515  0.1920

 Free energy of the ion-electron system (eV)
  ---------------------------------------------------
  alpha Z        PSCENC =       571.81432613
  Ewald energy   TEWEN  =    599467.64590310
  -Hartree energ DENC   =   -651968.60574603
  -exchange      EXHF   =         0.00000000
  -V(xc)+E(xc)   XCENC  =     -1846.17002765
  PAW double counting   =     61035.50245760   -57193.94790268
  entropy T*S    EENTRO =        -0.01170073
  eigenvalues    EBANDS =     -3076.93064374
  atomic energy  EATOM  =     52688.59140359
  Solvation  Ediel_sol  =         0.00000000
  ---------------------------------------------------
  free energy    TOTEN  =      -322.11193041 eV

  energy without entropy =     -322.10022968  energy(sigma->0) =     -322.10803016


--------------------------------------------------------------------------------------------------------




--------------------------------------- Iteration      1(   9)  ---------------------------------------


    POTLOK:  cpu time      1.8185: real time      0.9076
    SETDIJ:  cpu time      4.4057: real time      0.5572
    EDDIAG:  cpu time     49.5670: real time      7.6494
  RMM-DIIS:  cpu time    214.3461: real time     27.4607
    ORTHCH:  cpu time      6.8102: real time      1.5353
       DOS:  cpu time      0.0013: real time      0.0013
    CHARGE:  cpu time     15.9691: real time      2.2347
    MIXING:  cpu time      0.0531: real time      0.0120
    --------------------------------------------
      LOOP:  cpu time    292.9710: real time     40.3581

 eigenvalue-minimisations  : 10075
 total energy-change (2. order) : 0.2223630E+00  (-0.1525720E-02)
 number of electron     651.9999990 magnetization      20.9392220
 augmentation part      270.7925846 magnetization      13.5227370

 Broyden mixing:
  rms(total) = 0.83368E-01    rms(broyden)= 0.83368E-01
  rms(prec ) = 0.87546E-01
  weight for this iteration     100.00

 eigenvalues of (default mixing * dielectric matrix)
  average eigenvalue GAMMA=   0.8005
  3.1727  1.6028  0.7255  0.0837  0.2748  0.2131  0.1515  0.1795

 Free energy of the ion-electron system (eV)
  ---------------------------------------------------
  alpha Z        PSCENC =       571.81432613
  Ewald energy   TEWEN  =    599467.64590310
  -Hartree energ DENC   =   -651970.50528608
  -exchange      EXHF   =         0.00000000
  -V(xc)+E(xc)   XCENC  =     -1845.95881089
  PAW double counting   =     61034.96936785   -57193.37425289
  entropy T*S    EENTRO =        -0.01715383
  eigenvalues    EBANDS =     -3075.05506443
  atomic energy  EATOM  =     52688.59140359
  Solvation  Ediel_sol  =         0.00000000
  ---------------------------------------------------
  free energy    TOTEN  =      -321.88956745 eV

  energy without entropy =     -321.87241362  energy(sigma->0) =     -321.88384951


--------------------------------------------------------------------------------------------------------




--------------------------------------- Iteration      1(  10)  ---------------------------------------


    POTLOK:  cpu time      1.7982: real time      0.8775
    SETDIJ:  cpu time      4.1694: real time      0.5251
    EDDIAG:  cpu time     49.2696: real time      7.6087
  RMM-DIIS:  cpu time    210.3717: real time     26.8581
    ORTHCH:  cpu time      6.6174: real time      1.4034
       DOS:  cpu time      0.0013: real time      0.0013
    CHARGE:  cpu time     16.0411: real time      2.2637
    MIXING:  cpu time      0.0535: real time      0.0123
    --------------------------------------------
      LOOP:  cpu time    288.3234: real time     39.5502

 eigenvalue-minimisations  :  9884
 total energy-change (2. order) : 0.2570981E+00  (-0.1249972E-02)
 number of electron     651.9999990 magnetization      20.8104692
 augmentation part      270.7886516 magnetization      13.4684922

 Broyden mixing:
  rms(total) = 0.60163E-01    rms(broyden)= 0.60163E-01
  rms(prec ) = 0.62354E-01
  weight for this iteration     100.00

 eigenvalues of (default mixing * dielectric matrix)
  average eigenvalue GAMMA=   0.8513
  3.9908  1.6927  0.7533  0.3791  0.0837  0.2516  0.1952  0.1514  0.1637

 Free energy of the ion-electron system (eV)
  ---------------------------------------------------
  alpha Z        PSCENC =       571.81432613
  Ewald energy   TEWEN  =    599467.64590310
  -Hartree energ DENC   =   -651974.86638726
  -exchange      EXHF   =         0.00000000
  -V(xc)+E(xc)   XCENC  =     -1845.72869008
  PAW double counting   =     61035.03167531   -57193.39432481
  entropy T*S    EENTRO =        -0.02331434
  eigenvalues    EBANDS =     -3070.70306101
  atomic energy  EATOM  =     52688.59140359
  Solvation  Ediel_sol  =         0.00000000
  ---------------------------------------------------
  free energy    TOTEN  =      -321.63246937 eV

  energy without entropy =     -321.60915503  energy(sigma->0) =     -321.62469793


--------------------------------------------------------------------------------------------------------




--------------------------------------- Iteration      1(  11)  ---------------------------------------


    POTLOK:  cpu time      1.8306: real time      0.8817
    SETDIJ:  cpu time      4.1628: real time      0.5353
    EDDIAG:  cpu time     49.7439: real time      7.5988
  RMM-DIIS:  cpu time    184.9159: real time     23.6079
    ORTHCH:  cpu time      6.5790: real time      1.3938
       DOS:  cpu time      0.0011: real time      0.0011
    CHARGE:  cpu time     16.0321: real time      2.2682
    MIXING:  cpu time      0.0536: real time      0.0126
    --------------------------------------------
      LOOP:  cpu time    263.3176: real time     36.2993

 eigenvalue-minimisations  :  8811
 total energy-change (2. order) : 0.9960587E-01  (-0.3123258E-03)
 number of electron     651.9999990 magnetization      20.5787462
 augmentation part      270.7791434 magnetization      13.2896191

 Broyden mixing:
  rms(total) = 0.45538E-01    rms(broyden)= 0.45536E-01
  rms(prec ) = 0.46443E-01
  weight for this iteration     100.00

 eigenvalues of (default mixing * dielectric matrix)
  average eigenvalue GAMMA=   0.9891
  5.4823  1.7992  0.8835  0.6239  0.0837  0.2746  0.2502  0.1908  0.1507  0.1525

 Free energy of the ion-electron system (eV)
  ---------------------------------------------------
  alpha Z        PSCENC =       571.81432613
  Ewald energy   TEWEN  =    599467.64590310
  -Hartree energ DENC   =   -651977.77273456
  -exchange      EXHF   =         0.00000000
  -V(xc)+E(xc)   XCENC  =     -1845.64261634
  PAW double counting   =     61035.37976414   -57193.72782935
  entropy T*S    EENTRO =        -0.02727794
  eigenvalues    EBANDS =     -3067.79380228
  atomic energy  EATOM  =     52688.59140359
  Solvation  Ediel_sol  =         0.00000000
  ---------------------------------------------------
  free energy    TOTEN  =      -321.53286351 eV

  energy without entropy =     -321.50558557  energy(sigma->0) =     -321.52377086


--------------------------------------------------------------------------------------------------------




--------------------------------------- Iteration      1(  12)  ---------------------------------------


    POTLOK:  cpu time      1.8117: real time      0.8798
    SETDIJ:  cpu time      4.2427: real time      0.5335
    EDDIAG:  cpu time     50.2198: real time      7.8486
  RMM-DIIS:  cpu time    177.9904: real time     22.8701
    ORTHCH:  cpu time      7.0300: real time      1.7289
       DOS:  cpu time      0.0014: real time      0.0014
    CHARGE:  cpu time     16.0531: real time      2.2578
    MIXING:  cpu time      0.0560: real time      0.0133
    --------------------------------------------
      LOOP:  cpu time    257.4050: real time     36.1335

 eigenvalue-minimisations  :  8500
 total energy-change (2. order) : 0.1101790E+00  (-0.2009452E-03)
 number of electron     651.9999990 magnetization      20.3934634
 augmentation part      270.7931117 magnetization      13.1909000

 Broyden mixing:
  rms(total) = 0.46085E-01    rms(broyden)= 0.46083E-01
  rms(prec ) = 0.47124E-01
  weight for this iteration     100.00

 eigenvalues of (default mixing * dielectric matrix)
  average eigenvalue GAMMA=   1.0226
  6.2743  1.8104  1.0584  0.6764  0.3636  0.0837  0.2766  0.2112  0.1909  0.1525
  0.1508

 Free energy of the ion-electron system (eV)
  ---------------------------------------------------
  alpha Z        PSCENC =       571.81432613
  Ewald energy   TEWEN  =    599467.64590310
  -Hartree energ DENC   =   -651980.20021709
  -exchange      EXHF   =         0.00000000
  -V(xc)+E(xc)   XCENC  =     -1845.53696549
  PAW double counting   =     61035.62127208   -57193.97257526
  entropy T*S    EENTRO =        -0.03046658
  eigenvalues    EBANDS =     -3065.35536501
  atomic energy  EATOM  =     52688.59140359
  Solvation  Ediel_sol  =         0.00000000
  ---------------------------------------------------
  free energy    TOTEN  =      -321.42268453 eV

  energy without entropy =     -321.39221795  energy(sigma->0) =     -321.41252900


--------------------------------------------------------------------------------------------------------




--------------------------------------- Iteration      1(  13)  ---------------------------------------


    POTLOK:  cpu time      1.9002: real time      0.9137
    SETDIJ:  cpu time      4.1711: real time      0.5620
    EDDIAG:  cpu time     50.2949: real time      7.9726
  RMM-DIIS:  cpu time    173.9237: real time     22.2786
    ORTHCH:  cpu time      6.8991: real time      1.5884
       DOS:  cpu time      0.0012: real time      0.0012
    CHARGE:  cpu time     16.0038: real time      2.2479
    MIXING:  cpu time      0.0582: real time      0.0139
    --------------------------------------------
      LOOP:  cpu time    253.2523: real time     35.5783

 eigenvalue-minimisations  :  8317
 total energy-change (2. order) : 0.4058344E-01  (-0.9525357E-04)
 number of electron     651.9999990 magnetization      20.1154522
 augmentation part      270.7800711 magnetization      12.9869675

 Broyden mixing:
  rms(total) = 0.37894E-01    rms(broyden)= 0.37888E-01
  rms(prec ) = 0.38417E-01
  weight for this iteration     100.00

 eigenvalues of (default mixing * dielectric matrix)
  average eigenvalue GAMMA=   1.1931
  8.0162  2.0604  1.5175  0.7855  0.6159  0.0837  0.2955  0.2387  0.2134  0.1885
  0.1521  0.1503

 Free energy of the ion-electron system (eV)
  ---------------------------------------------------
  alpha Z        PSCENC =       571.81432613
  Ewald energy   TEWEN  =    599467.64590310
  -Hartree energ DENC   =   -651983.32140281
  -exchange      EXHF   =         0.00000000
  -V(xc)+E(xc)   XCENC  =     -1845.50502863
  PAW double counting   =     61035.93238812   -57194.28265543
  entropy T*S    EENTRO =        -0.03438061
  eigenvalues    EBANDS =     -3062.22265454
  atomic energy  EATOM  =     52688.59140359
  Solvation  Ediel_sol  =         0.00000000
  ---------------------------------------------------
  free energy    TOTEN  =      -321.38210109 eV

  energy without entropy =     -321.34772048  energy(sigma->0) =     -321.37064089


--------------------------------------------------------------------------------------------------------




--------------------------------------- Iteration      1(  14)  ---------------------------------------


    POTLOK:  cpu time      1.8371: real time      0.9061
    SETDIJ:  cpu time      4.3401: real time      0.5661
    EDDIAG:  cpu time     50.5772: real time      7.9468
  RMM-DIIS:  cpu time    194.4444: real time     24.8767
    ORTHCH:  cpu time      6.9535: real time      1.7120
       DOS:  cpu time      0.0011: real time      0.0011
    CHARGE:  cpu time     15.8558: real time      2.2965
    MIXING:  cpu time      0.0592: real time      0.0143
    --------------------------------------------
      LOOP:  cpu time    274.0682: real time     38.3196

 eigenvalue-minimisations  :  9114
 total energy-change (2. order) :-0.2340630E-01  (-0.3100506E-03)
 number of electron     651.9999990 magnetization      19.9460763
 augmentation part      270.7825829 magnetization      12.9162713

 Broyden mixing:
  rms(total) = 0.42861E-01    rms(broyden)= 0.42861E-01
  rms(prec ) = 0.44763E-01
  weight for this iteration     100.00

 eigenvalues of (default mixing * dielectric matrix)
  average eigenvalue GAMMA=   1.2473
  9.2277  2.3058  1.6452  0.8358  0.6402  0.0837  0.3079  0.2432  0.2432  0.1522
  0.1505  0.1922  0.1870

 Free energy of the ion-electron system (eV)
  ---------------------------------------------------
  alpha Z        PSCENC =       571.81432613
  Ewald energy   TEWEN  =    599467.64590310
  -Hartree energ DENC   =   -651986.23844665
  -exchange      EXHF   =         0.00000000
  -V(xc)+E(xc)   XCENC  =     -1845.52088770
  PAW double counting   =     61035.80814539   -57194.18071262
  entropy T*S    EENTRO =        -0.03878249
  eigenvalues    EBANDS =     -3059.28645613
  atomic energy  EATOM  =     52688.59140359
  Solvation  Ediel_sol  =         0.00000000
  ---------------------------------------------------
  free energy    TOTEN  =      -321.40550739 eV

  energy without entropy =     -321.36672490  energy(sigma->0) =     -321.39257989


--------------------------------------------------------------------------------------------------------




--------------------------------------- Iteration      1(  15)  ---------------------------------------


    POTLOK:  cpu time      1.8411: real time      0.9077
    SETDIJ:  cpu time      4.2637: real time      0.5613
    EDDIAG:  cpu time     50.3678: real time      7.8876
  RMM-DIIS:  cpu time    187.4135: real time     24.3691
    ORTHCH:  cpu time      7.0643: real time      1.7270
       DOS:  cpu time      0.0012: real time      0.0012
    CHARGE:  cpu time     15.7706: real time      2.2639
    MIXING:  cpu time      0.0616: real time      0.0150
    --------------------------------------------
      LOOP:  cpu time    266.7840: real time     37.7330

 eigenvalue-minimisations  :  8922
 total energy-change (2. order) :-0.2473662E-01  (-0.1955044E-03)
 number of electron     651.9999990 magnetization      19.7580016
 augmentation part      270.7842302 magnetization      12.7857553

 Broyden mixing:
  rms(total) = 0.36169E-01    rms(broyden)= 0.36168E-01
  rms(prec ) = 0.37393E-01
  weight for this iteration     100.00

 eigenvalues of (default mixing * dielectric matrix)
  average eigenvalue GAMMA=   1.3257
 10.7360  2.5616  1.7686  0.8895  0.6711  0.4527  0.0837  0.2944  0.2481  0.2090
  0.1894  0.1500  0.1516  0.1542

 Free energy of the ion-electron system (eV)
  ---------------------------------------------------
  alpha Z        PSCENC =       571.81432613
  Ewald energy   TEWEN  =    599467.64590310
  -Hartree energ DENC   =   -651987.47262989
  -exchange      EXHF   =         0.00000000
  -V(xc)+E(xc)   XCENC  =     -1845.54368189
  PAW double counting   =     61035.31157721   -57193.69498077
  entropy T*S    EENTRO =        -0.04116989
  eigenvalues    EBANDS =     -3058.04099159
  atomic energy  EATOM  =     52688.59140359
  Solvation  Ediel_sol  =         0.00000000
  ---------------------------------------------------
  free energy    TOTEN  =      -321.43024400 eV

  energy without entropy =     -321.38907412  energy(sigma->0) =     -321.41652071


--------------------------------------------------------------------------------------------------------




--------------------------------------- Iteration      1(  16)  ---------------------------------------


    POTLOK:  cpu time      1.8865: real time      0.9305
    SETDIJ:  cpu time      4.2312: real time      0.5654
    EDDIAG:  cpu time     50.2198: real time      7.9776
  RMM-DIIS:  cpu time    190.8409: real time     24.3431
    ORTHCH:  cpu time      6.8643: real time      1.6870
       DOS:  cpu time      0.0013: real time      0.0013
    CHARGE:  cpu time     15.8970: real time      2.2685
    MIXING:  cpu time      0.0588: real time      0.0156
    --------------------------------------------
      LOOP:  cpu time    269.9998: real time     37.7889

 eigenvalue-minimisations  :  8941
 total energy-change (2. order) :-0.4588162E-01  (-0.2072309E-03)
 number of electron     651.9999990 magnetization      19.5510066
 augmentation part      270.7790312 magnetization      12.6430723

 Broyden mixing:
  rms(total) = 0.28304E-01    rms(broyden)= 0.28302E-01
  rms(prec ) = 0.28671E-01
  weight for this iteration     100.00

 eigenvalues of (default mixing * dielectric matrix)
  average eigenvalue GAMMA=   1.4189
 12.4381  2.8003  1.8991  0.9941  0.7723  0.5933  0.3340  0.0837  0.2796  0.2423
  0.2086  0.1887  0.1522  0.1507  0.1462

 Free energy of the ion-electron system (eV)
  ---------------------------------------------------
  alpha Z        PSCENC =       571.81432613
  Ewald energy   TEWEN  =    599467.64590310
  -Hartree energ DENC   =   -651988.49159319
  -exchange      EXHF   =         0.00000000
  -V(xc)+E(xc)   XCENC  =     -1845.59478933
  PAW double counting   =     61034.37117540   -57192.75768719
  entropy T*S    EENTRO =        -0.04431350
  eigenvalues    EBANDS =     -3057.01055063
  atomic energy  EATOM  =     52688.59140359
  Solvation  Ediel_sol  =         0.00000000
  ---------------------------------------------------
  free energy    TOTEN  =      -321.47612562 eV

  energy without entropy =     -321.43181212  energy(sigma->0) =     -321.46135446


--------------------------------------------------------------------------------------------------------




--------------------------------------- Iteration      1(  17)  ---------------------------------------


    POTLOK:  cpu time      1.8688: real time      0.9128
    SETDIJ:  cpu time      4.1712: real time      0.5657
    EDDIAG:  cpu time     49.9647: real time      7.8823
  RMM-DIIS:  cpu time    189.0498: real time     24.3060
[...]
  324                map_gather                            0.299455                  210   7
  325                m_alltoallv_z                         1.014184                  210   7
  326                map_scatter                           0.156156                  210   7
  327              map_backward                          2.259503                    504   6
  328                map_gather                            0.275769                  252   7
  329                m_alltoallv_z                         1.749726                  252   7
  330                map_scatter                           0.232812                  252   7
  331        m_sumb_d                              0.007370                          105   3
  332        forhar                                1.060217                           42   3
  333          m_sumb_d                              0.216272                         42   4
  334        chggra                                0.917309                           21   3
  335          fft3d_mpi                             0.493582                         63   4
  336            fftbrc_mpi                            0.478948                       63   5
  337              fftbas_plan_mpi                       0.478916                     63   6
  338                dfftw_execute                         0.065503                  189   7
  339                map_backward                          0.118330                   42   7
  340                  map_gather                            0.024801                 21   8
  341                  m_alltoallv_z                         0.075724                 21   8
  342                  map_scatter                           0.017737                 21   8
  343                map_forward                           0.252382                   84   7
  344                  map_gather                            0.042831                 42   8
  345                  m_alltoallv_z                         0.180229                 42   8
  346                  map_scatter                           0.029129                 42   8
  347          m_sumb_d                              0.000223                         42   4
  348          pothar                                0.120045                         21   4
  349            m_sumb_d                              0.008401                       21   5
  350        brmix                                 0.274998                           21   3
  351          m_sumb_d                              0.006943                        126   4
  352          brpre                                 0.002187                         42   4
  353          setg0                                 0.083925                         21   4
  354          broyd                                 0.073276                         21   4
  355            m_sumb_d                              0.010694                      328   5
  356            brget                                 0.020729                     1094   5
  357            brsav                                 0.005675                      286   5
  358        m_bcast_d                             0.001692                           42   3
  359      potlok                               18.859697                             21   2
  360        fft3d_mpi                             5.233588                          546   3
  361          fftbrc_mpi                            4.801726                        546   4
  362            fftbas_plan_mpi                       4.801454                      546   5
  363              dfftw_execute                         0.515925                   1638   6
  364              map_forward                           1.834926                    588   6
  365                map_gather                            0.311655                  336   7
  366                m_alltoallv_z                         1.310201                  336   7
  367                map_scatter                           0.212058                  336   7
  368              map_backward                          2.053408                    504   6
  369                map_gather                            0.234447                  252   7
  370                m_alltoallv_z                         1.637045                  252   7
  371                map_scatter                           0.180875                  252   7
  372        m_sumb_d                              0.006927                          105   3
  373        pothar                                0.117544                           21   3
  374          m_sumb_d                              0.003204                         21   4
  375        m_bcast_d                             0.326293                           42   3
  376      potlok_metagga                        0.000011                             21   2
  377      set_dd_magatom                        0.000007                             21   2
  378      set_dd_paw                           11.385702                             21   2
  379        set_rsgf_all                          0.000014                           21   3
  380        m_alltoall_d                          0.322299                           42   3
  381        m_sumb_d                              0.004330                          126   3
  382      m_sumb_d                              0.244076                           4203   2
  383      wavpre_noio                           1.276573                             20   2
  384        stufak                                0.310748                           20   3
  385      m_alltoall_d                          2.941170                          16646   2
  386      densta                                0.021466                              1   2
  387        m_sumb_d                              0.000329                           43   3
  388        m_alltoall_d                          0.008244                            6   3
 
 Flat profile
 ============
 
             routine name                   CPU           calls
 ---------------------------------------------------------------
 fft3d                                1793.189259      370662
 vhamil                                779.170728      127546
 m_alltoall_d                          518.601682      749286
 fftwav                                492.198008      243116
 eccp                                  295.650116      135646
 orth1                                 264.639265       54880
 w1_daxpy                              262.111108      100812
 redis_pw                              203.951619       55270
 lincom                                197.517058        4040
 m_sumb_d                              177.504076       57793
 potlok                                139.131061         223
 w1_copy                               131.304591      241458
 set_dd_paw                            127.709077         244
 w1_dscal                              125.245529      103464
 pw_charge                              93.146360       50730
 pdssyex_zheevx                         88.697522        2020
 ggemm                                  85.590210       21200
 crrexp_mul_work_add                    58.492470     5312076
 rpromu_gemm                            57.196488     1702368
 crrexp_mul_wave                        55.495470     5941872
 gemm                                   41.199852     1172424
 racc0                                  38.588028       15740
 m_alltoallv_z                          37.223413        8008
 eddrmm                                 36.830681         181
 fftext_mpi                             32.522846      127546
 kinhamil                               29.159972      127546
 rpro1                                  28.830281       10280
 total_time                             23.350805           1
 w1_gaxpy                               16.653275       39634
 eddiag                                 12.995147         181
 force_and_stress                       12.391425          21
 w1_gemv                                11.575876       73388
 soft_charge                            11.055913         203
 apply_precond                          11.054984       82634
 choleski                                7.877925        2020
 fft3d_mpi                               7.772666      134702
 map_gather                              7.586997        8008
 lapack                                  7.520127       15740
 eddav                                   7.332718          21
 i2                                      7.195715       17764
 dfftw_execute                           6.683077       21468
 w1_dot                                  6.662814       32720
 m_bcast_z                               6.652498       19902
 cnorma                                  6.309596       83126
 orthch                                  5.679172         202
 fftbas_plan_mpi                         5.407386        7156
 map_scatter                             4.995543        8008
 setup_precond                           4.704295       52520
 phaser                                  4.101966        2440
 rpromu                                  3.905210       23644
 m_bcast_d                               3.853175       32013
 setdij_                                 3.781096         371
 augmentation_charge                     3.366434         203
 racc0mu                                 3.325926       17764
 overl1                                  1.903135      117180
 pothar                                  1.314013         244
 elmin                                   1.194791          21
 rpro_isp                                1.171028         420
 overl                                   1.139852       29850
 sphpro_fast                             1.088519          22
 eccp_nl                                 1.061840       83126
 brmix                                   1.035228         202
 wavpre_noio                             0.965825          20
 zhegv                                   0.909086       17686
 rspher_all                              0.871555          85
 forhar                                  0.843945          42
 setg0                                   0.804348         244
 newband                                 0.615641       35524
 hamiltmu                                0.586253       33504
 redis_proj                              0.536384       63950
 w1_projall                              0.524464       28044
 i3                                      0.496368       17764
 depsum                                  0.422884         203
 forloc                                  0.369377          21
 stufak                                  0.326882          21
 chggra                                  0.303458          21
 broyd                                   0.285009         202
 fftwav_mpi                              0.278070      243116
 set_charge                              0.263516         203
 raccmu_                                 0.251317       33504
 fft_gq                                  0.207021         203
 hamilt_local                            0.188811       47060
 densta                                  0.148809         203
 brget                                   0.146679        8177
 fornlr                                  0.127616          21
 i1                                      0.081072       17764
 brsav                                   0.044146        2334
 truncate_high_frequency_w1              0.039144      133006
 brpre                                   0.021403         404
 map_backward                            0.017039        7522
 rsp                                     0.016374          21
 map_forward                             0.011290        6790
 fftbrc_mpi                              0.003717        7156
 fordep                                  0.003525          21
 brgrid                                  0.001918           1
 rcp                                     0.001777          21
 proall                                  0.001422          21
 fewald                                  0.001050          21
 shift_bands_between_low_high            0.000474        1810
 crpa_reader                             0.000366           1
 set_rsgf_all                            0.000185         244
 potlok_metagga                          0.000073         223
 vectorpot                               0.000056         203
 set_dd_magatom                          0.000020         244
 FERMAT_RAZOR                            0.000014           1
 rotate_active_occupied_orbital          0.000006          21
 redis_pw_over_bands                     0.000005          21
 ---------------------------------------------------------------
  summed up times     6425.315329074860     
 
 Accumulative profile
 ====================
 
             routine name                   CPU           calls
 ---------------------------------------------------------------
 total_time                           6425.315329           1
 elmin                                6041.342116          21
 eddrmm                               2692.757662         181
 fft3d                                1793.189259      370662
 fftwav_mpi                           1680.335378      243116
 fftwav                               1680.057308      243116
 eddiag                               1418.917030         181
 hamiltmu                             1090.312188       33504
 eddav                                 916.608546          21
 vhamil                                779.170728      127546
 fft3d_mpi                             675.031087      134702
 kinhamil                              667.297248      127546
 fftext_mpi                            638.137276      127546
 i3                                    612.934251       17764
 m_alltoall_d                          518.601682      749286
 newband                               511.786499       35524
 hamilt_local                          500.312055       47060
 redis_pw                              494.429871       55270
 i2                                    483.858672       17764
 set_charge                            461.968957         203
 soft_charge                           454.177662         203
 orthch                                343.058450         202
 eccp                                  295.650116      135646
 orth1                                 264.639265       54880
 w1_daxpy                              262.111108      100812
 force_and_stress                      230.346921          21
 potlok                                199.177822         223
 lincom                                197.517058        4040
 rpro_isp                              185.054148         420
 m_sumb_d                              177.504076       57793
 fornlr                                149.865216          21
 raccmu_                               143.381202       33504
 set_dd_paw                            133.088154         244
 w1_copy                               131.304591      241458
 w1_dscal                              125.245529      103464
 w1_projall                            114.981858       28044
 rpromu                                107.370515       23644
 redis_proj                            104.125106       63950
 pw_charge                              93.146360       50730
 pdssyex_zheevx                         88.697536        2020
 racc0mu                                86.134358       17764
 ggemm                                  85.590210       21200
 fftbrc_mpi                             61.928462        7156
 fftbas_plan_mpi                        61.924744        7156
 crrexp_mul_work_add                    58.492470     5312076
 rpromu_gemm                            57.196488     1702368
 crrexp_mul_wave                        55.495470     5941872
 racc0                                  55.471917       15740
 proall                                 46.351926          21
 gemm                                   41.199852     1172424
 rpro1                                  38.056935       10280
 m_alltoallv_z                          37.223413        8008
 map_backward                           29.834805        7522
 map_forward                            19.999478        6790
 w1_gaxpy                               16.653275       39634
 i1                                     15.582647       17764
 w1_gemv                                11.955401       73388
 apply_precond                          11.054984       82634
 choleski                                7.877925        2020
 map_gather                              7.586997        8008
 lapack                                  7.520127       15740
 cnorma                                  7.371436       83126
 augmentation_charge                     6.877095         203
 dfftw_execute                           6.683077       21468
 w1_dot                                  6.662814       32720
 m_bcast_z                               6.652498       19902
 fft_gq                                  5.453720         203
 map_scatter                             4.995543        8008
 setup_precond                           4.704295       52520
 setdij_                                 4.283007         371
 phaser                                  4.101966        2440
 m_bcast_d                               3.853175       32013
 brmix                                   2.502046         202
 overl1                                  1.903135      117180
 pothar                                  1.397065         244
 fordep                                  1.283035          21
 wavpre_noio                             1.276573          20
 sphpro_fast                             1.168055          22
 overl                                   1.139852       29850
 eccp_nl                                 1.061840       83126
 forhar                                  1.060217          42
 chggra                                  0.917309          21
 zhegv                                   0.909086       17686
 rspher_all                              0.871555          85
 setg0                                   0.804348         244
 depsum                                  0.650684         203
 broyd                                   0.567115         202
 forloc                                  0.534192          21
 stufak                                  0.326882          21
 densta                                  0.220809         203
 brget                                   0.146679        8177
 brsav                                   0.044146        2334
 truncate_high_frequency_w1              0.039144      133006
 fewald                                  0.033221          21
 brpre                                   0.021403         404
 rsp                                     0.016374          21
 brgrid                                  0.001918           1
 rcp                                     0.001777          21
 shift_bands_between_low_high            0.000474        1810
 crpa_reader                             0.000366           1
 set_rsgf_all                            0.000185         244
 potlok_metagga                          0.000073         223
 vectorpot                               0.000056         203
 set_dd_magatom                          0.000020         244
 FERMAT_RAZOR                            0.000014           1
 rotate_active_occupied_orbital          0.000006          21
 redis_pw_over_bands                     0.000005          21
 ---------------------------------------------------------------
 
Profiling took   2.340743  1.664724  0.004833  0.004338 seconds
Profiling took   2.366606 seconds
