 vasp.6.2.1 16May21 (build Jul 28 2021 23:24:15) complex                        
  
 executed on      IFC19_CrayMPICH date 2021.11.25  10:27:50
 running   16 mpi-ranks, with    4 threads/rank
 distrk:  each k-point on   16 cores,    1 groups
 distr:  one band on NCORE=   1 cores,   16 groups


--------------------------------------------------------------------------------------------------------


 INCAR:
   ALGO = Fast
   EDIFF = 0.0001
   EDIFFG = -0.05
   ENCUT = 500
   GGA = PE
   IBRION = 2
   ISIF = 0
   ISMEAR = 0
   ISPIN = 2
   ISTART = 1
   ISYM = 0
   LASPH = True
   LORBIT = 11
   LREAL = False
   LWAVE = True
   MAGMOM = 2*1.2 4*0.6
   NCORE = 4
   NELM = 80
   NSW = 300
   PREC = Accurate
   SIGMA = 0.2
   SYMPREC = 1e-10

 POTCAR:    PAW_PBE Ir 06Sep2000                  
 POTCAR:    PAW_PBE O 08Apr2002                   
 POTCAR:    PAW_PBE Ir 06Sep2000                  
   SHA256 =  7c6af8d4d487b237782eb51e6f62977b27a1da78c3c96acd1cebefd6c308f120 Ir/POTCAR             
   COPYR  = (c) Copyright 06Sep2000 Georg Kresse                                                    
   COPYR  = This file is part of the software VASP. Any use, copying, and all other rights are regul
   COPYR  = If you do not have a valid VASP license, you may not use, copy or distribute this file. 
   VRHFIN =Ir: s1d8                                                                                 
   LEXCH  = PE                                                                                      
   EATOM  =   560.1833 eV,   41.1723 Ry                                                             
                                                                                                    
   TITEL  = PAW_PBE Ir 06Sep2000                                                                    
   LULTRA =        F    use ultrasoft PP ?                                                          
   IUNSCR =        1    unscreen: 0-lin 1-nonlin 2-no                                               
   RPACOR =    2.250    partial core radius                                                         
   POMASS =  192.220; ZVAL   =    9.000    mass and valenz                                          
   RCORE  =    2.600    outmost cutoff radius                                                       
   RWIGS  =    2.690; RWIGS  =    1.423    wigner-seitz radius (au A)                               
   ENMAX  =  210.864; ENMIN  =  158.148 eV                                                          
   RCLOC  =    1.857    cutoff for local pot                                                        
   LCOR   =        T    correct aug charges                                                         
   LPAW   =        T    paw PP                                                                      
   EAUG   =  318.962                                                                                
   DEXC   =    0.000                                                                                
   RMAX   =    2.667    core radius for proj-oper                                                   
   RAUG   =    1.300    factor for augmentation sphere                                              
   RDEP   =    2.748    radius for radial grids                                                     
   RDEPT  =    2.300    core radius for aug-charge                                                  
                                                                                                    
   Atomic configuration                                                                             
   16 entries                                                                                       
     n  l   j            E        occ.                                                              
     1  0  0.50    -76100.0449   2.0000                                                             
     2  0  0.50    -13308.1683   2.0000                                                             
     2  1  1.50    -11558.0021   6.0000                                                             
     3  0  0.50     -3110.7274   2.0000                                                             
     3  1  1.50     -2599.2109   6.0000                                                             
     3  2  2.50     -2037.1515  10.0000                                                             
     4  0  0.50      -661.6001   2.0000                                                             
     4  1  1.50      -493.8981   6.0000                                                             
     4  2  2.50      -288.1909  10.0000                                                             
     4  3  3.50       -59.5718  14.0000                                                             
     5  0  0.50       -95.3879   2.0000                                                             
     5  1  1.50       -52.2747   6.0000                                                             
     5  2  2.50        -5.4180   8.0000                                                             
     6  0  0.50        -5.5479   1.0000                                                             
     6  1  1.50        -6.8029   0.0000                                                             
     5  3  2.50        -1.3606   0.0000                                                             
   Description                                                                                      
     l       E           TYP  RCUT    TYP  RCUT                                                     
     2     -5.4179967     23  2.600                                                                 
     2     -6.7785793     23  2.600                                                                 
     0     -5.5478636     23  2.600                                                                 
     0      2.2542272     23  2.600                                                                 
     1     -2.7211652     23  2.600                                                                 
     1     20.4087390     23  2.600                                                                 
  local pseudopotential read in
  partial core-charges read in
  partial kinetic energy density read in
  atomic valenz-charges read in
  non local Contribution for L=           2  read in
    real space projection operators read in
  non local Contribution for L=           2  read in
    real space projection operators read in
  non local Contribution for L=           0  read in
    real space projection operators read in
  non local Contribution for L=           0  read in
    real space projection operators read in
  non local Contribution for L=           1  read in
    real space projection operators read in
  non local Contribution for L=           1  read in
    real space projection operators read in
    PAW grid and wavefunctions read in
 
   number of l-projection  operators is LMAX  =           6
   number of lm-projection operators is LMMAX =          18
 
 POTCAR:    PAW_PBE O 08Apr2002                   
   SHA256 =  818f92134a0a090dccd8ba1447fa70422a3b330e708bb4f08108d8ae51209ddf O/POTCAR              
   COPYR  = (c) Copyright 08Apr2002 Georg Kresse                                                    
   COPYR  = This file is part of the software VASP. Any use, copying, and all other rights are regul
   COPYR  = If you do not have a valid VASP license, you may not use, copy or distribute this file. 
   VRHFIN =O: s2p4                                                                                  
   LEXCH  = PE                                                                                      
   EATOM  =   432.3788 eV,   31.7789 Ry                                                             
                                                                                                    
   TITEL  = PAW_PBE O 08Apr2002                                                                     
   LULTRA =        F    use ultrasoft PP ?                                                          
   IUNSCR =        1    unscreen: 0-lin 1-nonlin 2-no                                               
   RPACOR =    1.200    partial core radius                                                         
   POMASS =   16.000; ZVAL   =    6.000    mass and valenz                                          
   RCORE  =    1.520    outmost cutoff radius                                                       
   RWIGS  =    1.550; RWIGS  =    0.820    wigner-seitz radius (au A)                               
   ENMAX  =  400.000; ENMIN  =  300.000 eV                                                          
   ICORE  =        2    local potential                                                             
   LCOR   =        T    correct aug charges                                                         
   LPAW   =        T    paw PP                                                                      
   EAUG   =  605.392                                                                                
   DEXC   =    0.000                                                                                
   RMAX   =    1.553    core radius for proj-oper                                                   
   RAUG   =    1.300    factor for augmentation sphere                                              
   RDEP   =    1.550    radius for radial grids                                                     
   RDEPT  =    1.329    core radius for aug-charge                                                  
                                                                                                    
   Atomic configuration                                                                             
    4 entries                                                                                       
     n  l   j            E        occ.                                                              
     1  0  0.50      -514.6923   2.0000                                                             
     2  0  0.50       -23.9615   2.0000                                                             
     2  1  0.50        -9.0305   4.0000                                                             
     3  2  1.50        -9.5241   0.0000                                                             
   Description                                                                                      
     l       E           TYP  RCUT    TYP  RCUT                                                     
     0    -23.9615318     23  1.200                                                                 
     0     -9.5240782     23  1.200                                                                 
     1     -9.0304911     23  1.520                                                                 
     1      8.1634956     23  1.520                                                                 
     2     -9.5240782      7  1.500                                                                 
  local pseudopotential read in
  partial core-charges read in
  partial kinetic energy density read in
  kinetic energy density of atom read in
  atomic valenz-charges read in
  non local Contribution for L=           0  read in
    real space projection operators read in
  non local Contribution for L=           0  read in
    real space projection operators read in
  non local Contribution for L=           1  read in
    real space projection operators read in
  non local Contribution for L=           1  read in
    real space projection operators read in
    PAW grid and wavefunctions read in
 
   number of l-projection  operators is LMAX  =           4
   number of lm-projection operators is LMMAX =           8
 
  PAW_PBE Ir 06Sep2000                  :
 energy of atom  1       EATOM= -560.1833
 kinetic energy error for atom=    0.0018 (will be added to EATOM!!)
  PAW_PBE O 08Apr2002                   :
 energy of atom  2       EATOM= -432.3788
 kinetic energy error for atom=    0.0224 (will be added to EATOM!!)
 
 
 POSCAR: Ir2 O4
  positions in direct lattice
  No initial velocities read in
 exchange correlation table for  LEXCH =        8
   RHO(1)=    0.500       N(1)  =     2000
   RHO(2)=  100.500       N(2)  =     4000
 


--------------------------------------------------------------------------------------------------------


 ion  position               nearest neighbor table
   1  0.500  0.500  0.000-   4 1.98   6 1.98   3 2.02   5 2.02   3 2.02   5 2.02
   2  0.000  0.000  0.000-   3 1.98   5 1.98   4 2.02   6 2.02   6 2.02   4 2.02
   3  0.692  0.308  0.692-   2 1.98   1 2.02   1 2.02
   4  0.192  0.192  0.308-   1 1.98   2 2.02   2 2.02
   5  0.308  0.692  0.308-   2 1.98   1 2.02   1 2.02
   6  0.808  0.808  0.692-   1 1.98   2 2.02   2 2.02
 

IMPORTANT INFORMATION: All symmetrisations will be switched off!
NOSYMM: (Re-)initialisation of all symmetry stuff for point group C_1.


----------------------------------------------------------------------------------------

                                     Primitive cell                                     

  volume of cell :      65.8840

  direct lattice vectors                    reciprocal lattice vectors
     0.000000000  4.544939000  0.000000000     0.000000000  0.220024955  0.000000000
    -4.544939000  0.000000000  3.189507000    -0.220024955  0.000000000  0.000000000
     0.000000000  0.000000000  3.189507000     0.220024955  0.000000000  0.313528078

  length of vectors
     4.544939000  5.552425183  3.189507000     0.220024955  0.220024955  0.383028506

  position of ions in fractional coordinates (direct lattice)
     0.500000000  0.500000000  0.000000000
     0.000000000  0.000000000  0.000000000
     0.691646000  0.308354000  0.691646000
     0.191646000  0.191646000  0.308354000
     0.308354000  0.691646000  0.308354000
     0.808354000  0.808354000  0.691646000

  ion indices of the primitive-cell ions
   primitive index   ion index
                 1           1
                 2           2
                 3           3
                 4           4
                 5           5
                 6           6

----------------------------------------------------------------------------------------

 
 
 KPOINTS: Automatic kpoint scheme                 

Automatic generation of k-mesh.
 Grid dimensions read from file:
 generate k-points for:   12   10   16

 Generating k-lattice:

  Cartesian coordinates                     Fractional coordinates (reciprocal lattice)
     0.000000000  0.018335413  0.000000000     0.083333333  0.000000000  0.000000000
    -0.022002496  0.000000000  0.000000000     0.000000000  0.100000000  0.000000000
     0.013751560  0.000000000  0.019595505     0.000000000  0.000000000  0.062500000

  Length of vectors
     0.018335413  0.022002496  0.023939282

  Shift w.r.t. Gamma in fractional coordinates (k-lattice)
     0.000000000  0.000000000  0.000000000

 -----------------------------------------------------------------------------
|                                                                             |
|           W    W    AA    RRRRR   N    N  II  N    N   GGGG   !!!           |
|           W    W   A  A   R    R  NN   N  II  NN   N  G    G  !!!           |
|           W    W  A    A  R    R  N N  N  II  N N  N  G       !!!           |
|           W WW W  AAAAAA  RRRRR   N  N N  II  N  N N  G  GGG   !            |
|           WW  WW  A    A  R   R   N   NN  II  N   NN  G    G                |
|           W    W  A    A  R    R  N    N  II  N    N   GGGG   !!!           |
|                                                                             |
|     Your reciprocal lattice and k-lattice belong to different lattice       |
|     classes:                                                                |
|                                                                             |
|        The reciprocal lattice is simple tetragonal,                         |
|        whereas your k-lattice is simple monoclinic.                         |
|                                                                             |
|     Results are often still useful ...                                      |
|                                                                             |
 -----------------------------------------------------------------------------

 WARNING: IBZKPT: internal override: KBLOWUP is changed to .FALSE.
      ... skipping the blow-up phase ...

 
 Subroutine IBZKPT returns following result:
 ===========================================
 
 Found    964 irreducible k-points:
 
 Following reciprocal coordinates:
            Coordinates               Weight
  0.000000  0.000000  0.000000      1.000000
  0.083333  0.000000  0.000000      2.000000
  0.166667  0.000000  0.000000      2.000000
  0.250000  0.000000  0.000000      2.000000
  0.333333  0.000000  0.000000      2.000000
  0.416667  0.000000  0.000000      2.000000
  0.500000  0.000000  0.000000      1.000000
  0.000000  0.100000  0.000000      2.000000
  0.083333  0.100000  0.000000      2.000000
  0.166667  0.100000  0.000000      2.000000
  0.250000  0.100000  0.000000      2.000000
  0.333333  0.100000  0.000000      2.000000
  0.416667  0.100000  0.000000      2.000000
  0.500000  0.100000  0.000000      2.000000
 -0.416667  0.100000  0.000000      2.000000
 -0.333333  0.100000  0.000000      2.000000
 -0.250000  0.100000  0.000000      2.000000
 -0.166667  0.100000  0.000000      2.000000
 -0.083333  0.100000  0.000000      2.000000
  0.000000  0.200000  0.000000      2.000000
  0.083333  0.200000  0.000000      2.000000
  0.166667  0.200000  0.000000      2.000000
  0.250000  0.200000  0.000000      2.000000
  0.333333  0.200000  0.000000      2.000000
  0.416667  0.200000  0.000000      2.000000
  0.500000  0.200000  0.000000      2.000000
 -0.416667  0.200000  0.000000      2.000000
 -0.333333  0.200000  0.000000      2.000000
 -0.250000  0.200000  0.000000      2.000000
 -0.166667  0.200000  0.000000      2.000000
 -0.083333  0.200000  0.000000      2.000000
  0.000000  0.300000  0.000000      2.000000
  0.083333  0.300000  0.000000      2.000000
  0.166667  0.300000  0.000000      2.000000
  0.250000  0.300000  0.000000      2.000000
  0.333333  0.300000  0.000000      2.000000
  0.416667  0.300000  0.000000      2.000000
  0.500000  0.300000  0.000000      2.000000
 -0.416667  0.300000  0.000000      2.000000
 -0.333333  0.300000  0.000000      2.000000
 -0.250000  0.300000  0.000000      2.000000
 -0.166667  0.300000  0.000000      2.000000
 -0.083333  0.300000  0.000000      2.000000
  0.000000  0.400000  0.000000      2.000000
  0.083333  0.400000  0.000000      2.000000
  0.166667  0.400000  0.000000      2.000000
  0.250000  0.400000  0.000000      2.000000
  0.333333  0.400000  0.000000      2.000000
  0.416667  0.400000  0.000000      2.000000
  0.500000  0.400000  0.000000      2.000000
 -0.416667  0.400000  0.000000      2.000000
 -0.333333  0.400000  0.000000      2.000000
 -0.250000  0.400000  0.000000      2.000000
 -0.166667  0.400000  0.000000      2.000000
 -0.083333  0.400000  0.000000      2.000000
  0.000000  0.500000  0.000000      1.000000
  0.083333  0.500000  0.000000      2.000000
  0.166667  0.500000  0.000000      2.000000
  0.250000  0.500000  0.000000      2.000000
  0.333333  0.500000  0.000000      2.000000
  0.416667  0.500000  0.000000      2.000000
  0.500000  0.500000  0.000000      1.000000
  0.000000  0.000000  0.062500      2.000000
  0.083333  0.000000  0.062500      2.000000
  0.166667  0.000000  0.062500      2.000000
  0.250000  0.000000  0.062500      2.000000
  0.333333  0.000000  0.062500      2.000000
  0.416667  0.000000  0.062500      2.000000
  0.500000  0.000000  0.062500      2.000000
 -0.416667  0.000000  0.062500      2.000000
 -0.333333  0.000000  0.062500      2.000000
 -0.250000  0.000000  0.062500      2.000000
 -0.166667  0.000000  0.062500      2.000000
 -0.083333  0.000000  0.062500      2.000000
  0.000000  0.100000  0.062500      2.000000
  0.083333  0.100000  0.062500      2.000000
  0.166667  0.100000  0.062500      2.000000
  0.250000  0.100000  0.062500      2.000000
  0.333333  0.100000  0.062500      2.000000
  0.416667  0.100000  0.062500      2.000000
  0.500000  0.100000  0.062500      2.000000
 -0.416667  0.100000  0.062500      2.000000
 -0.333333  0.100000  0.062500      2.000000
 -0.250000  0.100000  0.062500      2.000000
 -0.166667  0.100000  0.062500      2.000000
 -0.083333  0.100000  0.062500      2.000000
  0.000000  0.200000  0.062500      2.000000
  0.083333  0.200000  0.062500      2.000000
  0.166667  0.200000  0.062500      2.000000
  0.250000  0.200000  0.062500      2.000000
  0.333333  0.200000  0.062500      2.000000
  0.416667  0.200000  0.062500      2.000000
  0.500000  0.200000  0.062500      2.000000
 -0.416667  0.200000  0.062500      2.000000
 -0.333333  0.200000  0.062500      2.000000
 -0.250000  0.200000  0.062500      2.000000
 -0.166667  0.200000  0.062500      2.000000
 -0.083333  0.200000  0.062500      2.000000
  0.000000  0.300000  0.062500      2.000000
  0.083333  0.300000  0.062500      2.000000
  0.166667  0.300000  0.062500      2.000000
  0.250000  0.300000  0.062500      2.000000
  0.333333  0.300000  0.062500      2.000000
  0.416667  0.300000  0.062500      2.000000
  0.500000  0.300000  0.062500      2.000000
 -0.416667  0.300000  0.062500      2.000000
 -0.333333  0.300000  0.062500      2.000000
 -0.250000  0.300000  0.062500      2.000000
 -0.166667  0.300000  0.062500      2.000000
 -0.083333  0.300000  0.062500      2.000000
  0.000000  0.400000  0.062500      2.000000
  0.083333  0.400000  0.062500      2.000000
  0.166667  0.400000  0.062500      2.000000
  0.250000  0.400000  0.062500      2.000000
  0.333333  0.400000  0.062500      2.000000
  0.416667  0.400000  0.062500      2.000000
  0.500000  0.400000  0.062500      2.000000
 -0.416667  0.400000  0.062500      2.000000
 -0.333333  0.400000  0.062500      2.000000
 -0.250000  0.400000  0.062500      2.000000
 -0.166667  0.400000  0.062500      2.000000
 -0.083333  0.400000  0.062500      2.000000
  0.000000  0.500000  0.062500      2.000000
  0.083333  0.500000  0.062500      2.000000
  0.166667  0.500000  0.062500      2.000000
  0.250000  0.500000  0.062500      2.000000
  0.333333  0.500000  0.062500      2.000000
  0.416667  0.500000  0.062500      2.000000
  0.500000  0.500000  0.062500      2.000000
 -0.416667  0.500000  0.062500      2.000000
 -0.333333  0.500000  0.062500      2.000000
 -0.250000  0.500000  0.062500      2.000000
 -0.166667  0.500000  0.062500      2.000000
 -0.083333  0.500000  0.062500      2.000000
  0.000000 -0.400000  0.062500      2.000000
  0.083333 -0.400000  0.062500      2.000000
  0.166667 -0.400000  0.062500      2.000000
  0.250000 -0.400000  0.062500      2.000000
  0.333333 -0.400000  0.062500      2.000000
  0.416667 -0.400000  0.062500      2.000000
  0.500000 -0.400000  0.062500      2.000000
 -0.416667 -0.400000  0.062500      2.000000
 -0.333333 -0.400000  0.062500      2.000000
 -0.250000 -0.400000  0.062500      2.000000
 -0.166667 -0.400000  0.062500      2.000000
 -0.083333 -0.400000  0.062500      2.000000
  0.000000 -0.300000  0.062500      2.000000
  0.083333 -0.300000  0.062500      2.000000
  0.166667 -0.300000  0.062500      2.000000
  0.250000 -0.300000  0.062500      2.000000
  0.333333 -0.300000  0.062500      2.000000
  0.416667 -0.300000  0.062500      2.000000
  0.500000 -0.300000  0.062500      2.000000
 -0.416667 -0.300000  0.062500      2.000000
 -0.333333 -0.300000  0.062500      2.000000
 -0.250000 -0.300000  0.062500      2.000000
 -0.166667 -0.300000  0.062500      2.000000
 -0.083333 -0.300000  0.062500      2.000000
  0.000000 -0.200000  0.062500      2.000000
  0.083333 -0.200000  0.062500      2.000000
  0.166667 -0.200000  0.062500      2.000000
  0.250000 -0.200000  0.062500      2.000000
  0.333333 -0.200000  0.062500      2.000000
  0.416667 -0.200000  0.062500      2.000000
  0.500000 -0.200000  0.062500      2.000000
 -0.416667 -0.200000  0.062500      2.000000
 -0.333333 -0.200000  0.062500      2.000000
 -0.250000 -0.200000  0.062500      2.000000
 -0.166667 -0.200000  0.062500      2.000000
 -0.083333 -0.200000  0.062500      2.000000
  0.000000 -0.100000  0.062500      2.000000
  0.083333 -0.100000  0.062500      2.000000
  0.166667 -0.100000  0.062500      2.000000
  0.250000 -0.100000  0.062500      2.000000
  0.333333 -0.100000  0.062500      2.000000
  0.416667 -0.100000  0.062500      2.000000
  0.500000 -0.100000  0.062500      2.000000
 -0.416667 -0.100000  0.062500      2.000000
 -0.333333 -0.100000  0.062500      2.000000
 -0.250000 -0.100000  0.062500      2.000000
 -0.166667 -0.100000  0.062500      2.000000
 -0.083333 -0.100000  0.062500      2.000000
  0.000000  0.000000  0.125000      2.000000
  0.083333  0.000000  0.125000      2.000000
  0.166667  0.000000  0.125000      2.000000
  0.250000  0.000000  0.125000      2.000000
  0.333333  0.000000  0.125000      2.000000
  0.416667  0.000000  0.125000      2.000000
  0.500000  0.000000  0.125000      2.000000
 -0.416667  0.000000  0.125000      2.000000
 -0.333333  0.000000  0.125000      2.000000
 -0.250000  0.000000  0.125000      2.000000
 -0.166667  0.000000  0.125000      2.000000
 -0.083333  0.000000  0.125000      2.000000
  0.000000  0.100000  0.125000      2.000000
  0.083333  0.100000  0.125000      2.000000
  0.166667  0.100000  0.125000      2.000000
  0.250000  0.100000  0.125000      2.000000
  0.333333  0.100000  0.125000      2.000000
  0.416667  0.100000  0.125000      2.000000
  0.500000  0.100000  0.125000      2.000000
 -0.416667  0.100000  0.125000      2.000000
 -0.333333  0.100000  0.125000      2.000000
 -0.250000  0.100000  0.125000      2.000000
 -0.166667  0.100000  0.125000      2.000000
 -0.083333  0.100000  0.125000      2.000000
  0.000000  0.200000  0.125000      2.000000
  0.083333  0.200000  0.125000      2.000000
  0.166667  0.200000  0.125000      2.000000
  0.250000  0.200000  0.125000      2.000000
  0.333333  0.200000  0.125000      2.000000
  0.416667  0.200000  0.125000      2.000000
  0.500000  0.200000  0.125000      2.000000
 -0.416667  0.200000  0.125000      2.000000
 -0.333333  0.200000  0.125000      2.000000
 -0.250000  0.200000  0.125000      2.000000
 -0.166667  0.200000  0.125000      2.000000
 -0.083333  0.200000  0.125000      2.000000
  0.000000  0.300000  0.125000      2.000000
  0.083333  0.300000  0.125000      2.000000
  0.166667  0.300000  0.125000      2.000000
  0.250000  0.300000  0.125000      2.000000
  0.333333  0.300000  0.125000      2.000000
  0.416667  0.300000  0.125000      2.000000
  0.500000  0.300000  0.125000      2.000000
 -0.416667  0.300000  0.125000      2.000000
 -0.333333  0.300000  0.125000      2.000000
 -0.250000  0.300000  0.125000      2.000000
 -0.166667  0.300000  0.125000      2.000000
 -0.083333  0.300000  0.125000      2.000000
  0.000000  0.400000  0.125000      2.000000
  0.083333  0.400000  0.125000      2.000000
  0.166667  0.400000  0.125000      2.000000
  0.250000  0.400000  0.125000      2.000000
  0.333333  0.400000  0.125000      2.000000
  0.416667  0.400000  0.125000      2.000000
  0.500000  0.400000  0.125000      2.000000
 -0.416667  0.400000  0.125000      2.000000
 -0.333333  0.400000  0.125000      2.000000
 -0.250000  0.400000  0.125000      2.000000
 -0.166667  0.400000  0.125000      2.000000
 -0.083333  0.400000  0.125000      2.000000
  0.000000  0.500000  0.125000      2.000000
  0.083333  0.500000  0.125000      2.000000
  0.166667  0.500000  0.125000      2.000000
  0.250000  0.500000  0.125000      2.000000
  0.333333  0.500000  0.125000      2.000000
  0.416667  0.500000  0.125000      2.000000
  0.500000  0.500000  0.125000      2.000000
 -0.416667  0.500000  0.125000      2.000000
 -0.333333  0.500000  0.125000      2.000000
 -0.250000  0.500000  0.125000      2.000000
 -0.166667  0.500000  0.125000      2.000000
 -0.083333  0.500000  0.125000      2.000000
  0.000000 -0.400000  0.125000      2.000000
  0.083333 -0.400000  0.125000      2.000000
  0.166667 -0.400000  0.125000      2.000000
  0.250000 -0.400000  0.125000      2.000000
  0.333333 -0.400000  0.125000      2.000000
  0.416667 -0.400000  0.125000      2.000000
  0.500000 -0.400000  0.125000      2.000000
 -0.416667 -0.400000  0.125000      2.000000
 -0.333333 -0.400000  0.125000      2.000000
 -0.250000 -0.400000  0.125000      2.000000
 -0.166667 -0.400000  0.125000      2.000000
 -0.083333 -0.400000  0.125000      2.000000
  0.000000 -0.300000  0.125000      2.000000
  0.083333 -0.300000  0.125000      2.000000
  0.166667 -0.300000  0.125000      2.000000
  0.250000 -0.300000  0.125000      2.000000
  0.333333 -0.300000  0.125000      2.000000
  0.416667 -0.300000  0.125000      2.000000
  0.500000 -0.300000  0.125000      2.000000
 -0.416667 -0.300000  0.125000      2.000000
 -0.333333 -0.300000  0.125000      2.000000
 -0.250000 -0.300000  0.125000      2.000000
 -0.166667 -0.300000  0.125000      2.000000
 -0.083333 -0.300000  0.125000      2.000000
  0.000000 -0.200000  0.125000      2.000000
  0.083333 -0.200000  0.125000      2.000000
  0.166667 -0.200000  0.125000      2.000000
  0.250000 -0.200000  0.125000      2.000000
  0.333333 -0.200000  0.125000      2.000000
  0.416667 -0.200000  0.125000      2.000000
  0.500000 -0.200000  0.125000      2.000000
 -0.416667 -0.200000  0.125000      2.000000
 -0.333333 -0.200000  0.125000      2.000000
 -0.250000 -0.200000  0.125000      2.000000
 -0.166667 -0.200000  0.125000      2.000000
 -0.083333 -0.200000  0.125000      2.000000
  0.000000 -0.100000  0.125000      2.000000
  0.083333 -0.100000  0.125000      2.000000
  0.166667 -0.100000  0.125000      2.000000
  0.250000 -0.100000  0.125000      2.000000
  0.333333 -0.100000  0.125000      2.000000
  0.416667 -0.100000  0.125000      2.000000
  0.500000 -0.100000  0.125000      2.000000
 -0.416667 -0.100000  0.125000      2.000000
 -0.333333 -0.100000  0.125000      2.000000
 -0.250000 -0.100000  0.125000      2.000000
 -0.166667 -0.100000  0.125000      2.000000
 -0.083333 -0.100000  0.125000      2.000000
  0.000000  0.000000  0.187500      2.000000
  0.083333  0.000000  0.187500      2.000000
  0.166667  0.000000  0.187500      2.000000
  0.250000  0.000000  0.187500      2.000000
  0.333333  0.000000  0.187500      2.000000
  0.416667  0.000000  0.187500      2.000000
  0.500000  0.000000  0.187500      2.000000
 -0.416667  0.000000  0.187500      2.000000
 -0.333333  0.000000  0.187500      2.000000
 -0.250000  0.000000  0.187500      2.000000
 -0.166667  0.000000  0.187500      2.000000
 -0.083333  0.000000  0.187500      2.000000
  0.000000  0.100000  0.187500      2.000000
  0.083333  0.100000  0.187500      2.000000
  0.166667  0.100000  0.187500      2.000000
  0.250000  0.100000  0.187500      2.000000
  0.333333  0.100000  0.187500      2.000000
  0.416667  0.100000  0.187500      2.000000
  0.500000  0.100000  0.187500      2.000000
 -0.416667  0.100000  0.187500      2.000000
 -0.333333  0.100000  0.187500      2.000000
 -0.250000  0.100000  0.187500      2.000000
 -0.166667  0.100000  0.187500      2.000000
 -0.083333  0.100000  0.187500      2.000000
  0.000000  0.200000  0.187500      2.000000
  0.083333  0.200000  0.187500      2.000000
  0.166667  0.200000  0.187500      2.000000
  0.250000  0.200000  0.187500      2.000000
  0.333333  0.200000  0.187500      2.000000
  0.416667  0.200000  0.187500      2.000000
  0.500000  0.200000  0.187500      2.000000
 -0.416667  0.200000  0.187500      2.000000
 -0.333333  0.200000  0.187500      2.000000
 -0.250000  0.200000  0.187500      2.000000
 -0.166667  0.200000  0.187500      2.000000
 -0.083333  0.200000  0.187500      2.000000
  0.000000  0.300000  0.187500      2.000000
  0.083333  0.300000  0.187500      2.000000
  0.166667  0.300000  0.187500      2.000000
  0.250000  0.300000  0.187500      2.000000
  0.333333  0.300000  0.187500      2.000000
  0.416667  0.300000  0.187500      2.000000
  0.500000  0.300000  0.187500      2.000000
 -0.416667  0.300000  0.187500      2.000000
 -0.333333  0.300000  0.187500      2.000000
 -0.250000  0.300000  0.187500      2.000000
 -0.166667  0.300000  0.187500      2.000000
 -0.083333  0.300000  0.187500      2.000000
  0.000000  0.400000  0.187500      2.000000
  0.083333  0.400000  0.187500      2.000000
  0.166667  0.400000  0.187500      2.000000
  0.250000  0.400000  0.187500      2.000000
  0.333333  0.400000  0.187500      2.000000
  0.416667  0.400000  0.187500      2.000000
  0.500000  0.400000  0.187500      2.000000
 -0.416667  0.400000  0.187500      2.000000
 -0.333333  0.400000  0.187500      2.000000
 -0.250000  0.400000  0.187500      2.000000
 -0.166667  0.400000  0.187500      2.000000
 -0.083333  0.400000  0.187500      2.000000
  0.000000  0.500000  0.187500      2.000000
  0.083333  0.500000  0.187500      2.000000
  0.166667  0.500000  0.187500      2.000000
  0.250000  0.500000  0.187500      2.000000
  0.333333  0.500000  0.187500      2.000000
  0.416667  0.500000  0.187500      2.000000
  0.500000  0.500000  0.187500      2.000000
 -0.416667  0.500000  0.187500      2.000000
 -0.333333  0.500000  0.187500      2.000000
 -0.250000  0.500000  0.187500      2.000000
 -0.166667  0.500000  0.187500      2.000000
 -0.083333  0.500000  0.187500      2.000000
  0.000000 -0.400000  0.187500      2.000000
  0.083333 -0.400000  0.187500      2.000000
  0.166667 -0.400000  0.187500      2.000000
  0.250000 -0.400000  0.187500      2.000000
  0.333333 -0.400000  0.187500      2.000000
  0.416667 -0.400000  0.187500      2.000000
  0.500000 -0.400000  0.187500      2.000000
 -0.416667 -0.400000  0.187500      2.000000
 -0.333333 -0.400000  0.187500      2.000000
 -0.250000 -0.400000  0.187500      2.000000
 -0.166667 -0.400000  0.187500      2.000000
 -0.083333 -0.400000  0.187500      2.000000
  0.000000 -0.300000  0.187500      2.000000
  0.083333 -0.300000  0.187500      2.000000
  0.166667 -0.300000  0.187500      2.000000
  0.250000 -0.300000  0.187500      2.000000
  0.333333 -0.300000  0.187500      2.000000
  0.416667 -0.300000  0.187500      2.000000
  0.500000 -0.300000  0.187500      2.000000
 -0.416667 -0.300000  0.187500      2.000000
 -0.333333 -0.300000  0.187500      2.000000
 -0.250000 -0.300000  0.187500      2.000000
 -0.166667 -0.300000  0.187500      2.000000
 -0.083333 -0.300000  0.187500      2.000000
  0.000000 -0.200000  0.187500      2.000000
  0.083333 -0.200000  0.187500      2.000000
  0.166667 -0.200000  0.187500      2.000000
  0.250000 -0.200000  0.187500      2.000000
  0.333333 -0.200000  0.187500      2.000000
  0.416667 -0.200000  0.187500      2.000000
  0.500000 -0.200000  0.187500      2.000000
 -0.416667 -0.200000  0.187500      2.000000
 -0.333333 -0.200000  0.187500      2.000000
 -0.250000 -0.200000  0.187500      2.000000
 -0.166667 -0.200000  0.187500      2.000000
 -0.083333 -0.200000  0.187500      2.000000
  0.000000 -0.100000  0.187500      2.000000
  0.083333 -0.100000  0.187500      2.000000
  0.166667 -0.100000  0.187500      2.000000
  0.250000 -0.100000  0.187500      2.000000
  0.333333 -0.100000  0.187500      2.000000
  0.416667 -0.100000  0.187500      2.000000
  0.500000 -0.100000  0.187500      2.000000
 -0.416667 -0.100000  0.187500      2.000000
 -0.333333 -0.100000  0.187500      2.000000
 -0.250000 -0.100000  0.187500      2.000000
 -0.166667 -0.100000  0.187500      2.000000
 -0.083333 -0.100000  0.187500      2.000000
  0.000000  0.000000  0.250000      2.000000
  0.083333  0.000000  0.250000      2.000000
  0.166667  0.000000  0.250000      2.000000
  0.250000  0.000000  0.250000      2.000000
  0.333333  0.000000  0.250000      2.000000
  0.416667  0.000000  0.250000      2.000000
  0.500000  0.000000  0.250000      2.000000
 -0.416667  0.000000  0.250000      2.000000
 -0.333333  0.000000  0.250000      2.000000
 -0.250000  0.000000  0.250000      2.000000
 -0.166667  0.000000  0.250000      2.000000
 -0.083333  0.000000  0.250000      2.000000
  0.000000  0.100000  0.250000      2.000000
  0.083333  0.100000  0.250000      2.000000
  0.166667  0.100000  0.250000      2.000000
  0.250000  0.100000  0.250000      2.000000
  0.333333  0.100000  0.250000      2.000000
  0.416667  0.100000  0.250000      2.000000
  0.500000  0.100000  0.250000      2.000000
 -0.416667  0.100000  0.250000      2.000000
 -0.333333  0.100000  0.250000      2.000000
 -0.250000  0.100000  0.250000      2.000000
 -0.166667  0.100000  0.250000      2.000000
 -0.083333  0.100000  0.250000      2.000000
  0.000000  0.200000  0.250000      2.000000
  0.083333  0.200000  0.250000      2.000000
  0.166667  0.200000  0.250000      2.000000
  0.250000  0.200000  0.250000      2.000000
  0.333333  0.200000  0.250000      2.000000
  0.416667  0.200000  0.250000      2.000000
  0.500000  0.200000  0.250000      2.000000
 -0.416667  0.200000  0.250000      2.000000
 -0.333333  0.200000  0.250000      2.000000
 -0.250000  0.200000  0.250000      2.000000
 -0.166667  0.200000  0.250000      2.000000
 -0.083333  0.200000  0.250000      2.000000
  0.000000  0.300000  0.250000      2.000000
  0.083333  0.300000  0.250000      2.000000
  0.166667  0.300000  0.250000      2.000000
  0.250000  0.300000  0.250000      2.000000
  0.333333  0.300000  0.250000      2.000000
  0.416667  0.300000  0.250000      2.000000
  0.500000  0.300000  0.250000      2.000000
 -0.416667  0.300000  0.250000      2.000000
 -0.333333  0.300000  0.250000      2.000000
 -0.250000  0.300000  0.250000      2.000000
 -0.166667  0.300000  0.250000      2.000000
 -0.083333  0.300000  0.250000      2.000000
  0.000000  0.400000  0.250000      2.000000
  0.083333  0.400000  0.250000      2.000000
  0.166667  0.400000  0.250000      2.000000
  0.250000  0.400000  0.250000      2.000000
  0.333333  0.400000  0.250000      2.000000
  0.416667  0.400000  0.250000      2.000000
  0.500000  0.400000  0.250000      2.000000
 -0.416667  0.400000  0.250000      2.000000
 -0.333333  0.400000  0.250000      2.000000
 -0.250000  0.400000  0.250000      2.000000
 -0.166667  0.400000  0.250000      2.000000
 -0.083333  0.400000  0.250000      2.000000
  0.000000  0.500000  0.250000      2.000000
  0.083333  0.500000  0.250000      2.000000
  0.166667  0.500000  0.250000      2.000000
  0.250000  0.500000  0.250000      2.000000
  0.333333  0.500000  0.250000      2.000000
  0.416667  0.500000  0.250000      2.000000
  0.500000  0.500000  0.250000      2.000000
 -0.416667  0.500000  0.250000      2.000000
 -0.333333  0.500000  0.250000      2.000000
 -0.250000  0.500000  0.250000      2.000000
 -0.166667  0.500000  0.250000      2.000000
 -0.083333  0.500000  0.250000      2.000000
  0.000000 -0.400000  0.250000      2.000000
  0.083333 -0.400000  0.250000      2.000000
  0.166667 -0.400000  0.250000      2.000000
  0.250000 -0.400000  0.250000      2.000000
  0.333333 -0.400000  0.250000      2.000000
  0.416667 -0.400000  0.250000      2.000000
  0.500000 -0.400000  0.250000      2.000000
 -0.416667 -0.400000  0.250000      2.000000
 -0.333333 -0.400000  0.250000      2.000000
 -0.250000 -0.400000  0.250000      2.000000
 -0.166667 -0.400000  0.250000      2.000000
 -0.083333 -0.400000  0.250000      2.000000
  0.000000 -0.300000  0.250000      2.000000
  0.083333 -0.300000  0.250000      2.000000
  0.166667 -0.300000  0.250000      2.000000
  0.250000 -0.300000  0.250000      2.000000
  0.333333 -0.300000  0.250000      2.000000
  0.416667 -0.300000  0.250000      2.000000
  0.500000 -0.300000  0.250000      2.000000
 -0.416667 -0.300000  0.250000      2.000000
 -0.333333 -0.300000  0.250000      2.000000
 -0.250000 -0.300000  0.250000      2.000000
 -0.166667 -0.300000  0.250000      2.000000
 -0.083333 -0.300000  0.250000      2.000000
  0.000000 -0.200000  0.250000      2.000000
  0.083333 -0.200000  0.250000      2.000000
  0.166667 -0.200000  0.250000      2.000000
  0.250000 -0.200000  0.250000      2.000000
  0.333333 -0.200000  0.250000      2.000000
  0.416667 -0.200000  0.250000      2.000000
  0.500000 -0.200000  0.250000      2.000000
 -0.416667 -0.200000  0.250000      2.000000
 -0.333333 -0.200000  0.250000      2.000000
 -0.250000 -0.200000  0.250000      2.000000
 -0.166667 -0.200000  0.250000      2.000000
 -0.083333 -0.200000  0.250000      2.000000
  0.000000 -0.100000  0.250000      2.000000
  0.083333 -0.100000  0.250000      2.000000
  0.166667 -0.100000  0.250000      2.000000
  0.250000 -0.100000  0.250000      2.000000
  0.333333 -0.100000  0.250000      2.000000
  0.416667 -0.100000  0.250000      2.000000
  0.500000 -0.100000  0.250000      2.000000
 -0.416667 -0.100000  0.250000      2.000000
 -0.333333 -0.100000  0.250000      2.000000
 -0.250000 -0.100000  0.250000      2.000000
 -0.166667 -0.100000  0.250000      2.000000
 -0.083333 -0.100000  0.250000      2.000000
  0.000000  0.000000  0.312500      2.000000
  0.083333  0.000000  0.312500      2.000000
  0.166667  0.000000  0.312500      2.000000
  0.250000  0.000000  0.312500      2.000000
  0.333333  0.000000  0.312500      2.000000
  0.416667  0.000000  0.312500      2.000000
  0.500000  0.000000  0.312500      2.000000
 -0.416667  0.000000  0.312500      2.000000
 -0.333333  0.000000  0.312500      2.000000
 -0.250000  0.000000  0.312500      2.000000
 -0.166667  0.000000  0.312500      2.000000
 -0.083333  0.000000  0.312500      2.000000
  0.000000  0.100000  0.312500      2.000000
  0.083333  0.100000  0.312500      2.000000
  0.166667  0.100000  0.312500      2.000000
  0.250000  0.100000  0.312500      2.000000
  0.333333  0.100000  0.312500      2.000000
  0.416667  0.100000  0.312500      2.000000
  0.500000  0.100000  0.312500      2.000000
 -0.416667  0.100000  0.312500      2.000000
 -0.333333  0.100000  0.312500      2.000000
 -0.250000  0.100000  0.312500      2.000000
 -0.166667  0.100000  0.312500      2.000000
 -0.083333  0.100000  0.312500      2.000000
  0.000000  0.200000  0.312500      2.000000
  0.083333  0.200000  0.312500      2.000000
  0.166667  0.200000  0.312500      2.000000
  0.250000  0.200000  0.312500      2.000000
  0.333333  0.200000  0.312500      2.000000
  0.416667  0.200000  0.312500      2.000000
  0.500000  0.200000  0.312500      2.000000
 -0.416667  0.200000  0.312500      2.000000
 -0.333333  0.200000  0.312500      2.000000
 -0.250000  0.200000  0.312500      2.000000
 -0.166667  0.200000  0.312500      2.000000
 -0.083333  0.200000  0.312500      2.000000
  0.000000  0.300000  0.312500      2.000000
  0.083333  0.300000  0.312500      2.000000
  0.166667  0.300000  0.312500      2.000000
  0.250000  0.300000  0.312500      2.000000
  0.333333  0.300000  0.312500      2.000000
  0.416667  0.300000  0.312500      2.000000
  0.500000  0.300000  0.312500      2.000000
 -0.416667  0.300000  0.312500      2.000000
 -0.333333  0.300000  0.312500      2.000000
 -0.250000  0.300000  0.312500      2.000000
 -0.166667  0.300000  0.312500      2.000000
 -0.083333  0.300000  0.312500      2.000000
  0.000000  0.400000  0.312500      2.000000
  0.083333  0.400000  0.312500      2.000000
  0.166667  0.400000  0.312500      2.000000
  0.250000  0.400000  0.312500      2.000000
  0.333333  0.400000  0.312500      2.000000
  0.416667  0.400000  0.312500      2.000000
  0.500000  0.400000  0.312500      2.000000
 -0.416667  0.400000  0.312500      2.000000
 -0.333333  0.400000  0.312500      2.000000
 -0.250000  0.400000  0.312500      2.000000
 -0.166667  0.400000  0.312500      2.000000
 -0.083333  0.400000  0.312500      2.000000
  0.000000  0.500000  0.312500      2.000000
  0.083333  0.500000  0.312500      2.000000
  0.166667  0.500000  0.312500      2.000000
  0.250000  0.500000  0.312500      2.000000
  0.333333  0.500000  0.312500      2.000000
  0.416667  0.500000  0.312500      2.000000
  0.500000  0.500000  0.312500      2.000000
 -0.416667  0.500000  0.312500      2.000000
 -0.333333  0.500000  0.312500      2.000000
 -0.250000  0.500000  0.312500      2.000000
 -0.166667  0.500000  0.312500      2.000000
 -0.083333  0.500000  0.312500      2.000000
  0.000000 -0.400000  0.312500      2.000000
  0.083333 -0.400000  0.312500      2.000000
  0.166667 -0.400000  0.312500      2.000000
  0.250000 -0.400000  0.312500      2.000000
  0.333333 -0.400000  0.312500      2.000000
  0.416667 -0.400000  0.312500      2.000000
  0.500000 -0.400000  0.312500      2.000000
 -0.416667 -0.400000  0.312500      2.000000
 -0.333333 -0.400000  0.312500      2.000000
 -0.250000 -0.400000  0.312500      2.000000
 -0.166667 -0.400000  0.312500      2.000000
 -0.083333 -0.400000  0.312500      2.000000
  0.000000 -0.300000  0.312500      2.000000
  0.083333 -0.300000  0.312500      2.000000
  0.166667 -0.300000  0.312500      2.000000
  0.250000 -0.300000  0.312500      2.000000
  0.333333 -0.300000  0.312500      2.000000
  0.416667 -0.300000  0.312500      2.000000
  0.500000 -0.300000  0.312500      2.000000
 -0.416667 -0.300000  0.312500      2.000000
 -0.333333 -0.300000  0.312500      2.000000
 -0.250000 -0.300000  0.312500      2.000000
 -0.166667 -0.300000  0.312500      2.000000
 -0.083333 -0.300000  0.312500      2.000000
  0.000000 -0.200000  0.312500      2.000000
  0.083333 -0.200000  0.312500      2.000000
  0.166667 -0.200000  0.312500      2.000000
  0.250000 -0.200000  0.312500      2.000000
  0.333333 -0.200000  0.312500      2.000000
  0.416667 -0.200000  0.312500      2.000000
  0.500000 -0.200000  0.312500      2.000000
 -0.416667 -0.200000  0.312500      2.000000
 -0.333333 -0.200000  0.312500      2.000000
 -0.250000 -0.200000  0.312500      2.000000
 -0.166667 -0.200000  0.312500      2.000000
 -0.083333 -0.200000  0.312500      2.000000
  0.000000 -0.100000  0.312500      2.000000
  0.083333 -0.100000  0.312500      2.000000
  0.166667 -0.100000  0.312500      2.000000
  0.250000 -0.100000  0.312500      2.000000
  0.333333 -0.100000  0.312500      2.000000
  0.416667 -0.100000  0.312500      2.000000
  0.500000 -0.100000  0.312500      2.000000
 -0.416667 -0.100000  0.312500      2.000000
 -0.333333 -0.100000  0.312500      2.000000
 -0.250000 -0.100000  0.312500      2.000000
 -0.166667 -0.100000  0.312500      2.000000
 -0.083333 -0.100000  0.312500      2.000000
  0.000000  0.000000  0.375000      2.000000
  0.083333  0.000000  0.375000      2.000000
  0.166667  0.000000  0.375000      2.000000
  0.250000  0.000000  0.375000      2.000000
  0.333333  0.000000  0.375000      2.000000
  0.416667  0.000000  0.375000      2.000000
  0.500000  0.000000  0.375000      2.000000
 -0.416667  0.000000  0.375000      2.000000
 -0.333333  0.000000  0.375000      2.000000
 -0.250000  0.000000  0.375000      2.000000
 -0.166667  0.000000  0.375000      2.000000
 -0.083333  0.000000  0.375000      2.000000
  0.000000  0.100000  0.375000      2.000000
  0.083333  0.100000  0.375000      2.000000
  0.166667  0.100000  0.375000      2.000000
  0.250000  0.100000  0.375000      2.000000
  0.333333  0.100000  0.375000      2.000000
  0.416667  0.100000  0.375000      2.000000
  0.500000  0.100000  0.375000      2.000000
 -0.416667  0.100000  0.375000      2.000000
 -0.333333  0.100000  0.375000      2.000000
 -0.250000  0.100000  0.375000      2.000000
 -0.166667  0.100000  0.375000      2.000000
 -0.083333  0.100000  0.375000      2.000000
  0.000000  0.200000  0.375000      2.000000
  0.083333  0.200000  0.375000      2.000000
  0.166667  0.200000  0.375000      2.000000
  0.250000  0.200000  0.375000      2.000000
  0.333333  0.200000  0.375000      2.000000
  0.416667  0.200000  0.375000      2.000000
  0.500000  0.200000  0.375000      2.000000
 -0.416667  0.200000  0.375000      2.000000
 -0.333333  0.200000  0.375000      2.000000
 -0.250000  0.200000  0.375000      2.000000
 -0.166667  0.200000  0.375000      2.000000
 -0.083333  0.200000  0.375000      2.000000
  0.000000  0.300000  0.375000      2.000000
  0.083333  0.300000  0.375000      2.000000
  0.166667  0.300000  0.375000      2.000000
  0.250000  0.300000  0.375000      2.000000
  0.333333  0.300000  0.375000      2.000000
  0.416667  0.300000  0.375000      2.000000
  0.500000  0.300000  0.375000      2.000000
 -0.416667  0.300000  0.375000      2.000000
 -0.333333  0.300000  0.375000      2.000000
 -0.250000  0.300000  0.375000      2.000000
 -0.166667  0.300000  0.375000      2.000000
 -0.083333  0.300000  0.375000      2.000000
  0.000000  0.400000  0.375000      2.000000
  0.083333  0.400000  0.375000      2.000000
  0.166667  0.400000  0.375000      2.000000
  0.250000  0.400000  0.375000      2.000000
  0.333333  0.400000  0.375000      2.000000
  0.416667  0.400000  0.375000      2.000000
  0.500000  0.400000  0.375000      2.000000
 -0.416667  0.400000  0.375000      2.000000
 -0.333333  0.400000  0.375000      2.000000
 -0.250000  0.400000  0.375000      2.000000
 -0.166667  0.400000  0.375000      2.000000
 -0.083333  0.400000  0.375000      2.000000
  0.000000  0.500000  0.375000      2.000000
  0.083333  0.500000  0.375000      2.000000
  0.166667  0.500000  0.375000      2.000000
  0.250000  0.500000  0.375000      2.000000
  0.333333  0.500000  0.375000      2.000000
  0.416667  0.500000  0.375000      2.000000
  0.500000  0.500000  0.375000      2.000000
 -0.416667  0.500000  0.375000      2.000000
 -0.333333  0.500000  0.375000      2.000000
 -0.250000  0.500000  0.375000      2.000000
 -0.166667  0.500000  0.375000      2.000000
 -0.083333  0.500000  0.375000      2.000000
  0.000000 -0.400000  0.375000      2.000000
  0.083333 -0.400000  0.375000      2.000000
  0.166667 -0.400000  0.375000      2.000000
  0.250000 -0.400000  0.375000      2.000000
  0.333333 -0.400000  0.375000      2.000000
  0.416667 -0.400000  0.375000      2.000000
  0.500000 -0.400000  0.375000      2.000000
 -0.416667 -0.400000  0.375000      2.000000
 -0.333333 -0.400000  0.375000      2.000000
 -0.250000 -0.400000  0.375000      2.000000
 -0.166667 -0.400000  0.375000      2.000000
 -0.083333 -0.400000  0.375000      2.000000
  0.000000 -0.300000  0.375000      2.000000
  0.083333 -0.300000  0.375000      2.000000
  0.166667 -0.300000  0.375000      2.000000
  0.250000 -0.300000  0.375000      2.000000
  0.333333 -0.300000  0.375000      2.000000
  0.416667 -0.300000  0.375000      2.000000
  0.500000 -0.300000  0.375000      2.000000
 -0.416667 -0.300000  0.375000      2.000000
 -0.333333 -0.300000  0.375000      2.000000
 -0.250000 -0.300000  0.375000      2.000000
 -0.166667 -0.300000  0.375000      2.000000
 -0.083333 -0.300000  0.375000      2.000000
  0.000000 -0.200000  0.375000      2.000000
  0.083333 -0.200000  0.375000      2.000000
  0.166667 -0.200000  0.375000      2.000000
  0.250000 -0.200000  0.375000      2.000000
  0.333333 -0.200000  0.375000      2.000000
  0.416667 -0.200000  0.375000      2.000000
  0.500000 -0.200000  0.375000      2.000000
 -0.416667 -0.200000  0.375000      2.000000
 -0.333333 -0.200000  0.375000      2.000000
 -0.250000 -0.200000  0.375000      2.000000
 -0.166667 -0.200000  0.375000      2.000000
 -0.083333 -0.200000  0.375000      2.000000
  0.000000 -0.100000  0.375000      2.000000
  0.083333 -0.100000  0.375000      2.000000
  0.166667 -0.100000  0.375000      2.000000
  0.250000 -0.100000  0.375000      2.000000
  0.333333 -0.100000  0.375000      2.000000
  0.416667 -0.100000  0.375000      2.000000
  0.500000 -0.100000  0.375000      2.000000
 -0.416667 -0.100000  0.375000      2.000000
 -0.333333 -0.100000  0.375000      2.000000
 -0.250000 -0.100000  0.375000      2.000000
 -0.166667 -0.100000  0.375000      2.000000
 -0.083333 -0.100000  0.375000      2.000000
  0.000000 -0.000000  0.437500      2.000000
  0.083333 -0.000000  0.437500      2.000000
  0.166667 -0.000000  0.437500      2.000000
  0.250000 -0.000000  0.437500      2.000000
  0.333333 -0.000000  0.437500      2.000000
  0.416667 -0.000000  0.437500      2.000000
  0.500000 -0.000000  0.437500      2.000000
 -0.416667 -0.000000  0.437500      2.000000
 -0.333333 -0.000000  0.437500      2.000000
 -0.250000 -0.000000  0.437500      2.000000
 -0.166667 -0.000000  0.437500      2.000000
 -0.083333 -0.000000  0.437500      2.000000
  0.000000  0.100000  0.437500      2.000000
  0.083333  0.100000  0.437500      2.000000
  0.166667  0.100000  0.437500      2.000000
  0.250000  0.100000  0.437500      2.000000
  0.333333  0.100000  0.437500      2.000000
  0.416667  0.100000  0.437500      2.000000
  0.500000  0.100000  0.437500      2.000000
 -0.416667  0.100000  0.437500      2.000000
 -0.333333  0.100000  0.437500      2.000000
 -0.250000  0.100000  0.437500      2.000000
 -0.166667  0.100000  0.437500      2.000000
 -0.083333  0.100000  0.437500      2.000000
  0.000000  0.200000  0.437500      2.000000
  0.083333  0.200000  0.437500      2.000000
  0.166667  0.200000  0.437500      2.000000
  0.250000  0.200000  0.437500      2.000000
  0.333333  0.200000  0.437500      2.000000
  0.416667  0.200000  0.437500      2.000000
  0.500000  0.200000  0.437500      2.000000
 -0.416667  0.200000  0.437500      2.000000
 -0.333333  0.200000  0.437500      2.000000
 -0.250000  0.200000  0.437500      2.000000
 -0.166667  0.200000  0.437500      2.000000
 -0.083333  0.200000  0.437500      2.000000
  0.000000  0.300000  0.437500      2.000000
  0.083333  0.300000  0.437500      2.000000
  0.166667  0.300000  0.437500      2.000000
  0.250000  0.300000  0.437500      2.000000
  0.333333  0.300000  0.437500      2.000000
  0.416667  0.300000  0.437500      2.000000
  0.500000  0.300000  0.437500      2.000000
 -0.416667  0.300000  0.437500      2.000000
 -0.333333  0.300000  0.437500      2.000000
 -0.250000  0.300000  0.437500      2.000000
 -0.166667  0.300000  0.437500      2.000000
 -0.083333  0.300000  0.437500      2.000000
  0.000000  0.400000  0.437500      2.000000
  0.083333  0.400000  0.437500      2.000000
  0.166667  0.400000  0.437500      2.000000
  0.250000  0.400000  0.437500      2.000000
  0.333333  0.400000  0.437500      2.000000
  0.416667  0.400000  0.437500      2.000000
  0.500000  0.400000  0.437500      2.000000
 -0.416667  0.400000  0.437500      2.000000
 -0.333333  0.400000  0.437500      2.000000
 -0.250000  0.400000  0.437500      2.000000
 -0.166667  0.400000  0.437500      2.000000
 -0.083333  0.400000  0.437500      2.000000
  0.000000  0.500000  0.437500      2.000000
  0.083333  0.500000  0.437500      2.000000
  0.166667  0.500000  0.437500      2.000000
  0.250000  0.500000  0.437500      2.000000
  0.333333  0.500000  0.437500      2.000000
  0.416667  0.500000  0.437500      2.000000
  0.500000  0.500000  0.437500      2.000000
 -0.416667  0.500000  0.437500      2.000000
 -0.333333  0.500000  0.437500      2.000000
 -0.250000  0.500000  0.437500      2.000000
 -0.166667  0.500000  0.437500      2.000000
 -0.083333  0.500000  0.437500      2.000000
  0.000000 -0.400000  0.437500      2.000000
  0.083333 -0.400000  0.437500      2.000000
  0.166667 -0.400000  0.437500      2.000000
  0.250000 -0.400000  0.437500      2.000000
  0.333333 -0.400000  0.437500      2.000000
  0.416667 -0.400000  0.437500      2.000000
  0.500000 -0.400000  0.437500      2.000000
 -0.416667 -0.400000  0.437500      2.000000
 -0.333333 -0.400000  0.437500      2.000000
 -0.250000 -0.400000  0.437500      2.000000
 -0.166667 -0.400000  0.437500      2.000000
 -0.083333 -0.400000  0.437500      2.000000
  0.000000 -0.300000  0.437500      2.000000
  0.083333 -0.300000  0.437500      2.000000
  0.166667 -0.300000  0.437500      2.000000
  0.250000 -0.300000  0.437500      2.000000
  0.333333 -0.300000  0.437500      2.000000
  0.416667 -0.300000  0.437500      2.000000
  0.500000 -0.300000  0.437500      2.000000
 -0.416667 -0.300000  0.437500      2.000000
 -0.333333 -0.300000  0.437500      2.000000
 -0.250000 -0.300000  0.437500      2.000000
 -0.166667 -0.300000  0.437500      2.000000
 -0.083333 -0.300000  0.437500      2.000000
  0.000000 -0.200000  0.437500      2.000000
  0.083333 -0.200000  0.437500      2.000000
  0.166667 -0.200000  0.437500      2.000000
  0.250000 -0.200000  0.437500      2.000000
  0.333333 -0.200000  0.437500      2.000000
  0.416667 -0.200000  0.437500      2.000000
  0.500000 -0.200000  0.437500      2.000000
 -0.416667 -0.200000  0.437500      2.000000
 -0.333333 -0.200000  0.437500      2.000000
 -0.250000 -0.200000  0.437500      2.000000
 -0.166667 -0.200000  0.437500      2.000000
 -0.083333 -0.200000  0.437500      2.000000
  0.000000 -0.100000  0.437500      2.000000
  0.083333 -0.100000  0.437500      2.000000
  0.166667 -0.100000  0.437500      2.000000
  0.250000 -0.100000  0.437500      2.000000
  0.333333 -0.100000  0.437500      2.000000
  0.416667 -0.100000  0.437500      2.000000
  0.500000 -0.100000  0.437500      2.000000
 -0.416667 -0.100000  0.437500      2.000000
 -0.333333 -0.100000  0.437500      2.000000
 -0.250000 -0.100000  0.437500      2.000000
 -0.166667 -0.100000  0.437500      2.000000
 -0.083333 -0.100000  0.437500      2.000000
  0.000000  0.000000  0.500000      1.000000
  0.083333  0.000000  0.500000      2.000000
  0.166667  0.000000  0.500000      2.000000
  0.250000  0.000000  0.500000      2.000000
  0.333333  0.000000  0.500000      2.000000
  0.416667  0.000000  0.500000      2.000000
  0.500000  0.000000  0.500000      1.000000
  0.000000  0.100000  0.500000      2.000000
  0.083333  0.100000  0.500000      2.000000
  0.166667  0.100000  0.500000      2.000000
  0.250000  0.100000  0.500000      2.000000
  0.333333  0.100000  0.500000      2.000000
  0.416667  0.100000  0.500000      2.000000
  0.500000  0.100000  0.500000      2.000000
 -0.416667  0.100000  0.500000      2.000000
 -0.333333  0.100000  0.500000      2.000000
 -0.250000  0.100000  0.500000      2.000000
 -0.166667  0.100000  0.500000      2.000000
 -0.083333  0.100000  0.500000      2.000000
  0.000000  0.200000  0.500000      2.000000
  0.083333  0.200000  0.500000      2.000000
  0.166667  0.200000  0.500000      2.000000
  0.250000  0.200000  0.500000      2.000000
  0.333333  0.200000  0.500000      2.000000
  0.416667  0.200000  0.500000      2.000000
  0.500000  0.200000  0.500000      2.000000
 -0.416667  0.200000  0.500000      2.000000
 -0.333333  0.200000  0.500000      2.000000
 -0.250000  0.200000  0.500000      2.000000
 -0.166667  0.200000  0.500000      2.000000
 -0.083333  0.200000  0.500000      2.000000
  0.000000  0.300000  0.500000      2.000000
  0.083333  0.300000  0.500000      2.000000
  0.166667  0.300000  0.500000      2.000000
  0.250000  0.300000  0.500000      2.000000
  0.333333  0.300000  0.500000      2.000000
  0.416667  0.300000  0.500000      2.000000
  0.500000  0.300000  0.500000      2.000000
 -0.416667  0.300000  0.500000      2.000000
 -0.333333  0.300000  0.500000      2.000000
 -0.250000  0.300000  0.500000      2.000000
 -0.166667  0.300000  0.500000      2.000000
 -0.083333  0.300000  0.500000      2.000000
  0.000000  0.400000  0.500000      2.000000
  0.083333  0.400000  0.500000      2.000000
  0.166667  0.400000  0.500000      2.000000
  0.250000  0.400000  0.500000      2.000000
  0.333333  0.400000  0.500000      2.000000
  0.416667  0.400000  0.500000      2.000000
  0.500000  0.400000  0.500000      2.000000
 -0.416667  0.400000  0.500000      2.000000
 -0.333333  0.400000  0.500000      2.000000
 -0.250000  0.400000  0.500000      2.000000
 -0.166667  0.400000  0.500000      2.000000
 -0.083333  0.400000  0.500000      2.000000
  0.000000  0.500000  0.500000      1.000000
  0.083333  0.500000  0.500000      2.000000
  0.166667  0.500000  0.500000      2.000000
  0.250000  0.500000  0.500000      2.000000
  0.333333  0.500000  0.500000      2.000000
  0.416667  0.500000  0.500000      2.000000
  0.500000  0.500000  0.500000      1.000000
 
 Following cartesian coordinates:
            Coordinates               Weight
  0.000000  0.000000  0.000000      1.000000
  0.000000  0.018335  0.000000      2.000000
  0.000000  0.036671  0.000000      2.000000
  0.000000  0.055006  0.000000      2.000000
  0.000000  0.073342  0.000000      2.000000
  0.000000  0.091677  0.000000      2.000000
  0.000000  0.110012  0.000000      1.000000
 -0.022002  0.000000  0.000000      2.000000
 -0.022002  0.018335  0.000000      2.000000
 -0.022002  0.036671  0.000000      2.000000
 -0.022002  0.055006  0.000000      2.000000
 -0.022002  0.073342  0.000000      2.000000
 -0.022002  0.091677  0.000000      2.000000
 -0.022002  0.110012  0.000000      2.000000
 -0.022002 -0.091677  0.000000      2.000000
 -0.022002 -0.073342  0.000000      2.000000
 -0.022002 -0.055006  0.000000      2.000000
 -0.022002 -0.036671  0.000000      2.000000
 -0.022002 -0.018335  0.000000      2.000000
 -0.044005  0.000000  0.000000      2.000000
 -0.044005  0.018335  0.000000      2.000000
 -0.044005  0.036671  0.000000      2.000000
 -0.044005  0.055006  0.000000      2.000000
 -0.044005  0.073342  0.000000      2.000000
 -0.044005  0.091677  0.000000      2.000000
 -0.044005  0.110012  0.000000      2.000000
 -0.044005 -0.091677  0.000000      2.000000
 -0.044005 -0.073342  0.000000      2.000000
 -0.044005 -0.055006  0.000000      2.000000
 -0.044005 -0.036671  0.000000      2.000000
 -0.044005 -0.018335  0.000000      2.000000
 -0.066007  0.000000  0.000000      2.000000
 -0.066007  0.018335  0.000000      2.000000
 -0.066007  0.036671  0.000000      2.000000
 -0.066007  0.055006  0.000000      2.000000
 -0.066007  0.073342  0.000000      2.000000
 -0.066007  0.091677  0.000000      2.000000
 -0.066007  0.110012  0.000000      2.000000
 -0.066007 -0.091677  0.000000      2.000000
 -0.066007 -0.073342  0.000000      2.000000
 -0.066007 -0.055006  0.000000      2.000000
 -0.066007 -0.036671  0.000000      2.000000
 -0.066007 -0.018335  0.000000      2.000000
 -0.088010  0.000000  0.000000      2.000000
 -0.088010  0.018335  0.000000      2.000000
 -0.088010  0.036671  0.000000      2.000000
 -0.088010  0.055006  0.000000      2.000000
 -0.088010  0.073342  0.000000      2.000000
 -0.088010  0.091677  0.000000      2.000000
 -0.088010  0.110012  0.000000      2.000000
 -0.088010 -0.091677  0.000000      2.000000
 -0.088010 -0.073342  0.000000      2.000000
 -0.088010 -0.055006  0.000000      2.000000
 -0.088010 -0.036671  0.000000      2.000000
 -0.088010 -0.018335  0.000000      2.000000
 -0.110012  0.000000  0.000000      1.000000
 -0.110012  0.018335  0.000000      2.000000
 -0.110012  0.036671  0.000000      2.000000
 -0.110012  0.055006  0.000000      2.000000
 -0.110012  0.073342  0.000000      2.000000
 -0.110012  0.091677  0.000000      2.000000
 -0.110012  0.110012  0.000000      1.000000
  0.013752  0.000000  0.019596      2.000000
  0.013752  0.018335  0.019596      2.000000
  0.013752  0.036671  0.019596      2.000000
  0.013752  0.055006  0.019596      2.000000
  0.013752  0.073342  0.019596      2.000000
  0.013752  0.091677  0.019596      2.000000
  0.013752  0.110012  0.019596      2.000000
  0.013752 -0.091677  0.019596      2.000000
  0.013752 -0.073342  0.019596      2.000000
  0.013752 -0.055006  0.019596      2.000000
  0.013752 -0.036671  0.019596      2.000000
  0.013752 -0.018335  0.019596      2.000000
 -0.008251  0.000000  0.019596      2.000000
 -0.008251  0.018335  0.019596      2.000000
 -0.008251  0.036671  0.019596      2.000000
 -0.008251  0.055006  0.019596      2.000000
 -0.008251  0.073342  0.019596      2.000000
 -0.008251  0.091677  0.019596      2.000000
 -0.008251  0.110012  0.019596      2.000000
 -0.008251 -0.091677  0.019596      2.000000
 -0.008251 -0.073342  0.019596      2.000000
 -0.008251 -0.055006  0.019596      2.000000
 -0.008251 -0.036671  0.019596      2.000000
 -0.008251 -0.018335  0.019596      2.000000
 -0.030253  0.000000  0.019596      2.000000
 -0.030253  0.018335  0.019596      2.000000
 -0.030253  0.036671  0.019596      2.000000
 -0.030253  0.055006  0.019596      2.000000
 -0.030253  0.073342  0.019596      2.000000
 -0.030253  0.091677  0.019596      2.000000
 -0.030253  0.110012  0.019596      2.000000
 -0.030253 -0.091677  0.019596      2.000000
 -0.030253 -0.073342  0.019596      2.000000
 -0.030253 -0.055006  0.019596      2.000000
 -0.030253 -0.036671  0.019596      2.000000
 -0.030253 -0.018335  0.019596      2.000000
 -0.052256  0.000000  0.019596      2.000000
 -0.052256  0.018335  0.019596      2.000000
 -0.052256  0.036671  0.019596      2.000000
 -0.052256  0.055006  0.019596      2.000000
 -0.052256  0.073342  0.019596      2.000000
 -0.052256  0.091677  0.019596      2.000000
 -0.052256  0.110012  0.019596      2.000000
 -0.052256 -0.091677  0.019596      2.000000
 -0.052256 -0.073342  0.019596      2.000000
 -0.052256 -0.055006  0.019596      2.000000
 -0.052256 -0.036671  0.019596      2.000000
 -0.052256 -0.018335  0.019596      2.000000
 -0.074258  0.000000  0.019596      2.000000
 -0.074258  0.018335  0.019596      2.000000
 -0.074258  0.036671  0.019596      2.000000
 -0.074258  0.055006  0.019596      2.000000
 -0.074258  0.073342  0.019596      2.000000
 -0.074258  0.091677  0.019596      2.000000
 -0.074258  0.110012  0.019596      2.000000
 -0.074258 -0.091677  0.019596      2.000000
 -0.074258 -0.073342  0.019596      2.000000
 -0.074258 -0.055006  0.019596      2.000000
 -0.074258 -0.036671  0.019596      2.000000
 -0.074258 -0.018335  0.019596      2.000000
 -0.096261  0.000000  0.019596      2.000000
 -0.096261  0.018335  0.019596      2.000000
 -0.096261  0.036671  0.019596      2.000000
 -0.096261  0.055006  0.019596      2.000000
 -0.096261  0.073342  0.019596      2.000000
 -0.096261  0.091677  0.019596      2.000000
 -0.096261  0.110012  0.019596      2.000000
 -0.096261 -0.091677  0.019596      2.000000
 -0.096261 -0.073342  0.019596      2.000000
 -0.096261 -0.055006  0.019596      2.000000
 -0.096261 -0.036671  0.019596      2.000000
 -0.096261 -0.018335  0.019596      2.000000
  0.101762  0.000000  0.019596      2.000000
  0.101762  0.018335  0.019596      2.000000
  0.101762  0.036671  0.019596      2.000000
  0.101762  0.055006  0.019596      2.000000
  0.101762  0.073342  0.019596      2.000000
  0.101762  0.091677  0.019596      2.000000
  0.101762  0.110012  0.019596      2.000000
  0.101762 -0.091677  0.019596      2.000000
  0.101762 -0.073342  0.019596      2.000000
  0.101762 -0.055006  0.019596      2.000000
  0.101762 -0.036671  0.019596      2.000000
  0.101762 -0.018335  0.019596      2.000000
  0.079759  0.000000  0.019596      2.000000
  0.079759  0.018335  0.019596      2.000000
  0.079759  0.036671  0.019596      2.000000
  0.079759  0.055006  0.019596      2.000000
  0.079759  0.073342  0.019596      2.000000
  0.079759  0.091677  0.019596      2.000000
  0.079759  0.110012  0.019596      2.000000
  0.079759 -0.091677  0.019596      2.000000
  0.079759 -0.073342  0.019596      2.000000
  0.079759 -0.055006  0.019596      2.000000
  0.079759 -0.036671  0.019596      2.000000
  0.079759 -0.018335  0.019596      2.000000
  0.057757  0.000000  0.019596      2.000000
  0.057757  0.018335  0.019596      2.000000
  0.057757  0.036671  0.019596      2.000000
  0.057757  0.055006  0.019596      2.000000
  0.057757  0.073342  0.019596      2.000000
  0.057757  0.091677  0.019596      2.000000
  0.057757  0.110012  0.019596      2.000000
  0.057757 -0.091677  0.019596      2.000000
  0.057757 -0.073342  0.019596      2.000000
  0.057757 -0.055006  0.019596      2.000000
  0.057757 -0.036671  0.019596      2.000000
  0.057757 -0.018335  0.019596      2.000000
  0.035754  0.000000  0.019596      2.000000
  0.035754  0.018335  0.019596      2.000000
  0.035754  0.036671  0.019596      2.000000
  0.035754  0.055006  0.019596      2.000000
  0.035754  0.073342  0.019596      2.000000
  0.035754  0.091677  0.019596      2.000000
  0.035754  0.110012  0.019596      2.000000
  0.035754 -0.091677  0.019596      2.000000
  0.035754 -0.073342  0.019596      2.000000
  0.035754 -0.055006  0.019596      2.000000
  0.035754 -0.036671  0.019596      2.000000
  0.035754 -0.018335  0.019596      2.000000
  0.027503  0.000000  0.039191      2.000000
  0.027503  0.018335  0.039191      2.000000
  0.027503  0.036671  0.039191      2.000000
  0.027503  0.055006  0.039191      2.000000
  0.027503  0.073342  0.039191      2.000000
  0.027503  0.091677  0.039191      2.000000
  0.027503  0.110012  0.039191      2.000000
  0.027503 -0.091677  0.039191      2.000000
  0.027503 -0.073342  0.039191      2.000000
  0.027503 -0.055006  0.039191      2.000000
  0.027503 -0.036671  0.039191      2.000000
  0.027503 -0.018335  0.039191      2.000000
  0.005501  0.000000  0.039191      2.000000
  0.005501  0.018335  0.039191      2.000000
  0.005501  0.036671  0.039191      2.000000
  0.005501  0.055006  0.039191      2.000000
  0.005501  0.073342  0.039191      2.000000
  0.005501  0.091677  0.039191      2.000000
  0.005501  0.110012  0.039191      2.000000
  0.005501 -0.091677  0.039191      2.000000
  0.005501 -0.073342  0.039191      2.000000
  0.005501 -0.055006  0.039191      2.000000
  0.005501 -0.036671  0.039191      2.000000
  0.005501 -0.018335  0.039191      2.000000
 -0.016502  0.000000  0.039191      2.000000
 -0.016502  0.018335  0.039191      2.000000
 -0.016502  0.036671  0.039191      2.000000
 -0.016502  0.055006  0.039191      2.000000
 -0.016502  0.073342  0.039191      2.000000
 -0.016502  0.091677  0.039191      2.000000
 -0.016502  0.110012  0.039191      2.000000
 -0.016502 -0.091677  0.039191      2.000000
 -0.016502 -0.073342  0.039191      2.000000
 -0.016502 -0.055006  0.039191      2.000000
 -0.016502 -0.036671  0.039191      2.000000
 -0.016502 -0.018335  0.039191      2.000000
 -0.038504  0.000000  0.039191      2.000000
 -0.038504  0.018335  0.039191      2.000000
 -0.038504  0.036671  0.039191      2.000000
 -0.038504  0.055006  0.039191      2.000000
 -0.038504  0.073342  0.039191      2.000000
 -0.038504  0.091677  0.039191      2.000000
 -0.038504  0.110012  0.039191      2.000000
 -0.038504 -0.091677  0.039191      2.000000
 -0.038504 -0.073342  0.039191      2.000000
 -0.038504 -0.055006  0.039191      2.000000
 -0.038504 -0.036671  0.039191      2.000000
 -0.038504 -0.018335  0.039191      2.000000
 -0.060507  0.000000  0.039191      2.000000
 -0.060507  0.018335  0.039191      2.000000
 -0.060507  0.036671  0.039191      2.000000
 -0.060507  0.055006  0.039191      2.000000
 -0.060507  0.073342  0.039191      2.000000
 -0.060507  0.091677  0.039191      2.000000
 -0.060507  0.110012  0.039191      2.000000
 -0.060507 -0.091677  0.039191      2.000000
 -0.060507 -0.073342  0.039191      2.000000
 -0.060507 -0.055006  0.039191      2.000000
 -0.060507 -0.036671  0.039191      2.000000
 -0.060507 -0.018335  0.039191      2.000000
 -0.082509  0.000000  0.039191      2.000000
 -0.082509  0.018335  0.039191      2.000000
 -0.082509  0.036671  0.039191      2.000000
 -0.082509  0.055006  0.039191      2.000000
 -0.082509  0.073342  0.039191      2.000000
 -0.082509  0.091677  0.039191      2.000000
 -0.082509  0.110012  0.039191      2.000000
 -0.082509 -0.091677  0.039191      2.000000
 -0.082509 -0.073342  0.039191      2.000000
 -0.082509 -0.055006  0.039191      2.000000
 -0.082509 -0.036671  0.039191      2.000000
 -0.082509 -0.018335  0.039191      2.000000
  0.115513  0.000000  0.039191      2.000000
  0.115513  0.018335  0.039191      2.000000
  0.115513  0.036671  0.039191      2.000000
  0.115513  0.055006  0.039191      2.000000
  0.115513  0.073342  0.039191      2.000000
  0.115513  0.091677  0.039191      2.000000
  0.115513  0.110012  0.039191      2.000000
  0.115513 -0.091677  0.039191      2.000000
  0.115513 -0.073342  0.039191      2.000000
  0.115513 -0.055006  0.039191      2.000000
  0.115513 -0.036671  0.039191      2.000000
  0.115513 -0.018335  0.039191      2.000000
  0.093511  0.000000  0.039191      2.000000
  0.093511  0.018335  0.039191      2.000000
  0.093511  0.036671  0.039191      2.000000
  0.093511  0.055006  0.039191      2.000000
  0.093511  0.073342  0.039191      2.000000
  0.093511  0.091677  0.039191      2.000000
  0.093511  0.110012  0.039191      2.000000
  0.093511 -0.091677  0.039191      2.000000
  0.093511 -0.073342  0.039191      2.000000
  0.093511 -0.055006  0.039191      2.000000
  0.093511 -0.036671  0.039191      2.000000
  0.093511 -0.018335  0.039191      2.000000
  0.071508  0.000000  0.039191      2.000000
  0.071508  0.018335  0.039191      2.000000
  0.071508  0.036671  0.039191      2.000000
  0.071508  0.055006  0.039191      2.000000
  0.071508  0.073342  0.039191      2.000000
  0.071508  0.091677  0.039191      2.000000
  0.071508  0.110012  0.039191      2.000000
  0.071508 -0.091677  0.039191      2.000000
  0.071508 -0.073342  0.039191      2.000000
  0.071508 -0.055006  0.039191      2.000000
  0.071508 -0.036671  0.039191      2.000000
  0.071508 -0.018335  0.039191      2.000000
  0.049506  0.000000  0.039191      2.000000
  0.049506  0.018335  0.039191      2.000000
  0.049506  0.036671  0.039191      2.000000
  0.049506  0.055006  0.039191      2.000000
  0.049506  0.073342  0.039191      2.000000
  0.049506  0.091677  0.039191      2.000000
  0.049506  0.110012  0.039191      2.000000
  0.049506 -0.091677  0.039191      2.000000
  0.049506 -0.073342  0.039191      2.000000
  0.049506 -0.055006  0.039191      2.000000
  0.049506 -0.036671  0.039191      2.000000
  0.049506 -0.018335  0.039191      2.000000
  0.041255  0.000000  0.058787      2.000000
  0.041255  0.018335  0.058787      2.000000
  0.041255  0.036671  0.058787      2.000000
  0.041255  0.055006  0.058787      2.000000
  0.041255  0.073342  0.058787      2.000000
  0.041255  0.091677  0.058787      2.000000
  0.041255  0.110012  0.058787      2.000000
  0.041255 -0.091677  0.058787      2.000000
  0.041255 -0.073342  0.058787      2.000000
  0.041255 -0.055006  0.058787      2.000000
  0.041255 -0.036671  0.058787      2.000000
  0.041255 -0.018335  0.058787      2.000000
  0.019252  0.000000  0.058787      2.000000
  0.019252  0.018335  0.058787      2.000000
  0.019252  0.036671  0.058787      2.000000
  0.019252  0.055006  0.058787      2.000000
  0.019252  0.073342  0.058787      2.000000
  0.019252  0.091677  0.058787      2.000000
  0.019252  0.110012  0.058787      2.000000
  0.019252 -0.091677  0.058787      2.000000
  0.019252 -0.073342  0.058787      2.000000
  0.019252 -0.055006  0.058787      2.000000
  0.019252 -0.036671  0.058787      2.000000
  0.019252 -0.018335  0.058787      2.000000
 -0.002750  0.000000  0.058787      2.000000
 -0.002750  0.018335  0.058787      2.000000
 -0.002750  0.036671  0.058787      2.000000
 -0.002750  0.055006  0.058787      2.000000
 -0.002750  0.073342  0.058787      2.000000
 -0.002750  0.091677  0.058787      2.000000
 -0.002750  0.110012  0.058787      2.000000
 -0.002750 -0.091677  0.058787      2.000000
 -0.002750 -0.073342  0.058787      2.000000
 -0.002750 -0.055006  0.058787      2.000000
 -0.002750 -0.036671  0.058787      2.000000
 -0.002750 -0.018335  0.058787      2.000000
 -0.024753  0.000000  0.058787      2.000000
 -0.024753  0.018335  0.058787      2.000000
 -0.024753  0.036671  0.058787      2.000000
 -0.024753  0.055006  0.058787      2.000000
 -0.024753  0.073342  0.058787      2.000000
 -0.024753  0.091677  0.058787      2.000000
 -0.024753  0.110012  0.058787      2.000000
 -0.024753 -0.091677  0.058787      2.000000
 -0.024753 -0.073342  0.058787      2.000000
 -0.024753 -0.055006  0.058787      2.000000
 -0.024753 -0.036671  0.058787      2.000000
 -0.024753 -0.018335  0.058787      2.000000
 -0.046755  0.000000  0.058787      2.000000
 -0.046755  0.018335  0.058787      2.000000
 -0.046755  0.036671  0.058787      2.000000
 -0.046755  0.055006  0.058787      2.000000
 -0.046755  0.073342  0.058787      2.000000
 -0.046755  0.091677  0.058787      2.000000
 -0.046755  0.110012  0.058787      2.000000
 -0.046755 -0.091677  0.058787      2.000000
 -0.046755 -0.073342  0.058787      2.000000
 -0.046755 -0.055006  0.058787      2.000000
 -0.046755 -0.036671  0.058787      2.000000
 -0.046755 -0.018335  0.058787      2.000000
 -0.068758  0.000000  0.058787      2.000000
 -0.068758  0.018335  0.058787      2.000000
 -0.068758  0.036671  0.058787      2.000000
 -0.068758  0.055006  0.058787      2.000000
 -0.068758  0.073342  0.058787      2.000000
 -0.068758  0.091677  0.058787      2.000000
 -0.068758  0.110012  0.058787      2.000000
 -0.068758 -0.091677  0.058787      2.000000
 -0.068758 -0.073342  0.058787      2.000000
 -0.068758 -0.055006  0.058787      2.000000
 -0.068758 -0.036671  0.058787      2.000000
 -0.068758 -0.018335  0.058787      2.000000
  0.129265  0.000000  0.058787      2.000000
  0.129265  0.018335  0.058787      2.000000
  0.129265  0.036671  0.058787      2.000000
  0.129265  0.055006  0.058787      2.000000
  0.129265  0.073342  0.058787      2.000000
  0.129265  0.091677  0.058787      2.000000
  0.129265  0.110012  0.058787      2.000000
  0.129265 -0.091677  0.058787      2.000000
  0.129265 -0.073342  0.058787      2.000000
  0.129265 -0.055006  0.058787      2.000000
  0.129265 -0.036671  0.058787      2.000000
  0.129265 -0.018335  0.058787      2.000000
  0.107262  0.000000  0.058787      2.000000
  0.107262  0.018335  0.058787      2.000000
  0.107262  0.036671  0.058787      2.000000
  0.107262  0.055006  0.058787      2.000000
  0.107262  0.073342  0.058787      2.000000
  0.107262  0.091677  0.058787      2.000000
  0.107262  0.110012  0.058787      2.000000
  0.107262 -0.091677  0.058787      2.000000
  0.107262 -0.073342  0.058787      2.000000
  0.107262 -0.055006  0.058787      2.000000
  0.107262 -0.036671  0.058787      2.000000
  0.107262 -0.018335  0.058787      2.000000
  0.085260  0.000000  0.058787      2.000000
  0.085260  0.018335  0.058787      2.000000
  0.085260  0.036671  0.058787      2.000000
  0.085260  0.055006  0.058787      2.000000
  0.085260  0.073342  0.058787      2.000000
  0.085260  0.091677  0.058787      2.000000
  0.085260  0.110012  0.058787      2.000000
  0.085260 -0.091677  0.058787      2.000000
  0.085260 -0.073342  0.058787      2.000000
  0.085260 -0.055006  0.058787      2.000000
  0.085260 -0.036671  0.058787      2.000000
  0.085260 -0.018335  0.058787      2.000000
  0.063257  0.000000  0.058787      2.000000
  0.063257  0.018335  0.058787      2.000000
  0.063257  0.036671  0.058787      2.000000
  0.063257  0.055006  0.058787      2.000000
  0.063257  0.073342  0.058787      2.000000
  0.063257  0.091677  0.058787      2.000000
  0.063257  0.110012  0.058787      2.000000
  0.063257 -0.091677  0.058787      2.000000
  0.063257 -0.073342  0.058787      2.000000
  0.063257 -0.055006  0.058787      2.000000
  0.063257 -0.036671  0.058787      2.000000
  0.063257 -0.018335  0.058787      2.000000
  0.055006  0.000000  0.078382      2.000000
  0.055006  0.018335  0.078382      2.000000
  0.055006  0.036671  0.078382      2.000000
  0.055006  0.055006  0.078382      2.000000
  0.055006  0.073342  0.078382      2.000000
  0.055006  0.091677  0.078382      2.000000
  0.055006  0.110012  0.078382      2.000000
  0.055006 -0.091677  0.078382      2.000000
  0.055006 -0.073342  0.078382      2.000000
  0.055006 -0.055006  0.078382      2.000000
  0.055006 -0.036671  0.078382      2.000000
  0.055006 -0.018335  0.078382      2.000000
  0.033004  0.000000  0.078382      2.000000
[...]
  248                  m_alltoallv_z                         0.000367                  2   8
  249                  map_scatter                           0.000121                  2   8
  250        forloc                                0.000771                            1   3
  251          m_sumb_d                              0.000024                          1   4
  252        fornl                                 2.593347                            1   3
  253          phase                                 0.243405                        964   4
  254          m_sumb_d                              0.000042                          2   4
  255        fordep                                0.027712                            1   3
  256          setdij_                               0.027519                          6   4
  257            m_sumb_d                              0.001064                        6   5
  258        setdij_                               0.004484                            1   3
  259          m_sumb_d                              0.000157                          1   4
  260        set_dd_magatom                        0.000004                            1   3
  261        set_dd_paw                            1.895688                            1   3
  262          set_rsgf_all                          0.000005                          1   4
  263          m_sumb_d                              1.895499                          7   4
  264        fft3d_mpi                             0.016537                           22   3
  265          fftbas_plan_mpi                       0.015217                         22   4
  266            dfftw_execute                         0.003552                       66   5
  267            map_forward                           0.003039                       20   5
  268              map_gather                            0.000373                     10   6
  269              m_alltoallv_z                         0.001860                     10   6
  270              map_scatter                           0.000425                     10   6
  271            map_backward                          0.003513                       24   5
  272              map_gather                            0.000392                     12   6
  273              m_alltoallv_z                         0.001936                     12   6
  274              map_scatter                           0.000771                     12   6
  275        m_sumb_d                              0.000091                            5   3
  276        forhar                                0.001563                            2   3
  277          m_sumb_d                              0.000194                          2   4
  278        chggra                                0.003745                            1   3
  279          fft3d_mpi                             0.002374                          3   4
  280            fftbas_plan_mpi                       0.002197                        3   5
  281              dfftw_execute                         0.000504                      9   6
  282              map_backward                          0.000281                      2   6
  283                map_gather                            0.000030                    1   7
  284                m_alltoallv_z                         0.000152                    1   7
  285                map_scatter                           0.000060                    1   7
  286              map_forward                           0.000609                      4   6
  287                map_gather                            0.000074                    2   7
  288                m_alltoallv_z                         0.000377                    2   7
  289                map_scatter                           0.000084                    2   7
  290          m_sumb_d                              0.000035                          2   4
  291          pothar                                0.000448                          1   4
  292            m_sumb_d                              0.000273                        1   5
  293        brmix                                 0.002567                            1   3
  294          m_sumb_d                              0.000080                          6   4
  295          brpre                                 0.000029                          2   4
  296          setg0                                 0.000590                          1   4
  297          broyd                                 0.001395                          1   4
  298            m_sumb_d                              0.000251                       15   5
  299            brget                                 0.000222                       49   5
  300            brsav                                 0.000080                       13   5
  301        m_bcast_d                             0.000084                            2   3
  302      potlok                                0.058835                              1   2
  303        fft3d_mpi                             0.020093                           26   3
  304          fftbas_plan_mpi                       0.017793                         26   4
  305            dfftw_execute                         0.004160                       78   5
  306            map_forward                           0.004214                       28   5
  307              map_gather                            0.000579                     16   6
  308              m_alltoallv_z                         0.002443                     16   6
  309              map_scatter                           0.000645                     16   6
  310            map_backward                          0.003353                       24   5
  311              map_gather                            0.000373                     12   6
  312              m_alltoallv_z                         0.001811                     12   6
  313              map_scatter                           0.000753                     12   6
  314        m_sumb_d                              0.000090                            5   3
  315        pothar                                0.000222                            1   3
  316          m_sumb_d                              0.000038                          1   4
  317        m_bcast_d                             0.000258                            2   3
  318      potlok_metagga                        0.000004                              1   2
  319      set_dd_magatom                        0.000003                              1   2
  320      set_dd_paw                            1.897527                              1   2
  321        set_rsgf_all                          0.000004                            1   3
  322        m_sumb_d                              1.897337                            7   3
  323      densta                                0.145918                              1   2
  324        m_sumb_d                              0.019035                           36   3
 
 Flat profile
 ============
 
             routine name                   CPU           calls
 ---------------------------------------------------------------
 fft3d                                 163.243030      376704
 pdssyex_zheevx                        155.568505       25064
 eddav                                 146.711348           5
 m_alltoall_d                           77.417664      833770
 total_time                             62.018978           1
 m_sumb_d                               58.273456      325714
 orth1                                  24.982959      228154
 gemm                                   18.313353      748368
 sphpro_fast                            16.288663           2
 fftwav                                 13.382694      221128
 vnlac0                                 12.756773      124728
 proj1                                  11.384691      109304
 fftext_mpi                             10.333437      155576
 vhamil                                 10.250669      155576
 w1_copy                                 9.342363      374184
 eccp                                    8.536835      140578
 hamiltmu                                8.464962       95808
 redis_pw                                8.307942      276354
 work_mul_crexp                          8.294491      748368
 i2                                      7.334185       30682
 redis_proj                              7.062824      339552
 lincom                                  7.019179       42416
 phase                                   6.917766       26993
 m_bcast_z                               6.775810      126822
 overl                                   5.604057      143748
 newband                                 4.305875      120872
 i3                                      4.116111       30682
 crexp_mul_wave                          3.857486      218608
 w1_daxpy                                3.839807      119204
 overl1                                  3.633742      182344
 kinhamil                                3.591368      155576
 eddiag                                  3.545576           8
 w1_dscal                                3.429644      145864
 zhegv                                   3.260231       28754
 fftwav_mpi                              2.699629      221128
 fft3d_mpi                               2.400342      155902
 fornl                                   2.349900           1
 apply_precond                           2.278239      134682
 eddrmm                                  2.165118           8
 cnorma                                  2.107199       90450
 m_bcast_d                               1.947854      130277
 w1_gemv                                 1.839986      115232
 choleski                                1.750474       17352
 eccp_nl                                 1.656199       90450
 orthch                                  1.644250           9
 setup_precond                           1.343688       50128
 w1_projall                              1.282146       76528
 pw_charge                               1.197330       34704
 elmin                                   1.102814           1
 densta                                  1.068384          14
 i1                                      0.971509       30682
 spher                                   0.850762           1
 hamilt_local                            0.701271       30848
 w1_gaxpy                                0.670044       57988
 soft_charge                             0.654046           9
 w1_dot                                  0.636797       30848
 truncate_high_frequency_w1              0.607062      174856
 potlok                                  0.387696          10
 depsum                                  0.174715           9
 fftbas_plan_mpi                         0.086462         326
 setdij_                                 0.085099          18
 dfftw_execute                           0.069581         978
 augmentation_charge                     0.065099           9
 m_alltoallv_z                           0.062778         364
 shift_bands_between_low_high            0.058037       15424
 proj                                    0.049010         964
 force_and_stress                        0.040034           1
 map_scatter                             0.017705         364
 map_gather                              0.011439         364
 map_forward                             0.006417         314
 map_backward                            0.006298         338
 setg0                                   0.006022          11
 broyd                                   0.005859           9
 brmix                                   0.005408           9
 fewald                                  0.004704           1
 set_dd_paw                              0.003168          11
 pothar                                  0.001978          11
 forhar                                  0.001369           2
 set_charge                              0.001230           9
 rsp                                     0.001198           1
 brget                                   0.001161         255
 brsav                                   0.000916          82
 chggra                                  0.000888           1
 forloc                                  0.000747           1
 stufak                                  0.000747           1
 fft_gq                                  0.000495           9
 brpre                                   0.000429          18
 brgrid                                  0.000287           1
 fordep                                  0.000193           1
 crpa_reader                             0.000169           1
 potlok_metagga                          0.000069          10
 rcp                                     0.000061           1
 set_rsgf_all                            0.000060          11
 vectorpot                               0.000052          10
 set_dd_magatom                          0.000043          11
 FERMAT_RAZOR                            0.000017           1
 rotate_active_occupied_orbital          0.000011           1
 redis_pw_over_bands                     0.000004           1
 ---------------------------------------------------------------
  summed up times    933.249166011810     
 
 Accumulative profile
 ====================
 
             routine name                   CPU           calls
 ---------------------------------------------------------------
 total_time                            933.249166           1
 elmin                                 833.459137           1
 eddav                                 447.015197           5
 eddrmm                                165.193598           8
 eddiag                                163.626464           8
 fft3d                                 163.243030      376704
 pdssyex_zheevx                        155.568522       25064
 hamiltmu                              129.793666       95808
 fftwav_mpi                            108.573360      221128
 fftwav                                105.873731      221128
 kinhamil                               87.044409      155576
 fftext_mpi                             83.453041      155576
 m_alltoall_d                           77.417664      833770
 fft3d_mpi                              73.413014      155902
 m_sumb_d                               58.273456      325714
 redis_pw                               54.797400      276354
 i2                                     46.376267       30682
 newband                                41.899015      120872
 vnlac0                                 39.364617      124728
 redis_proj                             37.991029      339552
 orthch                                 27.621410           9
 orth1                                  24.982959      228154
 set_dd_paw                             20.810104          11
 i3                                     20.042393       30682
 hamilt_local                           18.871319       30848
 gemm                                   18.313353      748368
 sphpro_fast                            16.377784           2
 w1_projall                             16.157243       76528
 proj1                                  15.242176      109304
 set_charge                             14.813423           9
 soft_charge                            14.554915           9
 vhamil                                 10.250669      155576
 w1_copy                                 9.342363      374184
 eccp                                    8.536835      140578
 work_mul_crexp                          8.294491      748368
 lincom                                  7.019179       42416
 phase                                   6.917766       26993
 m_bcast_z                               6.775810      126822
 force_and_stress                        6.227284           1
 overl                                   5.604057      143748
 crexp_mul_wave                          3.857486      218608
 w1_daxpy                                3.839807      119204
 cnorma                                  3.763397       90450
 overl1                                  3.633742      182344
 w1_dscal                                3.429644      145864
 zhegv                                   3.260231       28754
 w1_gemv                                 2.634670      115232
 fornl                                   2.593347           1
 apply_precond                           2.278239      134682
 m_bcast_d                               1.947854      130277
 i1                                      1.937930       30682
 choleski                                1.750474       17352
 eccp_nl                                 1.656199       90450
 setup_precond                           1.343688       50128
 densta                                  1.297349          14
 pw_charge                               1.197330       34704
 spher                                   0.850762           1
 w1_gaxpy                                0.670044       57988
 w1_dot                                  0.636797       30848
 truncate_high_frequency_w1              0.607062      174856
 potlok                                  0.602897          10
 proj                                    0.416088         964
 fftbas_plan_mpi                         0.260679         326
 depsum                                  0.177501           9
 setdij_                                 0.088322          18
 augmentation_charge                     0.079777           9
 dfftw_execute                           0.069581         978
 m_alltoallv_z                           0.062778         364
 shift_bands_between_low_high            0.058037       15424
 map_backward                            0.053944         338
 map_forward                             0.050693         314
 fordep                                  0.027712           1
 brmix                                   0.022876           9
 fft_gq                                  0.018743           9
 map_scatter                             0.017705         364
 map_gather                              0.011439         364
 broyd                                   0.009842           9
 fewald                                  0.006104           1
 setg0                                   0.006022          11
 chggra                                  0.003745           1
 pothar                                  0.002574          11
 forhar                                  0.001563           2
 rsp                                     0.001198           1
 brget                                   0.001161         255
 brsav                                   0.000916          82
 forloc                                  0.000771           1
 stufak                                  0.000747           1
 brpre                                   0.000429          18
 brgrid                                  0.000287           1
 crpa_reader                             0.000169           1
 potlok_metagga                          0.000069          10
 rcp                                     0.000061           1
 set_rsgf_all                            0.000060          11
 vectorpot                               0.000052          10
 set_dd_magatom                          0.000043          11
 FERMAT_RAZOR                            0.000017           1
 rotate_active_occupied_orbital          0.000011           1
 redis_pw_over_bands                     0.000004           1
 ---------------------------------------------------------------
 
Profiling took  19.470546 24.373857  0.006022  0.004735 seconds
Profiling took  20.662742 seconds
