 ----------------------------------------------------
    OOO  PPPP  EEEEE N   N M   M PPPP
   O   O P   P E     NN  N MM MM P   P
   O   O PPPP  EEEEE N N N M M M PPPP   -- VERSION
   O   O P     E     N  NN M   M P
    OOO  P     EEEEE N   N M   M P
 ----------------------------------------------------
 running   16 mpi-ranks, with    4 threads/rank
 distrk:  each k-point on   16 cores,    1 groups
 distr:  one band on    1 cores,   16 groups
 vasp.6.2.1 16May21 (build Jul 28 2021 23:24:15) complex                        
  
 POSCAR found type information on POSCAR IrO 
 POSCAR found :  2 types and       6 ions
 scaLAPACK will be used
 LDA part: xc-table for Pade appr. of Perdew
 -----------------------------------------------------------------------------
|                                                                             |
|           W    W    AA    RRRRR   N    N  II  N    N   GGGG   !!!           |
|           W    W   A  A   R    R  NN   N  II  NN   N  G    G  !!!           |
|           W    W  A    A  R    R  N N  N  II  N N  N  G       !!!           |
|           W WW W  AAAAAA  RRRRR   N  N N  II  N  N N  G  GGG   !            |
|           WW  WW  A    A  R   R   N   NN  II  N   NN  G    G                |
|           W    W  A    A  R    R  N    N  II  N    N   GGGG   !!!           |
|                                                                             |
|     Your reciprocal lattice and k-lattice belong to different lattice       |
|     classes:                                                                |
|                                                                             |
|        The reciprocal lattice is simple tetragonal,                         |
|        whereas your k-lattice is simple monoclinic.                         |
|                                                                             |
|     Results are often still useful ...                                      |
|                                                                             |
 -----------------------------------------------------------------------------

 POSCAR, INCAR and KPOINTS ok, starting setup
 FFT: planning ...
 WAVECAR not read
 WARNING: random wavefunctions but no delay for mixing, default for NELMDL
 entering main loop
       N       E                     dE             d eps       ncg     rms          rms(c)
DAV:   1     0.323321356297E+03    0.32332E+03   -0.21551E+04123472   0.125E+03
DAV:   2    -0.306272583445E+02   -0.35395E+03   -0.34109E+03134192   0.329E+02
DAV:   3    -0.493880233021E+02   -0.18761E+02   -0.18476E+02170032   0.855E+01
DAV:   4    -0.495881797326E+02   -0.20016E+00   -0.20012E+00137840   0.953E+00
DAV:   5    -0.495912519504E+02   -0.30722E-02   -0.30721E-02168000   0.109E+00    0.456E+01
RMM:   6    -0.427512280399E+02    0.68400E+01   -0.21585E+01123411   0.274E+01    0.261E+01
RMM:   7    -0.423039027631E+02    0.44733E+00   -0.23285E+00123392   0.132E+01    0.119E+01
RMM:   8    -0.422790202931E+02    0.24882E-01   -0.55593E-01123870   0.368E+00    0.540E+00
RMM:   9    -0.422907386040E+02   -0.11718E-01   -0.11950E-01124985   0.205E+00    0.809E-01
RMM:  10    -0.422947884397E+02   -0.40498E-02   -0.30092E-02123600   0.827E-01    0.488E-01
RMM:  11    -0.422953349810E+02   -0.54654E-03   -0.55546E-03123632   0.561E-01    0.249E-01
RMM:  12    -0.422957620891E+02   -0.42711E-03   -0.30310E-03123442   0.255E-01    0.181E-01
RMM:  13    -0.422957781946E+02   -0.16106E-04   -0.26776E-04 93206   0.110E-01
   1 F= -.42295778E+02 E0= -.42264842E+02  d E =-.422958E+02  mag=     0.0059
 curvature:   0.00 expect dE= 0.000E+00 dE for cont linesearch  0.000E+00
 trial: gam= 0.00000 g(F)=  0.551E-04 g(S)=  0.000E+00 ort = 0.000E+00 (trialstep = 0.100E+01)
 search vector abs. value=  0.551E-04
 reached required accuracy - stopping structural energy minimisation
 writing wavefunctions
