       N       E                     dE             d eps       ncg     rms          rms(c)
DAV:   1     0.775496745736E+04    0.77550E+04   -0.30859E+05 13648   0.126E+03
DAV:   2     0.592472254192E+03   -0.71625E+04   -0.64668E+04 14512   0.370E+02
DAV:   3    -0.786401746672E+03   -0.13789E+04   -0.13185E+04 16560   0.164E+02
DAV:   4    -0.862745484459E+03   -0.76344E+02   -0.74439E+02 18736   0.431E+01
DAV:   5    -0.864264457849E+03   -0.15190E+01   -0.15002E+01 17408   0.566E+00    0.197E+02
RMM:   6    -0.762440219710E+03    0.10182E+03   -0.69671E+02 13464   0.421E+01    0.206E+02
RMM:   7    -0.105342318915E+04   -0.29098E+03   -0.24614E+02 14007   0.258E+01    0.364E+02
RMM:   8    -0.946923427139E+03    0.10650E+03   -0.75214E+01 16115   0.967E+00    0.343E+02
RMM:   9    -0.145371879190E+04   -0.50680E+03   -0.29921E+02 18275   0.229E+01    0.393E+02
RMM:  10    -0.885636864030E+03    0.56808E+03   -0.18301E+02 17218   0.185E+01    0.190E+02
RMM:  11    -0.783507524266E+03    0.10213E+03   -0.11780E+02 15446   0.181E+01    0.120E+02
RMM:  12    -0.672085613111E+03    0.11142E+03   -0.74275E+01 14657   0.129E+01    0.120E+02
RMM:  13    -0.655900885083E+03    0.16185E+02   -0.15920E+01 13817   0.697E+00    0.105E+02
RMM:  14    -0.638313474993E+03    0.17587E+02   -0.12731E+01 13633   0.522E+00    0.845E+01
RMM:  15    -0.635552074364E+03    0.27614E+01   -0.11446E+01 14065   0.509E+00    0.681E+01
RMM:  16    -0.645382581928E+03   -0.98305E+01   -0.91900E+00 14231   0.461E+00    0.601E+01
RMM:  17    -0.648152776900E+03   -0.27702E+01   -0.40814E+00 13812   0.313E+00    0.516E+01
RMM:  18    -0.652042633252E+03   -0.38899E+01   -0.29541E+00 13728   0.246E+00    0.513E+01
RMM:  19    -0.657222017519E+03   -0.51794E+01   -0.49586E+00 15375   0.316E+00    0.430E+01
RMM:  20    -0.665374264793E+03   -0.81522E+01   -0.11051E+01 17664   0.460E+00    0.243E+01
RMM:  21    -0.671411574517E+03   -0.60373E+01   -0.40398E+00 15422   0.284E+00    0.196E+01
RMM:  22    -0.673992770433E+03   -0.25812E+01   -0.13218E+00 13735   0.171E+00    0.225E+01
RMM:  23    -0.675860310128E+03   -0.18675E+01   -0.82421E-01 14079   0.130E+00    0.211E+01
RMM:  24    -0.681006759741E+03   -0.51464E+01   -0.20503E+00 15359   0.194E+00    0.208E+01
RMM:  25    -0.683330497433E+03   -0.23237E+01   -0.50905E-01 13531   0.119E+00    0.218E+01
RMM:  26    -0.685129026143E+03   -0.17985E+01   -0.46157E-01 13843   0.987E-01    0.215E+01
RMM:  27    -0.686782389237E+03   -0.16534E+01   -0.56230E-01 14823   0.103E+00    0.188E+01
RMM:  28    -0.687875698864E+03   -0.10933E+01   -0.32836E-01 14234   0.827E-01    0.155E+01
RMM:  29    -0.689013815002E+03   -0.11381E+01   -0.19864E-01 13808   0.665E-01    0.153E+01
RMM:  30    -0.691046095743E+03   -0.20323E+01   -0.50997E-01 16212   0.917E-01    0.137E+01
RMM:  31    -0.693859571198E+03   -0.28135E+01   -0.95019E-01 18159   0.126E+00    0.916E+00
RMM:  32    -0.696245956039E+03   -0.23864E+01   -0.63039E-01 16886   0.987E-01    0.926E+00
RMM:  33    -0.697927886398E+03   -0.16819E+01   -0.49676E-01 16177   0.847E-01    0.771E+00
RMM:  34    -0.699917724502E+03   -0.19898E+01   -0.26763E-01 15188   0.655E-01    0.593E+00
RMM:  35    -0.700880117001E+03   -0.96239E+00   -0.11958E-01 14062   0.464E-01    0.506E+00
RMM:  36    -0.701678400070E+03   -0.79828E+00   -0.16805E-01 15358   0.490E-01    0.405E+00
RMM:  37    -0.702336369221E+03   -0.65797E+00   -0.18258E-01 16133   0.540E-01    0.356E+00
RMM:  38    -0.702414107169E+03   -0.77738E-01   -0.68168E-02 14103   0.349E-01    0.299E+00
RMM:  39    -0.702494646165E+03   -0.80539E-01   -0.28272E-02 13603   0.239E-01    0.289E+00
RMM:  40    -0.702608692203E+03   -0.11405E+00   -0.21996E-02 14103   0.195E-01    0.256E+00
RMM:  41    -0.703027726799E+03   -0.41903E+00   -0.40510E-02 15387   0.243E-01    0.228E+00
RMM:  42    -0.703681367312E+03   -0.65364E+00   -0.50101E-02 16464   0.291E-01    0.178E+00
RMM:  43    -0.704066807975E+03   -0.38544E+00   -0.23031E-02 14751   0.201E-01    0.165E+00
RMM:  44    -0.704225727217E+03   -0.15892E+00   -0.19755E-02 14979   0.184E-01    0.156E+00
RMM:  45    -0.704294553951E+03   -0.68827E-01   -0.20708E-02 15296   0.177E-01    0.135E+00
RMM:  46    -0.704333685783E+03   -0.39132E-01   -0.10800E-02 14383   0.130E-01    0.140E+00
RMM:  47    -0.704410959201E+03   -0.77273E-01   -0.55666E-03 13852   0.935E-02    0.125E+00
RMM:  48    -0.704486654449E+03   -0.75695E-01   -0.30679E-03 13635   0.721E-02    0.113E+00
RMM:  49    -0.704586415563E+03   -0.99761E-01   -0.19654E-03 13537   0.608E-02    0.106E+00
RMM:  50    -0.704655558124E+03   -0.69143E-01   -0.17836E-03 14036   0.621E-02    0.763E-01
RMM:  51    -0.704616081624E+03    0.39476E-01   -0.52301E-03 17214   0.911E-02    0.654E-01
RMM:  52    -0.704659534818E+03   -0.43453E-01   -0.52121E-04 11631   0.366E-02    0.485E-01
RMM:  53    -0.704738300329E+03   -0.78766E-01   -0.79232E-04 11834   0.383E-02    0.336E-01
RMM:  54    -0.704793945289E+03   -0.55645E-01   -0.56376E-04 11338   0.318E-02    0.252E-01
RMM:  55    -0.704822535865E+03   -0.28591E-01   -0.29090E-04  9801   0.249E-02    0.196E-01
RMM:  56    -0.704791527427E+03    0.31008E-01   -0.24479E-04  9108   0.262E-02    0.186E-01
RMM:  57    -0.704826820676E+03   -0.35293E-01   -0.14577E-04  8633   0.187E-02    0.117E-01
RMM:  58    -0.704866859636E+03   -0.40039E-01   -0.12780E-04  8585   0.155E-02    0.109E-01
RMM:  59    -0.704898010632E+03   -0.31151E-01   -0.84894E-05  8321   0.129E-02    0.103E-01
RMM:  60    -0.704918810955E+03   -0.20800E-01   -0.57136E-05  7699   0.107E-02    0.639E-02
RMM:  61    -0.704925139594E+03   -0.63286E-02   -0.37171E-05  7943   0.925E-03    0.751E-02
RMM:  62    -0.704932091355E+03   -0.69518E-02   -0.21715E-05  6995   0.735E-03    0.428E-02
RMM:  63    -0.704938720709E+03   -0.66294E-02   -0.22883E-05  6600   0.562E-03    0.298E-02
RMM:  64    -0.704941091693E+03   -0.23710E-02   -0.14540E-05  6942   0.530E-03    0.216E-02
RMM:  65    -0.704941801417E+03   -0.70972E-03   -0.68952E-06  4778   0.410E-03    0.169E-02
RMM:  66    -0.704941880605E+03   -0.79189E-04   -0.27439E-06  3853   0.328E-03
   1 F= -.70494188E+03 E0= -.70432543E+03  d E =-.704942E+03  mag=     7.1344
       N       E                     dE             d eps       ncg     rms          rms(c)
DAV:   1    -0.702876231969E+03    0.20656E+01   -0.34691E+02 13760   0.247E+01    0.644E+00
RMM:   2    -0.703565118882E+03   -0.68889E+00   -0.11221E+01 13440   0.516E+00    0.108E+01
RMM:   3    -0.704871822507E+03   -0.13067E+01   -0.26151E+00 14673   0.228E+00    0.171E+01
RMM:   4    -0.703414746463E+03    0.14571E+01   -0.38647E-01 13497   0.109E+00    0.573E+00
RMM:   5    -0.703245668316E+03    0.16908E+00   -0.15026E-01 13471   0.696E-01    0.361E+00
RMM:   6    -0.703218565408E+03    0.27103E-01   -0.10374E-01 13678   0.474E-01    0.277E+00
RMM:   7    -0.703188559592E+03    0.30006E-01   -0.50146E-02 13558   0.361E-01    0.208E+00
RMM:   8    -0.703172489429E+03    0.16070E-01   -0.43299E-02 14070   0.316E-01    0.144E+00
RMM:   9    -0.703150458266E+03    0.22031E-01   -0.17333E-02 13535   0.208E-01    0.557E-01
RMM:  10    -0.703143797895E+03    0.66604E-02   -0.51093E-03 14164   0.108E-01    0.390E-01
RMM:  11    -0.703140673990E+03    0.31239E-02   -0.11413E-03 12675   0.551E-02    0.222E-01
RMM:  12    -0.703137668815E+03    0.30052E-02   -0.89284E-04 12332   0.423E-02    0.195E-01
RMM:  13    -0.703135861875E+03    0.18069E-02   -0.68526E-04 12045   0.364E-02    0.158E-01
RMM:  14    -0.703136008393E+03   -0.14652E-03   -0.24328E-04  9302   0.257E-02    0.104E-01
RMM:  15    -0.703137449280E+03   -0.14409E-02   -0.97386E-05  8183   0.171E-02    0.854E-02
RMM:  16    -0.703140253451E+03   -0.28042E-02   -0.66419E-05  7903   0.115E-02    0.890E-02
RMM:  17    -0.703147703466E+03   -0.74500E-02   -0.21117E-04  8855   0.152E-02    0.867E-02
RMM:  18    -0.703157141508E+03   -0.94380E-02   -0.30658E-04  9418   0.170E-02    0.665E-02
RMM:  19    -0.703163717000E+03   -0.65755E-02   -0.17861E-04  8472   0.140E-02    0.527E-02
RMM:  20    -0.703170540376E+03   -0.68234E-02   -0.13636E-04  8249   0.120E-02    0.525E-02
RMM:  21    -0.703178024393E+03   -0.74840E-02   -0.15105E-04  8395   0.123E-02    0.374E-02
RMM:  22    -0.703183489548E+03   -0.54652E-02   -0.10755E-04  7894   0.110E-02    0.340E-02
RMM:  23    -0.703186382325E+03   -0.28928E-02   -0.48342E-05  7121   0.863E-03    0.340E-02
RMM:  24    -0.703188816797E+03   -0.24345E-02   -0.28897E-05  6361   0.665E-03    0.328E-02
RMM:  25    -0.703190993139E+03   -0.21763E-02   -0.23302E-05  6073   0.584E-03    0.228E-02
RMM:  26    -0.703192806876E+03   -0.18137E-02   -0.21827E-05  6213   0.551E-03    0.134E-02
RMM:  27    -0.703193816081E+03   -0.10092E-02   -0.12524E-05  5597   0.489E-03    0.137E-02
RMM:  28    -0.703194415454E+03   -0.59937E-03   -0.55192E-06  4631   0.398E-03    0.111E-02
RMM:  29    -0.703195053887E+03   -0.63843E-03   -0.38906E-06  4355   0.344E-03    0.938E-03
RMM:  30    -0.703195505024E+03   -0.45114E-03   -0.25087E-06  3932   0.322E-03    0.796E-03
RMM:  31    -0.703195874653E+03   -0.36963E-03   -0.23215E-06  3645   0.306E-03    0.680E-03
RMM:  32    -0.703196403971E+03   -0.52932E-03   -0.46649E-06  4319   0.331E-03    0.636E-03
RMM:  33    -0.703196777408E+03   -0.37344E-03   -0.36363E-06  4060   0.321E-03    0.475E-03
RMM:  34    -0.703197096068E+03   -0.31866E-03   -0.34950E-06  3996   0.320E-03    0.389E-03
RMM:  35    -0.703197377530E+03   -0.28146E-03   -0.33668E-06  3887   0.316E-03    0.337E-03
RMM:  36    -0.703197540387E+03   -0.16286E-03   -0.23837E-06  3530   0.307E-03    0.240E-03
RMM:  37    -0.703197630493E+03   -0.90106E-04   -0.16997E-06  3200   0.298E-03
   2 F= -.70319763E+03 E0= -.70258690E+03  d E =0.174425E+01  mag=     7.6166
       N       E                     dE             d eps       ncg     rms          rms(c)
DAV:   1    -0.705749413253E+03   -0.25519E+01   -0.13262E+02 13824   0.152E+01    0.108E+01
RMM:   2    -0.710382929447E+03   -0.46335E+01   -0.14183E+01 13630   0.417E+00    0.228E+01
RMM:   3    -0.712111624179E+03   -0.17287E+01   -0.21200E+00 13477   0.248E+00    0.322E+01
RMM:   4    -0.706515958118E+03    0.55957E+01   -0.75207E-01 13460   0.150E+00    0.103E+01
RMM:   5    -0.705612362508E+03    0.90360E+00   -0.60225E-01 13666   0.112E+00    0.583E+00
RMM:   6    -0.705369182906E+03    0.24318E+00   -0.32169E-01 14260   0.766E-01    0.381E+00
RMM:   7    -0.705280809961E+03    0.88373E-01   -0.15294E-01 14433   0.489E-01    0.250E+00
RMM:   8    -0.705244224673E+03    0.36585E-01   -0.75346E-02 15179   0.339E-01    0.167E+00
RMM:   9    -0.705234853829E+03    0.93708E-02   -0.35945E-02 14204   0.237E-01    0.127E+00
RMM:  10    -0.705237190767E+03   -0.23369E-02   -0.26185E-02 14417   0.222E-01    0.124E+00
RMM:  11    -0.705231913204E+03    0.52776E-02   -0.76513E-03 13732   0.140E-01    0.775E-01
RMM:  12    -0.705222993626E+03    0.89196E-02   -0.33491E-03 13180   0.900E-02    0.331E-01
RMM:  13    -0.705219384717E+03    0.36089E-02   -0.18699E-03 12862   0.634E-02    0.236E-01
RMM:  14    -0.705218288539E+03    0.10962E-02   -0.57293E-04 11304   0.394E-02    0.164E-01
RMM:  15    -0.705218724047E+03   -0.43551E-03   -0.18854E-04  8832   0.242E-02    0.104E-01
RMM:  16    -0.705219565696E+03   -0.84165E-03   -0.11991E-04  8301   0.178E-02    0.804E-02
RMM:  17    -0.705220464587E+03   -0.89889E-03   -0.74040E-05  8020   0.134E-02    0.592E-02
RMM:  18    -0.705221282246E+03   -0.81766E-03   -0.32733E-05  7653   0.101E-02    0.465E-02
RMM:  19    -0.705222610328E+03   -0.13281E-02   -0.23940E-05  7273   0.724E-03    0.355E-02
RMM:  20    -0.705224486346E+03   -0.18760E-02   -0.23064E-05  7090   0.640E-03    0.320E-02
RMM:  21    -0.705226533645E+03   -0.20473E-02   -0.25445E-05  6996   0.619E-03    0.295E-02
RMM:  22    -0.705229230738E+03   -0.26971E-02   -0.39930E-05  7254   0.674E-03    0.319E-02
RMM:  23    -0.705231237082E+03   -0.20063E-02   -0.31400E-05  6575   0.616E-03    0.289E-02
RMM:  24    -0.705233423186E+03   -0.21861E-02   -0.46900E-05  7049   0.698E-03    0.212E-02
RMM:  25    -0.705234945411E+03   -0.15222E-02   -0.43382E-05  6902   0.676E-03    0.157E-02
RMM:  26    -0.705235631685E+03   -0.68627E-03   -0.20606E-05  5680   0.581E-03    0.130E-02
RMM:  27    -0.705236108201E+03   -0.47652E-03   -0.13881E-05  5407   0.479E-03    0.115E-02
RMM:  28    -0.705236498762E+03   -0.39056E-03   -0.79352E-06  4799   0.421E-03    0.101E-02
RMM:  29    -0.705236841282E+03   -0.34252E-03   -0.51910E-06  4241   0.368E-03    0.792E-03
RMM:  30    -0.705237114000E+03   -0.27272E-03   -0.30629E-06  3943   0.343E-03    0.686E-03
RMM:  31    -0.705237391642E+03   -0.27764E-03   -0.21070E-06  3539   0.313E-03    0.628E-03
RMM:  32    -0.705237588045E+03   -0.19640E-03   -0.12719E-06  3101   0.300E-03    0.519E-03
RMM:  33    -0.705237873931E+03   -0.28589E-03   -0.14712E-06  3186   0.299E-03    0.436E-03
RMM:  34    -0.705238053067E+03   -0.17914E-03   -0.11094E-06  3050   0.295E-03    0.440E-03
RMM:  35    -0.705238220489E+03   -0.16742E-03   -0.10579E-06  2882   0.293E-03    0.385E-03
RMM:  36    -0.705238342406E+03   -0.12192E-03   -0.98819E-07  2772   0.291E-03    0.286E-03
RMM:  37    -0.705238463866E+03   -0.12146E-03   -0.11715E-06  2826   0.291E-03    0.222E-03
RMM:  38    -0.705238546767E+03   -0.82902E-04   -0.90429E-07  2693   0.287E-03
   3 F= -.70523855E+03 E0= -.70462395E+03  d E =-.296666E+00  mag=     7.3513
       N       E                     dE             d eps       ncg     rms          rms(c)
DAV:   1    -0.705241151740E+03   -0.26879E-02   -0.32933E-01 13920   0.765E-01    0.366E-01
RMM:   2    -0.705248957081E+03   -0.78053E-02   -0.14017E-02 13304   0.169E-01    0.121E+00
RMM:   3    -0.705244897842E+03    0.40592E-02   -0.25156E-03 13064   0.970E-02    0.874E-01
RMM:   4    -0.705241221218E+03    0.36766E-02   -0.77413E-04 12157   0.490E-02    0.370E-01
RMM:   5    -0.705240643010E+03    0.57821E-03   -0.48306E-04 10146   0.347E-02    0.212E-01
RMM:   6    -0.705240515257E+03    0.12775E-03   -0.25139E-04  8941   0.241E-02    0.138E-01
RMM:   7    -0.705240429938E+03    0.85319E-04   -0.11847E-04  7674   0.190E-02    0.853E-02
RMM:   8    -0.705240393946E+03    0.35993E-04   -0.56759E-05  7366   0.142E-02
   4 F= -.70524039E+03 E0= -.70462570E+03  d E =-.298513E+00  mag=     7.3470
       N       E                     dE             d eps       ncg     rms          rms(c)
DAV:   1    -0.704739690577E+03    0.50074E+00   -0.10999E+02 13456   0.160E+01    0.316E+00
RMM:   2    -0.705032918428E+03   -0.29323E+00   -0.23836E+00 13440   0.272E+00    0.650E+00
RMM:   3    -0.704904192250E+03    0.12873E+00   -0.33327E-01 13651   0.109E+00    0.208E+00
RMM:   4    -0.705030536836E+03   -0.12634E+00   -0.96699E-02 14252   0.532E-01    0.465E+00
RMM:   5    -0.705013156436E+03    0.17380E-01   -0.43118E-02 13502   0.357E-01    0.525E+00
RMM:   6    -0.704912885757E+03    0.10027E+00   -0.22996E-02 13612   0.249E-01    0.222E+00
RMM:   7    -0.704895723837E+03    0.17162E-01   -0.17963E-02 13762   0.204E-01    0.130E+00
RMM:   8    -0.704887781282E+03    0.79426E-02   -0.88419E-03 13548   0.152E-01    0.823E-01
RMM:   9    -0.704884466684E+03    0.33146E-02   -0.27847E-03 13790   0.842E-02    0.404E-01
RMM:  10    -0.704884066421E+03    0.40026E-03   -0.83879E-04 12527   0.424E-02    0.295E-01
RMM:  11    -0.704884252769E+03   -0.18635E-03   -0.21300E-04  8842   0.230E-02    0.286E-01
RMM:  12    -0.704884878987E+03   -0.62622E-03   -0.15518E-04  8439   0.214E-02    0.255E-01
RMM:  13    -0.704886010019E+03   -0.11310E-02   -0.26456E-04  9123   0.229E-02    0.112E-01
RMM:  14    -0.704886993796E+03   -0.98378E-03   -0.93411E-05  8137   0.170E-02    0.655E-02
RMM:  15    -0.704887618023E+03   -0.62423E-03   -0.32195E-05  7757   0.112E-02    0.373E-02
RMM:  16    -0.704888459099E+03   -0.84108E-03   -0.16123E-05  7058   0.615E-03    0.278E-02
RMM:  17    -0.704889779801E+03   -0.13207E-02   -0.15310E-05  6612   0.546E-03    0.278E-02
RMM:  18    -0.704891864906E+03   -0.20851E-02   -0.29620E-05  7211   0.600E-03    0.256E-02
RMM:  19    -0.704893262645E+03   -0.13977E-02   -0.18567E-05  6113   0.522E-03    0.258E-02
RMM:  20    -0.704893996931E+03   -0.73429E-03   -0.97132E-06  5437   0.477E-03    0.248E-02
RMM:  21    -0.704894846322E+03   -0.84939E-03   -0.98843E-06  5324   0.410E-03    0.219E-02
RMM:  22    -0.704896123916E+03   -0.12776E-02   -0.21171E-05  6457   0.510E-03    0.153E-02
RMM:  23    -0.704897092717E+03   -0.96880E-03   -0.22778E-05  6264   0.508E-03    0.151E-02
RMM:  24    -0.704897555928E+03   -0.46321E-03   -0.12849E-05  5597   0.481E-03    0.987E-03
RMM:  25    -0.704897830785E+03   -0.27486E-03   -0.83301E-06  4942   0.415E-03    0.651E-03
RMM:  26    -0.704898024780E+03   -0.19400E-03   -0.47113E-06  4230   0.369E-03    0.750E-03
RMM:  27    -0.704898221024E+03   -0.19624E-03   -0.28671E-06  3703   0.334E-03    0.507E-03
RMM:  28    -0.704898463290E+03   -0.24227E-03   -0.23371E-06  3518   0.321E-03    0.489E-03
RMM:  29    -0.704898640393E+03   -0.17710E-03   -0.14451E-06  3138   0.310E-03    0.469E-03
RMM:  30    -0.704898762038E+03   -0.12164E-03   -0.63891E-07  2584   0.294E-03    0.394E-03
RMM:  31    -0.704898942393E+03   -0.18036E-03   -0.66245E-07  2538   0.292E-03    0.313E-03
RMM:  32    -0.704899047610E+03   -0.10522E-03   -0.47993E-07  2412   0.289E-03    0.280E-03
RMM:  33    -0.704899151187E+03   -0.10358E-03   -0.79100E-07  2644   0.293E-03    0.265E-03
RMM:  34    -0.704899204564E+03   -0.53377E-04   -0.66824E-07  2498   0.289E-03
   5 F= -.70489920E+03 E0= -.70428528E+03  d E =0.341189E+00  mag=     7.1797
       N       E                     dE             d eps       ncg     rms          rms(c)
DAV:   1    -0.705073904440E+03   -0.17475E+00   -0.33943E+01 13648   0.892E+00    0.240E+00
RMM:   2    -0.705259816807E+03   -0.18591E+00   -0.97031E-01 13440   0.164E+00    0.490E+00
RMM:   3    -0.705162239943E+03    0.97577E-01   -0.12517E-01 13453   0.731E-01    0.284E+00
RMM:   4    -0.705156045960E+03    0.61940E-02   -0.39406E-02 14478   0.325E-01    0.240E+00
RMM:   5    -0.705143609330E+03    0.12437E-01   -0.27881E-02 13642   0.244E-01    0.285E+00
RMM:   6    -0.705125672351E+03    0.17937E-01   -0.19637E-02 14017   0.196E-01    0.165E+00
RMM:   7    -0.705115221471E+03    0.10451E-01   -0.49301E-03 13320   0.121E-01    0.102E+00
RMM:   8    -0.705111804139E+03    0.34173E-02   -0.41266E-03 13503   0.989E-02    0.602E-01
RMM:   9    -0.705110629684E+03    0.11745E-02   -0.10839E-03 12618   0.604E-02    0.339E-01
RMM:  10    -0.705110150772E+03    0.47891E-03   -0.49945E-04 11160   0.342E-02    0.150E-01
RMM:  11    -0.705110238149E+03   -0.87377E-04   -0.15383E-04  8498   0.201E-02
   6 F= -.70511024E+03 E0= -.70449563E+03  d E =0.130156E+00  mag=     7.1988
       N       E                     dE             d eps       ncg     rms          rms(c)
DAV:   1    -0.705165141644E+03   -0.54991E-01   -0.28656E+00 13984   0.259E+00    0.668E-01
RMM:   2    -0.705188302128E+03   -0.23160E-01   -0.78583E-02 13441   0.466E-01    0.178E+00
RMM:   3    -0.705183349423E+03    0.49527E-02   -0.11559E-02 13446   0.214E-01    0.173E+00
RMM:   4    -0.705168934500E+03    0.14415E-01   -0.30683E-03 13683   0.101E-01    0.382E-01
RMM:   5    -0.705169540898E+03   -0.60640E-03   -0.25259E-03 13151   0.747E-02    0.728E-01
RMM:   6    -0.705167583897E+03    0.19570E-02   -0.91960E-04 12242   0.520E-02    0.323E-01
RMM:   7    -0.705167513145E+03    0.70751E-04   -0.60564E-04 11849   0.382E-02    0.253E-01
RMM:   8    -0.705167469002E+03    0.44143E-04   -0.23670E-04  9238   0.299E-02
   7 F= -.70516747E+03 E0= -.70455280E+03  d E =0.729249E-01  mag=     7.2194
       N       E                     dE             d eps       ncg     rms          rms(c)
DAV:   1    -0.705241541490E+03   -0.74028E-01   -0.22552E+00 13904   0.230E+00    0.568E-01
RMM:   2    -0.705256529039E+03   -0.14988E-01   -0.58290E-02 13440   0.408E-01    0.143E+00
RMM:   3    -0.705254434443E+03    0.20946E-02   -0.85525E-03 13445   0.184E-01    0.141E+00
RMM:   4    -0.705245043005E+03    0.93914E-02   -0.24435E-03 14026   0.856E-02    0.335E-01
RMM:   5    -0.705245682256E+03   -0.63925E-03   -0.16374E-03 12822   0.601E-02    0.652E-01
RMM:   6    -0.705244332951E+03    0.13493E-02   -0.55504E-04 11577   0.407E-02    0.323E-01
RMM:   7    -0.705244258259E+03    0.74693E-04   -0.42164E-04 10979   0.321E-02    0.236E-01
RMM:   8    -0.705244289918E+03   -0.31660E-04   -0.22592E-04  9025   0.274E-02
   8 F= -.70524429E+03 E0= -.70462934E+03  d E =-.389597E-02  mag=     7.2406
       N       E                     dE             d eps       ncg     rms          rms(c)
DAV:   1    -0.705256419758E+03   -0.12161E-01   -0.43923E-01 14144   0.102E+00    0.255E-01
RMM:   2    -0.705259625322E+03   -0.32056E-02   -0.11351E-02 13438   0.181E-01    0.640E-01
RMM:   3    -0.705259413629E+03    0.21169E-03   -0.17231E-03 13143   0.820E-02    0.652E-01
RMM:   4    -0.705257426889E+03    0.19867E-02   -0.47614E-04 10772   0.386E-02    0.179E-01
RMM:   5    -0.705257731893E+03   -0.30500E-03   -0.25971E-04  9183   0.275E-02    0.302E-01
RMM:   6    -0.705257539756E+03    0.19214E-03   -0.10688E-04  7942   0.202E-02    0.147E-01
RMM:   7    -0.705257698336E+03   -0.15858E-03   -0.72785E-05  7805   0.151E-02    0.993E-02
RMM:   8    -0.705257948475E+03   -0.25014E-03   -0.48969E-05  7603   0.131E-02    0.481E-02
RMM:   9    -0.705258050859E+03   -0.10238E-03   -0.14681E-05  6862   0.794E-03    0.230E-02
RMM:  10    -0.705258204527E+03   -0.15367E-03   -0.52187E-06  5335   0.409E-03    0.215E-02
RMM:  11    -0.705258429911E+03   -0.22538E-03   -0.23377E-06  3885   0.322E-03    0.188E-02
RMM:  12    -0.705258832222E+03   -0.40231E-03   -0.71400E-06  5284   0.381E-03    0.138E-02
RMM:  13    -0.705259183189E+03   -0.35097E-03   -0.54911E-06  4853   0.360E-03    0.132E-02
RMM:  14    -0.705259362669E+03   -0.17948E-03   -0.21114E-06  3532   0.319E-03    0.124E-02
RMM:  15    -0.705259658574E+03   -0.29590E-03   -0.29859E-06  3479   0.310E-03    0.129E-02
RMM:  16    -0.705260253619E+03   -0.59504E-03   -0.11978E-05  4976   0.392E-03    0.107E-02
RMM:  17    -0.705260974651E+03   -0.72103E-03   -0.22728E-05  5676   0.451E-03    0.100E-02
RMM:  18    -0.705261207449E+03   -0.23280E-03   -0.84989E-06  4704   0.371E-03    0.693E-03
RMM:  19    -0.705261360443E+03   -0.15299E-03   -0.45354E-06  3948   0.351E-03    0.670E-03
RMM:  20    -0.705261500127E+03   -0.13968E-03   -0.31401E-06  3477   0.321E-03    0.475E-03
RMM:  21    -0.705261611789E+03   -0.11166E-03   -0.21668E-06  3312   0.309E-03    0.402E-03
RMM:  22    -0.705261742327E+03   -0.13054E-03   -0.20485E-06  3186   0.302E-03    0.285E-03
RMM:  23    -0.705261817842E+03   -0.75515E-04   -0.10067E-06  2759   0.293E-03
   9 F= -.70526182E+03 E0= -.70464707E+03  d E =-.214239E-01  mag=     7.3154
       N       E                     dE             d eps       ncg     rms          rms(c)
DAV:   1    -0.705198459765E+03    0.63283E-01   -0.24642E+01 13664   0.754E+00    0.143E+00
RMM:   2    -0.705262816546E+03   -0.64357E-01   -0.48242E-01 13440   0.127E+00    0.343E+00
RMM:   3    -0.705246049980E+03    0.16767E-01   -0.81456E-02 14489   0.503E-01    0.158E+00
RMM:   4    -0.705344708081E+03   -0.98658E-01   -0.24639E-02 13549   0.260E-01    0.487E+00
RMM:   5    -0.705249271340E+03    0.95437E-01   -0.11824E-02 13515   0.204E-01    0.204E+00
RMM:   6    -0.705236036657E+03    0.13235E-01   -0.66760E-03 13411   0.131E-01    0.978E-01
RMM:   7    -0.705235511648E+03    0.52501E-03   -0.44793E-03 13446   0.103E-01    0.698E-01
RMM:   8    -0.705234732335E+03    0.77931E-03   -0.17289E-03 12834   0.759E-02    0.576E-01
RMM:   9    -0.705234311185E+03    0.42115E-03   -0.79020E-04 12420   0.409E-02    0.394E-01
RMM:  10    -0.705234311916E+03   -0.73075E-06   -0.22644E-04  9013   0.248E-02
  10 F= -.70523431E+03 E0= -.70461997E+03  d E =0.275059E-01  mag=     7.2944
       N       E                     dE             d eps       ncg     rms          rms(c)
DAV:   1    -0.705235451212E+03   -0.11400E-02   -0.23424E-01 14128   0.735E-01    0.236E-01
RMM:   2    -0.705242614783E+03   -0.71636E-02   -0.53880E-03 13432   0.131E-01    0.122E+00
RMM:   3    -0.705236905405E+03    0.57094E-02   -0.11764E-03 12974   0.679E-02    0.433E-01
RMM:   4    -0.705236056759E+03    0.84865E-03   -0.32869E-04  9813   0.352E-02    0.140E-01
RMM:   5    -0.705236224477E+03   -0.16772E-03   -0.13469E-04  7941   0.220E-02    0.131E-01
RMM:   6    -0.705236480877E+03   -0.25640E-03   -0.65685E-05  7462   0.145E-02    0.117E-01
RMM:   7    -0.705236681127E+03   -0.20025E-03   -0.44508E-05  7294   0.125E-02    0.596E-02
RMM:   8    -0.705237030154E+03   -0.34903E-03   -0.41567E-05  7163   0.102E-02    0.346E-02
RMM:   9    -0.705237116901E+03   -0.86746E-04   -0.11909E-05  6455   0.737E-03
  11 F= -.70523712E+03 E0= -.70462257E+03  d E =0.247009E-01  mag=     7.2806
       N       E                     dE             d eps       ncg     rms          rms(c)
DAV:   1    -0.705261814978E+03   -0.24785E-01   -0.69108E-01 13888   0.124E+00    0.230E-01
RMM:   2    -0.705263421098E+03   -0.16061E-02   -0.12372E-02 13426   0.200E-01    0.412E-01
RMM:   3    -0.705263280202E+03    0.14090E-03   -0.18882E-03 13433   0.791E-02    0.219E-01
RMM:   4    -0.705264806301E+03   -0.15261E-02   -0.59390E-04 12075   0.410E-02    0.602E-01
RMM:   5    -0.705263287726E+03    0.15186E-02   -0.26940E-04  9250   0.303E-02    0.243E-01
RMM:   6    -0.705263131512E+03    0.15621E-03   -0.15841E-04  8191   0.224E-02    0.103E-01
RMM:   7    -0.705263255461E+03   -0.12395E-03   -0.90005E-05  7819   0.165E-02    0.943E-02
RMM:   8    -0.705263300531E+03   -0.45070E-04   -0.38839E-05  7419   0.130E-02
  12 F= -.70526330E+03 E0= -.70464883E+03  d E =-.261836E-01  mag=     7.2690
       N       E                     dE             d eps       ncg     rms          rms(c)
DAV:   1    -0.705265912240E+03   -0.26568E-02   -0.64426E-02 14112   0.381E-01    0.824E-02
RMM:   2    -0.705266170099E+03   -0.25786E-03   -0.12035E-03 12469   0.624E-02    0.118E-01
RMM:   3    -0.705266278739E+03   -0.10864E-03   -0.20567E-04  8308   0.263E-02    0.192E-01
RMM:   4    -0.705266151972E+03    0.12677E-03   -0.52693E-05  7491   0.159E-02    0.684E-02
RMM:   5    -0.705266212787E+03   -0.60816E-04   -0.25141E-05  7294   0.905E-03    0.915E-02
RMM:   6    -0.705266252598E+03   -0.39811E-04   -0.19714E-05  6953   0.838E-03    0.347E-02
RMM:   7    -0.705266321037E+03   -0.68439E-04   -0.11385E-05  6613   0.647E-03    0.430E-02
RMM:   8    -0.705266352439E+03   -0.31402E-04   -0.42736E-06  5706   0.466E-03
  13 F= -.70526635E+03 E0= -.70465184E+03  d E =-.292355E-01  mag=     7.2590
       N       E                     dE             d eps       ncg     rms          rms(c)
DAV:   1    -0.705293639026E+03   -0.27318E-01   -0.81755E-02 14016   0.461E-01    0.893E-02
RMM:   2    -0.705294190648E+03   -0.55162E-03   -0.19646E-03 13311   0.854E-02    0.318E-01
RMM:   3    -0.705293999054E+03    0.19159E-03   -0.30367E-04  9288   0.328E-02    0.147E-01
RMM:   4    -0.705294342082E+03   -0.34303E-03   -0.91997E-05  7607   0.193E-02    0.296E-01
RMM:   5    -0.705294124410E+03    0.21767E-03   -0.53652E-05  7424   0.142E-02    0.149E-01
RMM:   6    -0.705294167651E+03   -0.43241E-04   -0.22889E-05  7030   0.902E-03    0.100E-01
RMM:   7    -0.705294263059E+03   -0.95407E-04   -0.12530E-05  6726   0.670E-03    0.890E-02
RMM:   8    -0.705294361267E+03   -0.98208E-04   -0.88545E-06  6649   0.578E-03
  14 F= -.70529436E+03 E0= -.70467979E+03  d E =-.280088E-01  mag=     7.2519
       N       E                     dE             d eps       ncg     rms          rms(c)
DAV:   1    -0.705326414509E+03   -0.32151E-01   -0.73773E-01 13920   0.139E+00    0.280E-01
RMM:   2    -0.705328979926E+03   -0.25654E-02   -0.17878E-02 13440   0.257E-01    0.707E-01
RMM:   3    -0.705328543927E+03    0.43600E-03   -0.27073E-03 13915   0.976E-02    0.415E-01
RMM:   4    -0.705333527321E+03   -0.49834E-02   -0.11056E-03 12940   0.534E-02    0.110E+00
RMM:   5    -0.705328672410E+03    0.48549E-02   -0.40039E-04 10931   0.391E-02    0.427E-01
RMM:   6    -0.705328436420E+03    0.23599E-03   -0.21197E-04  8825   0.237E-02    0.299E-01
RMM:   7    -0.705328486358E+03   -0.49937E-04   -0.10202E-04  8022   0.190E-02    0.249E-01
RMM:   8    -0.705328544039E+03   -0.57681E-04   -0.70773E-05  7864   0.158E-02
  15 F= -.70532854E+03 E0= -.70471389E+03  d E =-.621916E-01  mag=     7.2487
       N       E                     dE             d eps       ncg     rms          rms(c)
DAV:   1    -0.705343078235E+03   -0.14592E-01   -0.86058E-02 14096   0.472E-01    0.176E-01
RMM:   2    -0.705343437855E+03   -0.35962E-03   -0.23489E-03 13430   0.924E-02    0.228E-01
RMM:   3    -0.705343328534E+03    0.10932E-03   -0.39014E-04 10715   0.390E-02    0.168E-01
RMM:   4    -0.705343328860E+03   -0.32553E-06   -0.13121E-04  7979   0.230E-02    0.107E-01
RMM:   5    -0.705344289972E+03   -0.96111E-03   -0.14219E-04  7949   0.195E-02    0.451E-01
RMM:   6    -0.705343322311E+03    0.96766E-03   -0.85140E-05  7561   0.189E-02    0.105E-01
RMM:   7    -0.705343294080E+03    0.28232E-04   -0.45514E-05  7310   0.122E-02    0.569E-02
RMM:   8    -0.705343294745E+03   -0.66535E-06   -0.14738E-05  6622   0.789E-03
  16 F= -.70534329E+03 E0= -.70472880E+03  d E =-.147507E-01  mag=     7.2482
       N       E                     dE             d eps       ncg     rms          rms(c)
DAV:   1    -0.705369375555E+03   -0.26081E-01   -0.77261E-01 14000   0.141E+00    0.315E-01
RMM:   2    -0.705373442377E+03   -0.40668E-02   -0.19964E-02 13440   0.270E-01    0.101E+00
RMM:   3    -0.705371400319E+03    0.20421E-02   -0.31997E-03 14007   0.107E-01    0.473E-01
RMM:   4    -0.705376087548E+03   -0.46872E-02   -0.11769E-03 13118   0.569E-02    0.113E+00
RMM:   5    -0.705371602690E+03    0.44849E-02   -0.68751E-04 11947   0.460E-02    0.599E-01
RMM:   6    -0.705370597692E+03    0.10050E-02   -0.33752E-04 10144   0.296E-02    0.343E-01
RMM:   7    -0.705370358072E+03    0.23962E-03   -0.17361E-04  8401   0.238E-02    0.248E-01
RMM:   8    -0.705370253846E+03    0.10423E-03   -0.90800E-05  7861   0.189E-02    0.179E-01
RMM:   9    -0.705370215895E+03    0.37951E-04   -0.43788E-05  7651   0.127E-02
  17 F= -.70537022E+03 E0= -.70475598E+03  d E =-.416719E-01  mag=     7.2520
       N       E                     dE             d eps       ncg     rms          rms(c)
DAV:   1    -0.705371924643E+03   -0.16708E-02   -0.12966E-01 14112   0.577E-01    0.162E-01
RMM:   2    -0.705372398655E+03   -0.47401E-03   -0.33978E-03 13439   0.111E-01    0.279E-01
RMM:   3    -0.705372304306E+03    0.94349E-04   -0.53134E-04 11840   0.440E-02    0.237E-01
RMM:   4    -0.705372166199E+03    0.13811E-03   -0.13124E-04  8026   0.217E-02    0.139E-01
RMM:   5    -0.705372342557E+03   -0.17636E-03   -0.13537E-04  7963   0.196E-02    0.278E-01
RMM:   6    -0.705372102615E+03    0.23994E-03   -0.59782E-05  7444   0.161E-02    0.972E-02
RMM:   7    -0.705372148264E+03   -0.45649E-04   -0.48484E-05  7492   0.113E-02    0.980E-02
RMM:   8    -0.705372119806E+03    0.28458E-04   -0.26755E-05  7200   0.112E-02
  18 F= -.70537212E+03 E0= -.70475789E+03  d E =-.435758E-01  mag=     7.2568
       N       E                     dE             d eps       ncg     rms          rms(c)
DAV:   1    -0.705386230187E+03   -0.14082E-01   -0.22341E-01 14096   0.742E-01    0.135E-01
RMM:   2    -0.705387128286E+03   -0.89810E-03   -0.48065E-03 13431   0.133E-01    0.334E-01
RMM:   3    -0.705386929015E+03    0.19927E-03   -0.81039E-04 12682   0.526E-02    0.220E-01
RMM:   4    -0.705386806242E+03    0.12277E-03   -0.19948E-04  8426   0.254E-02    0.125E-01
RMM:   5    -0.705386865249E+03   -0.59007E-04   -0.81710E-05  7717   0.185E-02    0.162E-01
RMM:   6    -0.705386855291E+03    0.99585E-05   -0.59021E-05  7364   0.132E-02    0.939E-02
RMM:   7    -0.705386891591E+03   -0.36300E-04   -0.46515E-05  7295   0.126E-02    0.660E-02
RMM:   8    -0.705386903330E+03   -0.11739E-04   -0.21913E-05  6822   0.903E-03
  19 F= -.70538690E+03 E0= -.70477280E+03  d E =-.147835E-01  mag=     7.2618
       N       E                     dE             d eps       ncg     rms          rms(c)
DAV:   1    -0.705391942180E+03   -0.50506E-02   -0.32358E-01 13968   0.893E-01    0.160E-01
RMM:   2    -0.705392819992E+03   -0.87781E-03   -0.69217E-03 13437   0.160E-01    0.322E-01
RMM:   3    -0.705392746367E+03    0.73626E-04   -0.11518E-03 13219   0.618E-02    0.180E-01
RMM:   4    -0.705393409552E+03   -0.66319E-03   -0.33099E-04  9517   0.308E-02    0.370E-01
RMM:   5    -0.705392849796E+03    0.55976E-03   -0.18042E-04  8200   0.250E-02    0.221E-01
RMM:   6    -0.705392765668E+03    0.84128E-04   -0.74492E-05  7651   0.168E-02    0.125E-01
RMM:   7    -0.705392770451E+03   -0.47827E-05   -0.43494E-05  7389   0.115E-02    0.692E-02
RMM:   8    -0.705392787885E+03   -0.17434E-04   -0.22246E-05  6957   0.912E-03
  20 F= -.70539279E+03 E0= -.70477885E+03  d E =-.206681E-01  mag=     7.2664
       N       E                     dE             d eps       ncg     rms          rms(c)
DAV:   1    -0.705405932726E+03   -0.13162E-01   -0.13582E-01 14096   0.579E-01    0.984E-02
RMM:   2    -0.705406285630E+03   -0.35290E-03   -0.25990E-03 13336   0.965E-02    0.161E-01
RMM:   3    -0.705406324378E+03   -0.38748E-04   -0.43669E-04 10764   0.382E-02    0.124E-01
RMM:   4    -0.705406368787E+03   -0.44409E-04   -0.10042E-04  7772   0.202E-02    0.130E-01
RMM:   5    -0.705406356479E+03    0.12308E-04   -0.44156E-05  7408   0.135E-02    0.104E-01
RMM:   6    -0.705406367074E+03   -0.10595E-04   -0.26513E-05  7122   0.918E-03    0.495E-02
RMM:   7    -0.705406397898E+03   -0.30824E-04   -0.15452E-05  6820   0.725E-03    0.350E-02
RMM:   8    -0.705406412292E+03   -0.14395E-04   -0.62884E-06  6311   0.534E-03
  21 F= -.70540641E+03 E0= -.70479248E+03  d E =-.136244E-01  mag=     7.2699
       N       E                     dE             d eps       ncg     rms          rms(c)
DAV:   1    -0.705419637082E+03   -0.13239E-01   -0.12232E+00 13888   0.174E+00    0.267E-01
RMM:   2    -0.705422122502E+03   -0.24854E-02   -0.23283E-02 13440   0.289E-01    0.515E-01
RMM:   3    -0.705422187988E+03   -0.65486E-04   -0.38011E-03 13884   0.114E-01    0.259E-01
RMM:   4    -0.705422519228E+03   -0.33124E-03   -0.87495E-04 12766   0.522E-02    0.329E-01
RMM:   5    -0.705422962903E+03   -0.44367E-03   -0.29331E-04  9743   0.304E-02    0.424E-01
RMM:   6    -0.705422354247E+03    0.60866E-03   -0.19592E-04  8595   0.240E-02    0.217E-01
RMM:   7    -0.705422306334E+03    0.47913E-04   -0.13033E-04  8117   0.205E-02    0.121E-01
RMM:   8    -0.705422300899E+03    0.54344E-05   -0.53862E-05  7696   0.146E-02
  22 F= -.70542230E+03 E0= -.70480842E+03  d E =-.295130E-01  mag=     7.2721
       N       E                     dE             d eps       ncg     rms          rms(c)
DAV:   1    -0.705441343508E+03   -0.19037E-01   -0.24987E-01 14032   0.795E-01    0.161E-01
RMM:   2    -0.705441907715E+03   -0.56421E-03   -0.51762E-03 13395   0.139E-01    0.217E-01
RMM:   3    -0.705441950381E+03   -0.42666E-04   -0.84170E-04 12638   0.530E-02    0.144E-01
RMM:   4    -0.705442556335E+03   -0.60595E-03   -0.24702E-04  8761   0.276E-02    0.347E-01
RMM:   5    -0.705442127310E+03    0.42902E-03   -0.14711E-04  7972   0.237E-02    0.200E-01
RMM:   6    -0.705441985117E+03    0.14219E-03   -0.73904E-05  7757   0.174E-02    0.109E-01
RMM:   7    -0.705441954646E+03    0.30471E-04   -0.41525E-05  7532   0.126E-02    0.433E-02
RMM:   8    -0.705441949103E+03    0.55430E-05   -0.13448E-05  6778   0.743E-03
  23 F= -.70544195E+03 E0= -.70482799E+03  d E =-.196482E-01  mag=     7.2716
       N       E                     dE             d eps       ncg     rms          rms(c)
DAV:   1    -0.705451373304E+03   -0.94187E-02   -0.27368E-01 14000   0.832E-01    0.144E-01
RMM:   2    -0.705451961088E+03   -0.58778E-03   -0.56320E-03 13398   0.145E-01    0.270E-01
RMM:   3    -0.705451974779E+03   -0.13691E-04   -0.92012E-04 12778   0.549E-02    0.159E-01
RMM:   4    -0.705453139070E+03   -0.11643E-02   -0.27648E-04  9169   0.285E-02    0.493E-01
RMM:   5    -0.705451936880E+03    0.12022E-02   -0.13769E-04  7910   0.242E-02    0.155E-01
RMM:   6    -0.705451903217E+03    0.33663E-04   -0.74054E-05  7666   0.145E-02    0.971E-02
RMM:   7    -0.705451863637E+03    0.39580E-04   -0.35358E-05  7432   0.116E-02    0.704E-02
RMM:   8    -0.705451849097E+03    0.14541E-04   -0.14215E-05  6888   0.787E-03
  24 F= -.70545185E+03 E0= -.70483794E+03  d E =-.295482E-01  mag=     7.2690
       N       E                     dE             d eps       ncg     rms          rms(c)
DAV:   1    -0.705464663128E+03   -0.12799E-01   -0.89087E-02 14112   0.484E-01    0.945E-02
RMM:   2    -0.705464935361E+03   -0.27223E-03   -0.19333E-03 13281   0.854E-02    0.206E-01
RMM:   3    -0.705464894558E+03    0.40803E-04   -0.29581E-04  9123   0.328E-02    0.105E-01
RMM:   4    -0.705465029511E+03   -0.13495E-03   -0.76049E-05  7551   0.185E-02    0.186E-01
RMM:   5    -0.705464895228E+03    0.13428E-03   -0.36470E-05  7343   0.122E-02    0.928E-02
RMM:   6    -0.705464893677E+03    0.15504E-05   -0.28465E-05  6972   0.925E-03    0.782E-02
RMM:   7    -0.705464873724E+03    0.19954E-04   -0.15854E-05  6768   0.812E-03    0.435E-02
RMM:   8    -0.705464868351E+03    0.53732E-05   -0.68124E-06  6339   0.533E-03
  25 F= -.70546487E+03 E0= -.70485091E+03  d E =-.130193E-01  mag=     7.2657
       N       E                     dE             d eps       ncg     rms          rms(c)
DAV:   1    -0.705470986656E+03   -0.61129E-02   -0.18562E-01 14048   0.699E-01    0.122E-01
RMM:   2    -0.705471508331E+03   -0.52167E-03   -0.40087E-03 13408   0.123E-01    0.257E-01
RMM:   3    -0.705471448728E+03    0.59603E-04   -0.61361E-04 11989   0.467E-02    0.150E-01
RMM:   4    -0.705471771133E+03   -0.32241E-03   -0.14711E-04  7992   0.237E-02    0.265E-01
RMM:   5    -0.705471467471E+03    0.30366E-03   -0.76846E-05  7581   0.184E-02    0.150E-01
RMM:   6    -0.705471444180E+03    0.23291E-04   -0.41301E-05  7202   0.106E-02    0.929E-02
RMM:   7    -0.705471431867E+03    0.12312E-04   -0.25204E-05  7100   0.972E-03    0.731E-02
RMM:   8    -0.705471425004E+03    0.68639E-05   -0.10365E-05  6485   0.669E-03
  26 F= -.70547143E+03 E0= -.70485753E+03  d E =-.195759E-01  mag=     7.2617
       N       E                     dE             d eps       ncg     rms          rms(c)
DAV:   1    -0.705479943770E+03   -0.85119E-02   -0.12278E-01 14048   0.560E-01    0.111E-01
RMM:   2    -0.705480274098E+03   -0.33033E-03   -0.27283E-03 13362   0.102E-01    0.184E-01
RMM:   3    -0.705480316205E+03   -0.42107E-04   -0.44892E-04 10666   0.386E-02    0.130E-01
RMM:   4    -0.705480425756E+03   -0.10955E-03   -0.11666E-04  7880   0.214E-02    0.188E-01
RMM:   5    -0.705480301989E+03    0.12377E-03   -0.54923E-05  7564   0.156E-02    0.105E-01
RMM:   6    -0.705480296280E+03    0.57091E-05   -0.34566E-05  7214   0.105E-02    0.669E-02
RMM:   7    -0.705480294504E+03    0.17757E-05   -0.17701E-05  6789   0.857E-03    0.415E-02
RMM:   8    -0.705480292565E+03    0.19394E-05   -0.70438E-06  6379   0.542E-03
  27 F= -.70548029E+03 E0= -.70486631E+03  d E =-.886756E-02  mag=     7.2587
       N       E                     dE             d eps       ncg     rms          rms(c)
DAV:   1    -0.705481585553E+03   -0.12910E-02   -0.48342E-02 14144   0.351E-01    0.604E-02
RMM:   2    -0.705481722670E+03   -0.13712E-03   -0.10749E-03 12578   0.638E-02    0.106E-01
RMM:   3    -0.705481723176E+03   -0.50521E-06   -0.17841E-04  8006   0.244E-02    0.607E-02
RMM:   4    -0.705481823211E+03   -0.10004E-03   -0.43783E-05  7453   0.144E-02    0.141E-01
RMM:   5    -0.705481739876E+03    0.83335E-04   -0.18444E-05  7070   0.867E-03    0.632E-02
RMM:   6    -0.705481742496E+03   -0.26208E-05   -0.88769E-06  6412   0.562E-03    0.415E-02
RMM:   7    -0.705481756416E+03   -0.13920E-04   -0.53683E-06  6088   0.444E-03    0.343E-02
RMM:   8    -0.705481759428E+03   -0.30120E-05   -0.22749E-06  4670   0.357E-03
  28 F= -.70548176E+03 E0= -.70486776E+03  d E =-.103344E-01  mag=     7.2562
       N       E                     dE             d eps       ncg     rms          rms(c)
DAV:   1    -0.705485897854E+03   -0.41414E-02   -0.31816E-02 14080   0.280E-01    0.511E-02
RMM:   2    -0.705485954878E+03   -0.57025E-04   -0.65123E-04 11572   0.489E-02    0.883E-02
RMM:   3    -0.705485955443E+03   -0.56515E-06   -0.10730E-04  7432   0.204E-02    0.273E-02
RMM:   4    -0.705485960352E+03   -0.49083E-05   -0.25638E-05  7208   0.115E-02    0.499E-02
RMM:   5    -0.705485968589E+03   -0.82374E-05   -0.98425E-06  6708   0.594E-03    0.614E-02
RMM:   6    -0.705485959714E+03    0.88748E-05   -0.51037E-06  5673   0.456E-03    0.395E-02
RMM:   7    -0.705485957533E+03    0.21812E-05   -0.30685E-06  4965   0.375E-03    0.279E-02
RMM:   8    -0.705485960260E+03   -0.27272E-05   -0.10749E-06  3463   0.320E-03
  29 F= -.70548596E+03 E0= -.70487191E+03  d E =-.420083E-02  mag=     7.2542
       N       E                     dE             d eps       ncg     rms          rms(c)
DAV:   1    -0.705488292014E+03   -0.23345E-02   -0.79400E-02 13856   0.443E-01    0.799E-02
RMM:   2    -0.705488463813E+03   -0.17180E-03   -0.16121E-03 13168   0.770E-02    0.162E-01
RMM:   3    -0.705488443668E+03    0.20144E-04   -0.28265E-04  9069   0.304E-02    0.784E-02
RMM:   4    -0.705488684225E+03   -0.24056E-03   -0.74213E-05  7517   0.181E-02    0.228E-01
RMM:   5    -0.705488460515E+03    0.22371E-03   -0.31899E-05  7292   0.117E-02    0.105E-01
RMM:   6    -0.705488431292E+03    0.29223E-04   -0.21114E-05  6881   0.773E-03    0.507E-02
RMM:   7    -0.705488431070E+03    0.22232E-06   -0.11989E-05  6663   0.650E-03    0.442E-02
RMM:   8    -0.705488432724E+03   -0.16540E-05   -0.42676E-06  5965   0.467E-03
  30 F= -.70548843E+03 E0= -.70487436E+03  d E =-.667330E-02  mag=     7.2524
       N       E                     dE             d eps       ncg     rms          rms(c)
DAV:   1    -0.705491075566E+03   -0.26445E-02   -0.38235E-02 13904   0.297E-01    0.618E-02
RMM:   2    -0.705491172215E+03   -0.96649E-04   -0.82909E-04 12504   0.556E-02    0.111E-01
RMM:   3    -0.705491173623E+03   -0.14077E-05   -0.14854E-04  7676   0.224E-02    0.673E-02
RMM:   4    -0.705491206401E+03   -0.32779E-04   -0.35910E-05  7299   0.137E-02    0.935E-02
RMM:   5    -0.705491184935E+03    0.21466E-04   -0.20144E-05  7082   0.818E-03    0.806E-02
RMM:   6    -0.705491170805E+03    0.14130E-04   -0.10144E-05  6451   0.651E-03    0.469E-02
RMM:   7    -0.705491171224E+03   -0.41922E-06   -0.60601E-06  6152   0.486E-03    0.268E-02
RMM:   8    -0.705491173672E+03   -0.24483E-05   -0.25794E-06  4893   0.371E-03
  31 F= -.70549117E+03 E0= -.70487708E+03  d E =-.274095E-02  mag=     7.2505
       N       E                     dE             d eps       ncg     rms          rms(c)
DAV:   1    -0.705491410794E+03   -0.23957E-03   -0.65528E-03 13920   0.123E-01    0.276E-02
RMM:   2    -0.705491458506E+03   -0.47712E-04   -0.15204E-04  7533   0.235E-02    0.942E-02
RMM:   3    -0.705491431666E+03    0.26839E-04   -0.23887E-05  7169   0.112E-02    0.291E-02
RMM:   4    -0.705491442508E+03   -0.10842E-04   -0.67660E-06  6495   0.524E-03    0.490E-02
RMM:   5    -0.705491441369E+03    0.11391E-05   -0.42057E-06  5949   0.446E-03    0.385E-02
RMM:   6    -0.705491443444E+03   -0.20744E-05   -0.99234E-07  3438   0.308E-03    0.239E-02
RMM:   7    -0.705491448288E+03   -0.48446E-05   -0.24937E-07  2069   0.280E-03    0.183E-02
RMM:   8    -0.705491453972E+03   -0.56840E-05   -0.30128E-07  2102   0.276E-03
  32 F= -.70549145E+03 E0= -.70487742E+03  d E =-.302125E-02  mag=     7.2489
       N       E                     dE             d eps       ncg     rms          rms(c)
DAV:   1    -0.705494025888E+03   -0.25776E-02   -0.19003E-02 14096   0.199E-01    0.410E-02
RMM:   2    -0.705494142455E+03   -0.11657E-03   -0.38167E-04  9583   0.370E-02    0.131E-01
RMM:   3    -0.705494080030E+03    0.62425E-04   -0.68991E-05  7309   0.172E-02    0.473E-02
RMM:   4    -0.705494085735E+03   -0.57051E-05   -0.17658E-05  7052   0.893E-03    0.449E-02
RMM:   5    -0.705494100742E+03   -0.15006E-04   -0.93373E-06  6546   0.589E-03    0.525E-02
RMM:   6    -0.705494103472E+03   -0.27303E-05   -0.48169E-06  5995   0.444E-03    0.305E-02
RMM:   7    -0.705494111608E+03   -0.81363E-05   -0.25063E-06  4829   0.356E-03    0.226E-02
RMM:   8    -0.705494115829E+03   -0.42208E-05   -0.82968E-07  3117   0.307E-03
  33 F= -.70549412E+03 E0= -.70488010E+03  d E =-.266186E-02  mag=     7.2481
       N       E                     dE             d eps       ncg     rms          rms(c)
DAV:   1    -0.705500656676E+03   -0.65451E-02   -0.17060E-01 13760   0.595E-01    0.120E-01
RMM:   2    -0.705501073599E+03   -0.41692E-03   -0.33338E-03 13439   0.111E-01    0.225E-01
RMM:   3    -0.705501085297E+03   -0.11698E-04   -0.67115E-04 12521   0.452E-02    0.150E-01
RMM:   4    -0.705501247559E+03   -0.16226E-03   -0.16026E-04  8130   0.226E-02    0.231E-01
RMM:   5    -0.705501049839E+03    0.19772E-03   -0.85197E-05  7676   0.192E-02    0.132E-01
RMM:   6    -0.705501016099E+03    0.33740E-04   -0.49763E-05  7360   0.121E-02    0.618E-02
RMM:   7    -0.705501016078E+03    0.20547E-07   -0.29635E-05  7277   0.102E-02    0.465E-02
RMM:   8    -0.705501010948E+03    0.51298E-05   -0.13469E-05  6678   0.742E-03
  34 F= -.70550101E+03 E0= -.70488708E+03  d E =-.955698E-02  mag=     7.2484
       N       E                     dE             d eps       ncg     rms          rms(c)
DAV:   1    -0.705501801261E+03   -0.78518E-03   -0.68072E-01 13968   0.119E+00    0.238E-01
RMM:   2    -0.705503621890E+03   -0.18206E-02   -0.13352E-02 13440   0.221E-01    0.480E-01
RMM:   3    -0.705503489236E+03    0.13265E-03   -0.27468E-03 14628   0.900E-02    0.308E-01
RMM:   4    -0.705504026435E+03   -0.53720E-03   -0.64896E-04 12468   0.426E-02    0.443E-01
RMM:   5    -0.705503267078E+03    0.75936E-03   -0.29894E-04  9657   0.314E-02    0.257E-01
RMM:   6    -0.705503071203E+03    0.19587E-03   -0.19375E-04  8456   0.240E-02    0.112E-01
RMM:   7    -0.705503039747E+03    0.31456E-04   -0.11414E-04  7968   0.187E-02    0.898E-02
RMM:   8    -0.705503018679E+03    0.21069E-04   -0.44297E-05  7554   0.137E-02
  35 F= -.70550302E+03 E0= -.70488931E+03  d E =-.115647E-01  mag=     7.2506
       N       E                     dE             d eps       ncg     rms          rms(c)
DAV:   1    -0.705504260709E+03   -0.12210E-02   -0.92706E-02 14080   0.438E-01    0.882E-02
RMM:   2    -0.705504712581E+03   -0.45187E-03   -0.18152E-03 13399   0.814E-02    0.267E-01
RMM:   3    -0.705504482447E+03    0.23013E-03   -0.34419E-04  9775   0.337E-02    0.127E-01
RMM:   4    -0.705504493659E+03   -0.11212E-04   -0.89873E-05  7493   0.197E-02    0.130E-01
RMM:   5    -0.705504474104E+03    0.19555E-04   -0.47101E-05  7285   0.129E-02    0.887E-02
RMM:   6    -0.705504461308E+03    0.12796E-04   -0.31976E-05  7145   0.970E-03    0.565E-02
RMM:   7    -0.705504468363E+03   -0.70551E-05   -0.18155E-05  6730   0.842E-03    0.288E-02
RMM:   8    -0.705504475428E+03   -0.70648E-05   -0.86501E-06  6357   0.554E-03
  36 F= -.70550448E+03 E0= -.70489066E+03  d E =-.130215E-01  mag=     7.2518
       N       E                     dE             d eps       ncg     rms          rms(c)
DAV:   1    -0.705507593286E+03   -0.31249E-02   -0.30309E-02 14048   0.264E-01    0.447E-02
RMM:   2    -0.705507722555E+03   -0.12927E-03   -0.57606E-04 11669   0.467E-02    0.134E-01
RMM:   3    -0.705507664125E+03    0.58430E-04   -0.10524E-04  7360   0.197E-02    0.559E-02
RMM:   4    -0.705507671180E+03   -0.70550E-05   -0.26657E-05  7180   0.118E-02    0.643E-02
RMM:   5    -0.705507660971E+03    0.10209E-04   -0.91260E-06  6737   0.610E-03    0.395E-02
RMM:   6    -0.705507659429E+03    0.15418E-05   -0.73523E-06  6264   0.477E-03    0.287E-02
RMM:   7    -0.705507659943E+03   -0.51387E-06   -0.44394E-06  5968   0.436E-03    0.168E-02
RMM:   8    -0.705507662150E+03   -0.22073E-05   -0.10466E-06  3200   0.308E-03
  37 F= -.70550766E+03 E0= -.70489389E+03  d E =-.318672E-02  mag=     7.2530
       N       E                     dE             d eps       ncg     rms          rms(c)
DAV:   1    -0.705511060105E+03   -0.34002E-02   -0.27216E-01 13888   0.792E-01    0.131E-01
RMM:   2    -0.705511593041E+03   -0.53294E-03   -0.50951E-03 13440   0.139E-01    0.206E-01
RMM:   3    -0.705511645104E+03   -0.52063E-04   -0.96754E-04 13254   0.553E-02    0.133E-01
RMM:   4    -0.705512091673E+03   -0.44657E-03   -0.22886E-04  8517   0.271E-02    0.327E-01
RMM:   5    -0.705511629004E+03    0.46267E-03   -0.93792E-05  7839   0.216E-02    0.142E-01
RMM:   6    -0.705511573052E+03    0.55952E-04   -0.66343E-05  7580   0.138E-02    0.746E-02
RMM:   7    -0.705511560372E+03    0.12680E-04   -0.41376E-05  7410   0.118E-02    0.504E-02
RMM:   8    -0.705511549833E+03    0.10539E-04   -0.17206E-05  6826   0.854E-03
  38 F= -.70551155E+03 E0= -.70489789E+03  d E =-.707441E-02  mag=     7.2550
       N       E                     dE             d eps       ncg     rms          rms(c)
DAV:   1    -0.705516829795E+03   -0.52694E-02   -0.77138E-02 14160   0.444E-01    0.776E-02
RMM:   2    -0.705517032293E+03   -0.20250E-03   -0.15898E-03 13387   0.795E-02    0.164E-01
RMM:   3    -0.705517013978E+03    0.18316E-04   -0.27952E-04  9010   0.308E-02    0.873E-02
RMM:   4    -0.705517194418E+03   -0.18044E-03   -0.71972E-05  7602   0.180E-02    0.188E-01
RMM:   5    -0.705517018341E+03    0.17608E-03   -0.23215E-05  7334   0.103E-02    0.674E-02
RMM:   6    -0.705517031801E+03   -0.13460E-04   -0.13917E-05  6865   0.634E-03    0.793E-02
RMM:   7    -0.705517039096E+03   -0.72955E-05   -0.60839E-06  6233   0.531E-03    0.657E-02
RMM:   8    -0.705517049291E+03   -0.10195E-04   -0.71787E-06  6551   0.459E-03
  39 F= -.70551705E+03 E0= -.70490352E+03  d E =-.549946E-02  mag=     7.2562
       N       E                     dE             d eps       ncg     rms          rms(c)
DAV:   1    -0.705519268028E+03   -0.22289E-02   -0.31778E-01 13856   0.901E-01    0.158E-01
RMM:   2    -0.705520018330E+03   -0.75030E-03   -0.65050E-03 13440   0.161E-01    0.320E-01
RMM:   3    -0.705520024576E+03   -0.62456E-05   -0.11672E-03 13356   0.621E-02    0.226E-01
RMM:   4    -0.705521514332E+03   -0.14898E-02   -0.32558E-04 10232   0.329E-02    0.547E-01
RMM:   5    -0.705520005124E+03    0.15092E-02   -0.15590E-04  8112   0.256E-02    0.190E-01
RMM:   6    -0.705520003505E+03    0.16191E-05   -0.87721E-05  7831   0.168E-02    0.157E-01
RMM:   7    -0.705520002154E+03    0.13511E-05   -0.45043E-05  7579   0.128E-02    0.112E-01
RMM:   8    -0.705520018137E+03   -0.15983E-04   -0.30464E-05  7340   0.101E-02
  40 F= -.70552002E+03 E0= -.70490668E+03  d E =-.846830E-02  mag=     7.2564
       N       E                     dE             d eps       ncg     rms          rms(c)
DAV:   1    -0.705520491731E+03   -0.48958E-03   -0.34021E-02 14048   0.295E-01    0.785E-02
RMM:   2    -0.705520686678E+03   -0.19495E-03   -0.71451E-04 12696   0.536E-02    0.178E-01
RMM:   3    -0.705520711569E+03   -0.24891E-04   -0.14452E-04  7393   0.247E-02    0.174E-01
RMM:   4    -0.705520559148E+03    0.15242E-03   -0.37338E-05  7195   0.141E-02    0.443E-02
RMM:   5    -0.705520559329E+03   -0.18095E-06   -0.12485E-05  6885   0.677E-03    0.297E-02
RMM:   6    -0.705520563964E+03   -0.46347E-05   -0.91067E-06  6452   0.581E-03    0.334E-02
RMM:   7    -0.705520570864E+03   -0.69006E-05   -0.95678E-06  6837   0.565E-03    0.370E-02
RMM:   8    -0.705520564376E+03    0.64882E-05   -0.31801E-06  5486   0.404E-03
  41 F= -.70552056E+03 E0= -.70490716E+03  d E =-.901454E-02  mag=     7.2569
       N       E                     dE             d eps       ncg     rms          rms(c)
DAV:   1    -0.705524985179E+03   -0.44143E-02   -0.44846E-02 13904   0.332E-01    0.625E-02
RMM:   2    -0.705525117244E+03   -0.13207E-03   -0.93609E-04 12948   0.608E-02    0.156E-01
RMM:   3    -0.705525076298E+03    0.40946E-04   -0.16116E-04  7719   0.239E-02    0.657E-02
RMM:   4    -0.705525223227E+03   -0.14693E-03   -0.50357E-05  7314   0.147E-02    0.184E-01
RMM:   5    -0.705525070019E+03    0.15321E-03   -0.20874E-05  7051   0.921E-03    0.577E-02
RMM:   6    -0.705525074997E+03   -0.49783E-05   -0.96215E-06  6570   0.584E-03    0.560E-02
RMM:   7    -0.705525077712E+03   -0.27151E-05   -0.49232E-06  6057   0.465E-03    0.508E-02
RMM:   8    -0.705525078130E+03   -0.41756E-06   -0.31909E-06  5116   0.372E-03
  42 F= -.70552508E+03 E0= -.70491172E+03  d E =-.451375E-02  mag=     7.2573
       N       E                     dE             d eps       ncg     rms          rms(c)
DAV:   1    -0.705531036744E+03   -0.59590E-02   -0.40294E-01 13584   0.996E-01    0.190E-01
RMM:   2    -0.705532163678E+03   -0.11269E-02   -0.83898E-03 13440   0.182E-01    0.443E-01
RMM:   3    -0.705531946391E+03    0.21729E-03   -0.15443E-03 13829   0.705E-02    0.264E-01
RMM:   4    -0.705532053586E+03   -0.10719E-03   -0.39897E-04 10586   0.361E-02    0.282E-01
RMM:   5    -0.705531986487E+03    0.67099E-04   -0.16831E-04  8246   0.264E-02    0.226E-01
RMM:   6    -0.705531996002E+03   -0.95154E-05   -0.77423E-05  7898   0.160E-02    0.226E-01
RMM:   7    -0.705531858488E+03    0.13751E-03   -0.52328E-05  7687   0.130E-02    0.109E-01
RMM:   8    -0.705531865744E+03   -0.72561E-05   -0.33431E-05  7426   0.105E-02
  43 F= -.70553187E+03 E0= -.70491886E+03  d E =-.113014E-01  mag=     7.2577
       N       E                     dE             d eps       ncg     rms          rms(c)
DAV:   1    -0.705537660752E+03   -0.58023E-02   -0.36629E-02 14144   0.308E-01    0.868E-02
RMM:   2    -0.705537831417E+03   -0.17067E-03   -0.83437E-04 13056   0.564E-02    0.162E-01
RMM:   3    -0.705537778262E+03    0.53155E-04   -0.15825E-04  7652   0.254E-02    0.114E-01
RMM:   4    -0.705537864556E+03   -0.86294E-04   -0.60238E-05  7367   0.152E-02    0.177E-01
RMM:   5    -0.705537728215E+03    0.13634E-03   -0.23229E-05  7186   0.993E-03    0.657E-02
RMM:   6    -0.705537717069E+03    0.11146E-04   -0.19059E-05  7027   0.775E-03    0.540E-02
RMM:   7    -0.705537699345E+03    0.17724E-04   -0.14897E-05  6648   0.779E-03    0.294E-02
RMM:   8    -0.705537688269E+03    0.11076E-04   -0.39733E-06  5735   0.450E-03
  44 F= -.70553769E+03 E0= -.70492461E+03  d E =-.582252E-02  mag=     7.2591
       N       E                     dE             d eps       ncg     rms          rms(c)
DAV:   1    -0.705542600663E+03   -0.49013E-02   -0.15318E-01 13952   0.629E-01    0.114E-01
RMM:   2    -0.705543036541E+03   -0.43588E-03   -0.32193E-03 13440   0.111E-01    0.275E-01
RMM:   3    -0.705542878069E+03    0.15847E-03   -0.50420E-04 12103   0.448E-02    0.101E-01
RMM:   4    -0.705543324766E+03   -0.44670E-03   -0.18660E-04  8338   0.235E-02    0.326E-01
RMM:   5    -0.705542867158E+03    0.45761E-03   -0.66120E-05  7521   0.177E-02    0.130E-01
RMM:   6    -0.705542800075E+03    0.67083E-04   -0.41548E-05  7234   0.104E-02    0.840E-02
RMM:   7    -0.705542772046E+03    0.28030E-04   -0.20980E-05  7032   0.921E-03    0.545E-02
RMM:   8    -0.705542747207E+03    0.24838E-04   -0.12090E-05  6828   0.635E-03
  45 F= -.70554275E+03 E0= -.70492969E+03  d E =-.108815E-01  mag=     7.2619
       N       E                     dE             d eps       ncg     rms          rms(c)
DAV:   1    -0.705547057691E+03   -0.42856E-02   -0.18450E-02 14160   0.213E-01    0.469E-02
RMM:   2    -0.705547108781E+03   -0.51090E-04   -0.36881E-04  9260   0.366E-02    0.821E-02
RMM:   3    -0.705547135956E+03   -0.27175E-04   -0.65410E-05  7286   0.178E-02    0.102E-01
RMM:   4    -0.705547089174E+03    0.46782E-04   -0.16553E-05  7146   0.879E-03    0.313E-02
RMM:   5    -0.705547091755E+03   -0.25809E-05   -0.74435E-06  6525   0.543E-03    0.351E-02
RMM:   6    -0.705547090685E+03    0.10703E-05   -0.52202E-06  5977   0.468E-03    0.295E-02
RMM:   7    -0.705547089702E+03    0.98247E-06   -0.33839E-06  5550   0.406E-03    0.184E-02
RMM:   8    -0.705547093541E+03   -0.38389E-05   -0.47351E-07  2524   0.282E-03
  46 F= -.70554709E+03 E0= -.70493408E+03  d E =-.434633E-02  mag=     7.2645
       N       E                     dE             d eps       ncg     rms          rms(c)
DAV:   1    -0.705555329390E+03   -0.82397E-02   -0.16595E-01 13904   0.639E-01    0.124E-01
RMM:   2    -0.705555757003E+03   -0.42761E-03   -0.31889E-03 13439   0.109E-01    0.222E-01
RMM:   3    -0.705555642055E+03    0.11495E-03   -0.53599E-04 12272   0.460E-02    0.117E-01
RMM:   4    -0.705555768389E+03   -0.12633E-03   -0.17681E-04  8263   0.239E-02    0.180E-01
RMM:   5    -0.705555655195E+03    0.11319E-03   -0.73077E-05  7548   0.176E-02    0.124E-01
RMM:   6    -0.705555597204E+03    0.57990E-04   -0.40845E-05  7251   0.110E-02    0.563E-02
RMM:   7    -0.705555594461E+03    0.27439E-05   -0.24188E-05  7238   0.927E-03    0.513E-02
RMM:   8    -0.705555580007E+03    0.14453E-04   -0.12797E-05  6613   0.730E-03
  47 F= -.70555558E+03 E0= -.70494263E+03  d E =-.128328E-01  mag=     7.2675
       N       E                     dE             d eps       ncg     rms          rms(c)
DAV:   1    -0.705548972833E+03    0.66216E-02   -0.66496E-01 13728   0.128E+00    0.239E-01
RMM:   2    -0.705550656240E+03   -0.16834E-02   -0.12767E-02 13440   0.218E-01    0.449E-01
RMM:   3    -0.705550315755E+03    0.34049E-03   -0.21463E-03 13545   0.912E-02    0.239E-01
RMM:   4    -0.705551223610E+03   -0.90785E-03   -0.79900E-04 12878   0.468E-02    0.473E-01
RMM:   5    -0.705550140789E+03    0.10828E-02   -0.22678E-04  8750   0.280E-02    0.161E-01
RMM:   6    -0.705550050933E+03    0.89857E-04   -0.15946E-04  8262   0.228E-02    0.112E-01
RMM:   7    -0.705550030991E+03    0.19942E-04   -0.95162E-05  7837   0.186E-02    0.912E-02
RMM:   8    -0.705549997819E+03    0.33171E-04   -0.42124E-05  7598   0.133E-02
  48 F= -.70555000E+03 E0= -.70493714E+03  d E =-.725061E-02  mag=     7.2716
       N       E                     dE             d eps       ncg     rms          rms(c)
DAV:   1    -0.705556221916E+03   -0.61909E-02   -0.31359E-01 13888   0.878E-01    0.165E-01
RMM:   2    -0.705557181212E+03   -0.95930E-03   -0.60166E-03 13440   0.150E-01    0.374E-01
RMM:   3    -0.705556988020E+03    0.19319E-03   -0.10089E-03 13101   0.637E-02    0.213E-01
RMM:   4    -0.705557146149E+03   -0.15813E-03   -0.37299E-04 10331   0.321E-02    0.273E-01
RMM:   5    -0.705556824999E+03    0.32115E-03   -0.11096E-04  7839   0.218E-02    0.113E-01
RMM:   6    -0.705556883250E+03   -0.58251E-04   -0.82398E-05  7509   0.156E-02    0.102E-01
RMM:   7    -0.705556895428E+03   -0.12178E-04   -0.49769E-05  7379   0.139E-02    0.744E-02
RMM:   8    -0.705556918766E+03   -0.23338E-04   -0.27736E-05  7163   0.988E-03
  49 F= -.70555692E+03 E0= -.70494410E+03  d E =-.141716E-01  mag=     7.2741
       N       E                     dE             d eps       ncg     rms          rms(c)
DAV:   1    -0.705563852706E+03   -0.69573E-02   -0.40221E-02 14080   0.316E-01    0.650E-02
RMM:   2    -0.705564109793E+03   -0.25709E-03   -0.80854E-04 12932   0.571E-02    0.197E-01
RMM:   3    -0.705563991125E+03    0.11867E-03   -0.15435E-04  7577   0.237E-02    0.960E-02
RMM:   4    -0.705563973171E+03    0.17955E-04   -0.38991E-05  7299   0.148E-02    0.595E-02
RMM:   5    -0.705563987937E+03   -0.14766E-04   -0.15092E-05  7039   0.735E-03    0.559E-02
RMM:   6    -0.705564012205E+03   -0.24268E-04   -0.16095E-05  6838   0.721E-03    0.596E-02
RMM:   7    -0.705564012815E+03   -0.60986E-06   -0.99039E-06  6495   0.677E-03    0.203E-02
RMM:   8    -0.705564019595E+03   -0.67801E-05   -0.31384E-06  5319   0.383E-03
  50 F= -.70556402E+03 E0= -.70495112E+03  d E =-.710083E-02  mag=     7.2758
       N       E                     dE             d eps       ncg     rms          rms(c)
DAV:   1    -0.705570084945E+03   -0.60721E-02   -0.29416E-01 13792   0.854E-01    0.153E-01
RMM:   2    -0.705570737551E+03   -0.65261E-03   -0.56758E-03 13440   0.152E-01    0.288E-01
RMM:   3    -0.705570710208E+03    0.27343E-04   -0.10919E-03 13513   0.599E-02    0.147E-01
RMM:   4    -0.705571259526E+03   -0.54932E-03   -0.26853E-04  9082   0.299E-02    0.345E-01
RMM:   5    -0.705570886540E+03    0.37299E-03   -0.11716E-04  7945   0.225E-02    0.217E-01
RMM:   6    -0.705570756670E+03    0.12987E-03   -0.84524E-05  7774   0.158E-02    0.115E-01
RMM:   7    -0.705570746900E+03    0.97703E-05   -0.49225E-05  7473   0.134E-02    0.436E-02
RMM:   8    -0.705570749149E+03   -0.22489E-05   -0.17879E-05  7015   0.876E-03
  51 F= -.70557075E+03 E0= -.70495786E+03  d E =-.138304E-01  mag=     7.2773
       N       E                     dE             d eps       ncg     rms          rms(c)
DAV:   1    -0.705576931801E+03   -0.61849E-02   -0.89399E-02 13984   0.473E-01    0.911E-02
RMM:   2    -0.705577414794E+03   -0.48299E-03   -0.18618E-03 13399   0.833E-02    0.275E-01
RMM:   3    -0.705577152342E+03    0.26245E-03   -0.32372E-04  9518   0.333E-02    0.109E-01
RMM:   4    -0.705577201166E+03   -0.48825E-04   -0.81438E-05  7600   0.197E-02    0.139E-01
RMM:   5    -0.705577163383E+03    0.37784E-04   -0.35482E-05  7307   0.117E-02    0.106E-01
RMM:   6    -0.705577122687E+03    0.40696E-04   -0.21041E-05  7112   0.848E-03    0.618E-02
RMM:   7    -0.705577110759E+03    0.11928E-04   -0.14394E-05  6713   0.729E-03    0.339E-02
RMM:   8    -0.705577101889E+03    0.88703E-05   -0.64095E-06  6262   0.525E-03
  52 F= -.70557710E+03 E0= -.70496426E+03  d E =-.635274E-02  mag=     7.2795
       N       E                     dE             d eps       ncg     rms          rms(c)
DAV:   1    -0.705577338428E+03   -0.22767E-03   -0.54158E-03 14016   0.116E-01    0.252E-02
RMM:   2    -0.705577352106E+03   -0.13678E-04   -0.11899E-04  7399   0.207E-02    0.363E-02
RMM:   3    -0.705577353215E+03   -0.11091E-05   -0.16684E-05  7101   0.954E-03    0.264E-02
RMM:   4    -0.705577368641E+03   -0.15426E-04   -0.62388E-06  6396   0.471E-03    0.617E-02
RMM:   5    -0.705577354026E+03    0.14615E-04   -0.26619E-06  5527   0.395E-03    0.261E-02
RMM:   6    -0.705577351955E+03    0.20716E-05   -0.25396E-07  2377   0.261E-03    0.103E-02
RMM:   7    -0.705577354556E+03   -0.26012E-05   -0.15122E-07  1987   0.264E-03    0.921E-03
RMM:   8    -0.705577356029E+03   -0.14729E-05   -0.20340E-08  1545   0.254E-03
  53 F= -.70557736E+03 E0= -.70496450E+03  d E =-.660688E-02  mag=     7.2815
       N       E                     dE             d eps       ncg     rms          rms(c)
DAV:   1    -0.705584697326E+03   -0.73428E-02   -0.53673E-02 13856   0.368E-01    0.687E-02
RMM:   2    -0.705584853289E+03   -0.15596E-03   -0.11125E-03 13182   0.634E-02    0.136E-01
RMM:   3    -0.705584843766E+03    0.95229E-05   -0.17915E-04  7730   0.252E-02    0.958E-02
RMM:   4    -0.705584878988E+03   -0.35221E-04   -0.53967E-05  7299   0.162E-02    0.127E-01
RMM:   5    -0.705584827073E+03    0.51914E-04   -0.22013E-05  7115   0.914E-03    0.705E-02
RMM:   6    -0.705584822091E+03    0.49822E-05   -0.10731E-05  6570   0.665E-03    0.345E-02
RMM:   7    -0.705584835917E+03   -0.13826E-04   -0.74986E-06  6532   0.512E-03    0.345E-02
RMM:   8    -0.705584838146E+03   -0.22285E-05   -0.32796E-06  5485   0.427E-03
  54 F= -.70558484E+03 E0= -.70497203E+03  d E =-.748212E-02  mag=     7.2826
       N       E                     dE             d eps       ncg     rms          rms(c)
DAV:   1    -0.705590747924E+03   -0.59120E-02   -0.48324E-01 13536   0.110E+00    0.207E-01
RMM:   2    -0.705591914169E+03   -0.11662E-02   -0.10006E-02 13440   0.190E-01    0.343E-01
RMM:   3    -0.705591974548E+03   -0.60380E-04   -0.15736E-03 13805   0.748E-02    0.250E-01
RMM:   4    -0.705592678809E+03   -0.70426E-03   -0.46694E-04 11744   0.389E-02    0.443E-01
RMM:   5    -0.705591871048E+03    0.80776E-03   -0.20810E-04  8577   0.276E-02    0.223E-01
RMM:   6    -0.705591767611E+03    0.10344E-03   -0.10780E-04  7927   0.211E-02    0.101E-01
RMM:   7    -0.705591806047E+03   -0.38436E-04   -0.73671E-05  7788   0.154E-02    0.102E-01
RMM:   8    -0.705591760749E+03    0.45298E-04   -0.34606E-05  7408   0.128E-02
  55 F= -.70559176E+03 E0= -.70497915E+03  d E =-.144047E-01  mag=     7.2826
       N       E                     dE             d eps       ncg     rms          rms(c)
DAV:   1    -0.705592058831E+03   -0.25278E-03   -0.15449E-02 14096   0.198E-01    0.423E-02
RMM:   2    -0.705592146652E+03   -0.87821E-04   -0.33728E-04  8545   0.345E-02    0.122E-01
RMM:   3    -0.705592118674E+03    0.27978E-04   -0.53758E-05  7227   0.167E-02    0.779E-02
RMM:   4    -0.705592100013E+03    0.18661E-04   -0.14604E-05  7080   0.788E-03    0.495E-02
RMM:   5    -0.705592097917E+03    0.20961E-05   -0.73503E-06  6423   0.545E-03    0.306E-02
RMM:   6    -0.705592102118E+03   -0.42010E-05   -0.42106E-06  5659   0.413E-03    0.248E-02
RMM:   7    -0.705592104255E+03   -0.21372E-05   -0.24193E-06  4925   0.373E-03    0.128E-02
RMM:   8    -0.705592107586E+03   -0.33304E-05   -0.49225E-07  2091   0.277E-03
  56 F= -.70559211E+03 E0= -.70497948E+03  d E =-.147516E-01  mag=     7.2826
       N       E                     dE             d eps       ncg     rms          rms(c)
DAV:   1    -0.705597263429E+03   -0.51592E-02   -0.27927E-02 14016   0.259E-01    0.615E-02
RMM:   2    -0.705597346243E+03   -0.82815E-04   -0.60235E-04 10939   0.446E-02    0.983E-02
RMM:   3    -0.705597340264E+03    0.59797E-05   -0.96745E-05  7268   0.197E-02    0.866E-02
RMM:   4    -0.705597340939E+03   -0.67555E-06   -0.29155E-05  7162   0.115E-02    0.847E-02
RMM:   5    -0.705597321786E+03    0.19153E-04   -0.15214E-05  6873   0.708E-03    0.515E-02
RMM:   6    -0.705597316513E+03    0.52734E-05   -0.82861E-06  6427   0.592E-03    0.260E-02
RMM:   7    -0.705597317484E+03   -0.97152E-06   -0.44323E-06  5789   0.441E-03    0.247E-02
RMM:   8    -0.705597316649E+03    0.83519E-06   -0.12918E-06  3854   0.333E-03
  57 F= -.70559732E+03 E0= -.70498472E+03  d E =-.520906E-02  mag=     7.2827
       N       E                     dE             d eps       ncg     rms          rms(c)
DAV:   1    -0.705600110392E+03   -0.27929E-02   -0.11881E-01 13840   0.533E-01    0.120E-01
RMM:   2    -0.705600417440E+03   -0.30705E-03   -0.25461E-03 13420   0.922E-02    0.178E-01
RMM:   3    -0.705600350889E+03    0.66551E-04   -0.40644E-04 10494   0.377E-02    0.125E-01
RMM:   4    -0.705600462530E+03   -0.11164E-03   -0.12550E-04  7747   0.222E-02    0.190E-01
RMM:   5    -0.705600331943E+03    0.13059E-03   -0.52801E-05  7457   0.140E-02    0.976E-02
RMM:   6    -0.705600308413E+03    0.23530E-04   -0.29898E-05  7162   0.105E-02    0.447E-02
RMM:   7    -0.705600316191E+03   -0.77783E-05   -0.19160E-05  6923   0.840E-03    0.532E-02
RMM:   8    -0.705600304221E+03    0.11970E-04   -0.88168E-06  6500   0.641E-03
  58 F= -.70560030E+03 E0= -.70498774E+03  d E =-.819664E-02  mag=     7.2832
       N       E                     dE             d eps       ncg     rms          rms(c)
DAV:   1    -0.705604645168E+03   -0.43290E-02   -0.44302E-02 14160   0.340E-01    0.495E-02
RMM:   2    -0.705604775792E+03   -0.13062E-03   -0.84683E-04 12590   0.557E-02    0.137E-01
RMM:   3    -0.705604727934E+03    0.47858E-04   -0.13169E-04  7494   0.222E-02    0.470E-02
RMM:   4    -0.705604774501E+03   -0.46567E-04   -0.30441E-05  7236   0.127E-02    0.102E-01
RMM:   5    -0.705604735310E+03    0.39191E-04   -0.11663E-05  6900   0.694E-03    0.537E-02
RMM:   6    -0.705604736156E+03   -0.84612E-06   -0.87824E-06  6068   0.507E-03    0.440E-02
RMM:   7    -0.705604736783E+03   -0.62747E-06   -0.51521E-06  6033   0.476E-03    0.408E-02
RMM:   8    -0.705604733646E+03    0.31369E-05   -0.17994E-06  4103   0.338E-03
  59 F= -.70560473E+03 E0= -.70499220E+03  d E =-.442943E-02  mag=     7.2839
       N       E                     dE             d eps       ncg     rms          rms(c)
DAV:   1    -0.705605523866E+03   -0.78708E-03   -0.25686E-02 14064   0.259E-01    0.469E-02
RMM:   2    -0.705605587622E+03   -0.63755E-04   -0.50353E-04  9937   0.427E-02    0.735E-02
RMM:   3    -0.705605620409E+03   -0.32787E-04   -0.78385E-05  7292   0.187E-02    0.105E-01
RMM:   4    -0.705605576315E+03    0.44094E-04   -0.17207E-05  7164   0.955E-03    0.364E-02
RMM:   5    -0.705605583267E+03   -0.69526E-05   -0.11319E-05  6713   0.578E-03    0.426E-02
RMM:   6    -0.705605577113E+03    0.61540E-05   -0.71474E-06  6167   0.562E-03    0.247E-02
RMM:   7    -0.705605573738E+03    0.33756E-05   -0.24824E-06  4500   0.353E-03    0.166E-02
RMM:   8    -0.705605573997E+03   -0.25914E-06   -0.26420E-07  2261   0.271E-03
  60 F= -.70560557E+03 E0= -.70499300E+03  d E =-.526978E-02  mag=     7.2848
       N       E                     dE             d eps       ncg     rms          rms(c)
DAV:   1    -0.705607583103E+03   -0.20094E-02   -0.25850E-02 14016   0.261E-01    0.468E-02
RMM:   2    -0.705607643989E+03   -0.60886E-04   -0.58237E-04 10778   0.478E-02    0.830E-02
RMM:   3    -0.705607639359E+03    0.46304E-05   -0.89810E-05  7329   0.191E-02    0.353E-02
RMM:   4    -0.705607694391E+03   -0.55032E-04   -0.25856E-05  7217   0.106E-02    0.112E-01
RMM:   5    -0.705607645258E+03    0.49133E-04   -0.80738E-06  6714   0.592E-03    0.430E-02
RMM:   6    -0.705607649025E+03   -0.37673E-05   -0.53320E-06  5706   0.407E-03    0.397E-02
RMM:   7    -0.705607650425E+03   -0.13997E-05   -0.19361E-06  4557   0.356E-03    0.243E-02
RMM:   8    -0.705607653908E+03   -0.34836E-05   -0.11027E-06  3316   0.304E-03
  61 F= -.70560765E+03 E0= -.70499504E+03  d E =-.207991E-02  mag=     7.2850
       N       E                     dE             d eps       ncg     rms          rms(c)
DAV:   1    -0.705608079755E+03   -0.42933E-03   -0.17631E-02 14016   0.216E-01    0.445E-02
RMM:   2    -0.705608181599E+03   -0.10184E-03   -0.40669E-04  9213   0.398E-02    0.127E-01
RMM:   3    -0.705608127288E+03    0.54311E-04   -0.60684E-05  7273   0.167E-02    0.595E-02
RMM:   4    -0.705608137105E+03   -0.98176E-05   -0.22456E-05  7150   0.901E-03    0.771E-02
RMM:   5    -0.705608131647E+03    0.54584E-05   -0.89130E-06  6705   0.649E-03    0.560E-02
RMM:   6    -0.705608122744E+03    0.89026E-05   -0.37222E-06  5352   0.394E-03    0.356E-02
RMM:   7    -0.705608124577E+03   -0.18324E-05   -0.14702E-06  3828   0.324E-03    0.303E-02
RMM:   8    -0.705608123163E+03    0.14138E-05   -0.36929E-07  2529   0.290E-03
  62 F= -.70560812E+03 E0= -.70499546E+03  d E =-.254917E-02  mag=     7.2848
       N       E                     dE             d eps       ncg     rms          rms(c)
DAV:   1    -0.705609229382E+03   -0.11048E-02   -0.16467E-02 14000   0.207E-01    0.465E-02
RMM:   2    -0.705609298627E+03   -0.69245E-04   -0.42642E-04  9593   0.395E-02    0.120E-01
RMM:   3    -0.705609260579E+03    0.38048E-04   -0.64193E-05  7290   0.177E-02    0.475E-02
RMM:   4    -0.705609312377E+03   -0.51798E-04   -0.21448E-05  7161   0.915E-03    0.107E-01
RMM:   5    -0.705609267290E+03    0.45087E-04   -0.13853E-05  6757   0.718E-03    0.634E-02
RMM:   6    -0.705609260589E+03    0.67016E-05   -0.54706E-06  6040   0.485E-03    0.400E-02
RMM:   7    -0.705609256518E+03    0.40708E-05   -0.17720E-06  4184   0.340E-03    0.213E-02
RMM:   8    -0.705609256936E+03   -0.41857E-06   -0.12014E-06  3278   0.309E-03
  63 F= -.70560926E+03 E0= -.70499655E+03  d E =-.113377E-02  mag=     7.2844
       N       E                     dE             d eps       ncg     rms          rms(c)
DAV:   1    -0.705609418293E+03   -0.16178E-03   -0.53754E-03 13888   0.118E-01    0.266E-02
RMM:   2    -0.705609457073E+03   -0.38779E-04   -0.14131E-04  7522   0.228E-02    0.825E-02
RMM:   3    -0.705609429616E+03    0.27456E-04   -0.20236E-05  7165   0.106E-02    0.358E-02
RMM:   4    -0.705609440663E+03   -0.11047E-04   -0.63611E-06  6585   0.498E-03    0.565E-02
RMM:   5    -0.705609433936E+03    0.67273E-05   -0.41413E-06  5732   0.417E-03    0.388E-02
RMM:   6    -0.705609427427E+03    0.65092E-05   -0.10507E-06  3490   0.316E-03    0.204E-02
RMM:   7    -0.705609427720E+03   -0.29326E-06   -0.34788E-07  2113   0.281E-03    0.116E-02
RMM:   8    -0.705609427917E+03   -0.19668E-06   -0.32376E-07  2034   0.273E-03
  64 F= -.70560943E+03 E0= -.70499668E+03  d E =-.130475E-02  mag=     7.2839
       N       E                     dE             d eps       ncg     rms          rms(c)
DAV:   1    -0.705609950576E+03   -0.52286E-03   -0.58718E-03 13920   0.121E-01    0.210E-02
RMM:   2    -0.705609968083E+03   -0.17507E-04   -0.12682E-04  7377   0.218E-02    0.520E-02
RMM:   3    -0.705609962634E+03    0.54491E-05   -0.19202E-05  7150   0.103E-02    0.254E-02
RMM:   4    -0.705609967851E+03   -0.52173E-05   -0.57729E-06  6584   0.486E-03    0.432E-02
RMM:   5    -0.705609959466E+03    0.83852E-05   -0.21973E-06  5321   0.370E-03    0.234E-02
RMM:   6    -0.705609955220E+03    0.42462E-05   -0.42820E-07  2505   0.273E-03    0.121E-02
RMM:   7    -0.705609952944E+03    0.22754E-05   -0.39212E-07  2303   0.279E-03    0.882E-03
RMM:   8    -0.705609951039E+03    0.19055E-05   -0.29239E-07  1907   0.281E-03
  65 F= -.70560995E+03 E0= -.70499719E+03  d E =-.523122E-03  mag=     7.2831
       N       E                     dE             d eps       ncg     rms          rms(c)
DAV:   1    -0.705610056797E+03   -0.10385E-03   -0.41257E-03 13792   0.102E-01    0.178E-02
RMM:   2    -0.705610064925E+03   -0.81279E-05   -0.91176E-05  7241   0.186E-02    0.329E-02
RMM:   3    -0.705610063910E+03    0.10149E-05   -0.13687E-05  7112   0.871E-03    0.169E-02
RMM:   4    -0.705610072175E+03   -0.82650E-05   -0.44596E-06  6259   0.419E-03    0.482E-02
RMM:   5    -0.705610059943E+03    0.12232E-04   -0.14404E-06  4483   0.339E-03    0.172E-02
RMM:   6    -0.705610057235E+03    0.27081E-05   -0.29173E-07  2183   0.266E-03    0.112E-02
RMM:   7    -0.705610055419E+03    0.18161E-05   -0.28214E-07  2029   0.256E-03    0.112E-02
RMM:   8    -0.705610053270E+03    0.21489E-05   -0.10971E-07  1459   0.252E-03
  66 F= -.70561005E+03 E0= -.70499727E+03  d E =-.625353E-03  mag=     7.2821
       N       E                     dE             d eps       ncg     rms          rms(c)
DAV:   1    -0.705610338952E+03   -0.28353E-03   -0.77929E-03 13920   0.138E-01    0.219E-02
RMM:   2    -0.705610358047E+03   -0.19094E-04   -0.16337E-04  7456   0.249E-02    0.539E-02
RMM:   3    -0.705610354260E+03    0.37863E-05   -0.24599E-05  7125   0.117E-02    0.234E-02
RMM:   4    -0.705610366953E+03   -0.12693E-04   -0.72032E-06  6732   0.539E-03    0.581E-02
RMM:   5    -0.705610351653E+03    0.15300E-04   -0.31190E-06  5760   0.413E-03    0.194E-02
RMM:   6    -0.705610351120E+03    0.53366E-06   -0.35745E-07  2386   0.265E-03    0.182E-02
RMM:   7    -0.705610351259E+03   -0.13904E-06   -0.40527E-07  2487   0.282E-03    0.176E-02
RMM:   8    -0.705610350957E+03    0.30125E-06   -0.40159E-07  1951   0.288E-03
  67 F= -.70561035E+03 E0= -.70499753E+03  d E =-.297687E-03  mag=     7.2811
       N       E                     dE             d eps       ncg     rms          rms(c)
DAV:   1    -0.705610358374E+03   -0.71155E-05   -0.33102E-04 12976   0.287E-02    0.136E-02
RMM:   2    -0.705610378768E+03   -0.20393E-04   -0.10790E-05  7145   0.609E-03    0.547E-02
RMM:   3    -0.705610361744E+03    0.17024E-04   -0.30332E-06  5931   0.403E-03    0.254E-02
RMM:   4    -0.705610364113E+03   -0.23694E-05   -0.16686E-07  1750   0.237E-03    0.240E-02
RMM:   5    -0.705610363433E+03    0.68055E-06   -0.11458E-08  1439   0.225E-03    0.204E-02
RMM:   6    -0.705610363064E+03    0.36835E-06   -0.48353E-14  1019   0.217E-03    0.868E-03
RMM:   7    -0.705610363746E+03   -0.68197E-06   -0.60179E-11  1006   0.218E-03    0.398E-03
RMM:   8    -0.705610364643E+03   -0.89661E-06    0.00000E+00  1000   0.220E-03
  68 F= -.70561036E+03 E0= -.70499753E+03  d E =-.311373E-03  mag=     7.2803
       N       E                     dE             d eps       ncg     rms          rms(c)
DAV:   1    -0.705610526462E+03   -0.16272E-03   -0.26328E-03 13488   0.805E-02    0.146E-02
RMM:   2    -0.705610536111E+03   -0.96493E-05   -0.59892E-05  7202   0.150E-02    0.369E-02
RMM:   3    -0.705610533953E+03    0.21582E-05   -0.87938E-06  7032   0.719E-03    0.184E-02
RMM:   4    -0.705610535812E+03   -0.18587E-05   -0.99088E-07  3397   0.314E-03    0.244E-02
RMM:   5    -0.705610534995E+03    0.81700E-06   -0.50982E-07  2457   0.296E-03    0.173E-02
RMM:   6    -0.705610535476E+03   -0.48132E-06   -0.79213E-08  1522   0.286E-03    0.111E-02
RMM:   7    -0.705610536761E+03   -0.12845E-05   -0.50670E-07  1994   0.299E-03    0.112E-02
RMM:   8    -0.705610537451E+03   -0.69063E-06   -0.45920E-07  1788   0.291E-03
  69 F= -.70561054E+03 E0= -.70499769E+03  d E =-.172808E-03  mag=     7.2795
       N       E                     dE             d eps       ncg     rms          rms(c)
DAV:   1    -0.705610589923E+03   -0.53163E-04   -0.32093E-03 13616   0.889E-02    0.168E-02
RMM:   2    -0.705610605838E+03   -0.15915E-04   -0.74510E-05  7233   0.165E-02    0.528E-02
RMM:   3    -0.705610598607E+03    0.72315E-05   -0.10857E-05  7108   0.791E-03    0.231E-02
RMM:   4    -0.705610604611E+03   -0.60045E-05   -0.27820E-06  5255   0.362E-03    0.411E-02
RMM:   5    -0.705610598699E+03    0.59120E-05   -0.11294E-06  3598   0.328E-03    0.217E-02
RMM:   6    -0.705610598645E+03    0.54621E-07   -0.69941E-08  1564   0.269E-03    0.151E-02
RMM:   7    -0.705610599844E+03   -0.11991E-05   -0.33810E-07  1875   0.280E-03    0.154E-02
RMM:   8    -0.705610600131E+03   -0.28734E-06   -0.40206E-07  1819   0.277E-03
  70 F= -.70561060E+03 E0= -.70499773E+03  d E =-.235488E-03  mag=     7.2789
       N       E                     dE             d eps       ncg     rms          rms(c)
DAV:   1    -0.705610742692E+03   -0.14285E-03   -0.23630E-03 13648   0.736E-02    0.151E-02
RMM:   2    -0.705610750480E+03   -0.77875E-05   -0.51358E-05  7167   0.135E-02    0.263E-02
RMM:   3    -0.705610750165E+03    0.31446E-06   -0.79346E-06  7066   0.667E-03    0.240E-02
RMM:   4    -0.705610748690E+03    0.14753E-05   -0.57458E-07  2761   0.297E-03    0.126E-02
RMM:   5    -0.705610749291E+03   -0.60151E-06   -0.83001E-07  3033   0.305E-03    0.187E-02
RMM:   6    -0.705610748538E+03    0.75372E-06   -0.52361E-08  1565   0.285E-03    0.790E-03
RMM:   7    -0.705610748655E+03   -0.11700E-06   -0.12769E-07  1448   0.289E-03    0.802E-03
RMM:   8    -0.705610748569E+03    0.85878E-07   -0.11750E-07  1208   0.289E-03
  71 F= -.70561075E+03 E0= -.70499787E+03  d E =-.148438E-03  mag=     7.2782
       N       E                     dE             d eps       ncg     rms          rms(c)
DAV:   1    -0.705610798227E+03   -0.49573E-04   -0.29471E-03 13664   0.822E-02    0.157E-02
RMM:   2    -0.705610807359E+03   -0.91319E-05   -0.64006E-05  7151   0.151E-02    0.349E-02
RMM:   3    -0.705610804993E+03    0.23666E-05   -0.99306E-06  7087   0.755E-03    0.142E-02
RMM:   4    -0.705610811674E+03   -0.66813E-05   -0.27633E-06  5202   0.352E-03    0.413E-02
RMM:   5    -0.705610805002E+03    0.66726E-05   -0.61088E-07  3044   0.306E-03    0.153E-02
RMM:   6    -0.705610804083E+03    0.91843E-06   -0.31508E-07  1976   0.289E-03    0.854E-03
[...]
RMM:   8    -0.705610911998E+03   -0.65073E-06   -0.36976E-09   856   0.243E-03
  73 F= -.70561091E+03 E0= -.70499801E+03  d E =-.107950E-03  mag=     7.2770
       N       E                     dE             d eps       ncg     rms          rms(c)
DAV:   1    -0.705611061076E+03   -0.14973E-03   -0.89638E-03 13936   0.137E-01    0.270E-02
RMM:   2    -0.705611080569E+03   -0.19493E-04   -0.17230E-04  7475   0.254E-02    0.430E-02
RMM:   3    -0.705611076628E+03    0.39415E-05   -0.29531E-05  7141   0.127E-02    0.188E-02
RMM:   4    -0.705611079450E+03   -0.28226E-05   -0.90489E-06  6758   0.607E-03    0.252E-02
RMM:   5    -0.705611088262E+03   -0.88121E-05   -0.39786E-06  5965   0.421E-03    0.507E-02
RMM:   6    -0.705611075608E+03    0.12654E-04   -0.10507E-06  3525   0.314E-03    0.103E-02
RMM:   7    -0.705611075383E+03    0.22561E-06   -0.74741E-07  2829   0.302E-03    0.121E-02
RMM:   8    -0.705611075000E+03    0.38234E-06   -0.23649E-07  1943   0.275E-03
  74 F= -.70561108E+03 E0= -.70499814E+03  d E =-.270951E-03  mag=     7.2764
       N       E                     dE             d eps       ncg     rms          rms(c)
DAV:   1    -0.705611261835E+03   -0.18645E-03   -0.19967E-03 13616   0.643E-02    0.148E-02
RMM:   2    -0.705611308176E+03   -0.46340E-04   -0.42890E-05  7175   0.127E-02    0.954E-02
RMM:   3    -0.705611263689E+03    0.44487E-04   -0.88046E-06  7108   0.700E-03    0.107E-02
RMM:   4    -0.705611265218E+03   -0.15291E-05   -0.12055E-06  3685   0.318E-03    0.166E-02
RMM:   5    -0.705611265344E+03   -0.12654E-06   -0.76284E-08  1880   0.280E-03    0.181E-02
RMM:   6    -0.705611266086E+03   -0.74204E-06   -0.71106E-08  1423   0.278E-03    0.228E-02
RMM:   7    -0.705611263739E+03    0.23473E-05   -0.24414E-07  1737   0.293E-03    0.867E-03
RMM:   8    -0.705611263760E+03   -0.20795E-07   -0.17844E-07  1424   0.288E-03
  75 F= -.70561126E+03 E0= -.70499833E+03  d E =-.188760E-03  mag=     7.2758
       N       E                     dE             d eps       ncg     rms          rms(c)
DAV:   1    -0.705611621697E+03   -0.35796E-03   -0.17811E-02 13920   0.192E-01    0.371E-02
RMM:   2    -0.705611664452E+03   -0.42755E-04   -0.33566E-04  9053   0.361E-02    0.699E-02
RMM:   3    -0.705611658245E+03    0.62074E-05   -0.59194E-05  7203   0.167E-02    0.385E-02
RMM:   4    -0.705611676343E+03   -0.18098E-04   -0.17944E-05  7085   0.878E-03    0.727E-02
RMM:   5    -0.705611651591E+03    0.24752E-04   -0.88853E-06  6634   0.631E-03    0.351E-02
RMM:   6    -0.705611646286E+03    0.53049E-05   -0.48766E-06  6079   0.443E-03    0.223E-02
RMM:   7    -0.705611642036E+03    0.42496E-05   -0.17073E-06  4053   0.344E-03    0.120E-02
RMM:   8    -0.705611639899E+03    0.21369E-05   -0.32011E-07  2328   0.284E-03
  76 F= -.70561164E+03 E0= -.70499865E+03  d E =-.564899E-03  mag=     7.2749
       N       E                     dE             d eps       ncg     rms          rms(c)
DAV:   1    -0.705611248818E+03    0.39322E-03   -0.71107E-02 13888   0.384E-01    0.744E-02
RMM:   2    -0.705611442821E+03   -0.19400E-03   -0.12959E-03 13367   0.718E-02    0.154E-01
RMM:   3    -0.705611393566E+03    0.49255E-04   -0.28810E-04  9021   0.291E-02    0.750E-02
RMM:   4    -0.705611428501E+03   -0.34934E-04   -0.65726E-05  7559   0.185E-02    0.116E-01
RMM:   5    -0.705611376515E+03    0.51985E-04   -0.32055E-05  7313   0.111E-02    0.787E-02
RMM:   6    -0.705611348529E+03    0.27986E-04   -0.19827E-05  7084   0.841E-03    0.321E-02
RMM:   7    -0.705611338842E+03    0.96872E-05   -0.10045E-05  6566   0.592E-03    0.248E-02
RMM:   8    -0.705611333133E+03    0.57082E-05   -0.36155E-06  5828   0.434E-03
  77 F= -.70561133E+03 E0= -.70499826E+03  d E =-.258133E-03  mag=     7.2733
       N       E                     dE             d eps       ncg     rms          rms(c)
DAV:   1    -0.705611608352E+03   -0.26951E-03   -0.33777E-02 14032   0.265E-01    0.518E-02
RMM:   2    -0.705611758240E+03   -0.14989E-03   -0.61322E-04 12708   0.495E-02    0.151E-01
RMM:   3    -0.705611678930E+03    0.79310E-04   -0.12727E-04  7436   0.205E-02    0.561E-02
RMM:   4    -0.705611692546E+03   -0.13616E-04   -0.34729E-05  7193   0.138E-02    0.671E-02
RMM:   5    -0.705611686024E+03    0.65217E-05   -0.15546E-05  7110   0.763E-03    0.418E-02
RMM:   6    -0.705611700371E+03   -0.14347E-04   -0.11854E-05  6636   0.642E-03    0.445E-02
RMM:   7    -0.705611701984E+03   -0.16132E-05   -0.55801E-06  6194   0.493E-03    0.258E-02
RMM:   8    -0.705611707284E+03   -0.53000E-05   -0.16364E-06  3696   0.323E-03
  78 F= -.70561171E+03 E0= -.70499867E+03  d E =-.632284E-03  mag=     7.2726
       N       E                     dE             d eps       ncg     rms          rms(c)
DAV:   1    -0.705611887628E+03   -0.18564E-03   -0.30730E-03 13808   0.758E-02    0.206E-02
RMM:   2    -0.705611924868E+03   -0.37240E-04   -0.56110E-05  7165   0.148E-02    0.748E-02
RMM:   3    -0.705611903366E+03    0.21502E-04   -0.12418E-05  7139   0.791E-03    0.378E-02
RMM:   4    -0.705611899071E+03    0.42944E-05   -0.31544E-06  5800   0.398E-03    0.138E-02
RMM:   5    -0.705611900309E+03   -0.12378E-05   -0.35679E-07  2628   0.287E-03    0.112E-02
RMM:   6    -0.705611901603E+03   -0.12937E-05   -0.39034E-07  2144   0.288E-03    0.109E-02
RMM:   7    -0.705611903330E+03   -0.17278E-05   -0.13964E-06  3277   0.317E-03    0.646E-03
RMM:   8    -0.705611904274E+03   -0.94371E-06   -0.50667E-07  1790   0.270E-03
  79 F= -.70561190E+03 E0= -.70499886E+03  d E =-.196990E-03  mag=     7.2720
       N       E                     dE             d eps       ncg     rms          rms(c)
DAV:   1    -0.705612097854E+03   -0.19452E-03   -0.27670E-02 13936   0.227E-01    0.483E-02
RMM:   2    -0.705612159901E+03   -0.62046E-04   -0.47622E-04 11644   0.433E-02    0.787E-02
RMM:   3    -0.705612181547E+03   -0.21647E-04   -0.10241E-04  7455   0.189E-02    0.909E-02
RMM:   4    -0.705612156193E+03    0.25355E-04   -0.30875E-05  7196   0.124E-02    0.565E-02
RMM:   5    -0.705612143952E+03    0.12240E-04   -0.12407E-05  6848   0.701E-03    0.337E-02
RMM:   6    -0.705612137390E+03    0.65620E-05   -0.81611E-06  6517   0.552E-03    0.256E-02
RMM:   7    -0.705612131840E+03    0.55496E-05   -0.37206E-06  5596   0.412E-03    0.143E-02
RMM:   8    -0.705612129083E+03    0.27576E-05   -0.11180E-06  3539   0.300E-03
  80 F= -.70561213E+03 E0= -.70499902E+03  d E =-.421799E-03  mag=     7.2710
       N       E                     dE             d eps       ncg     rms          rms(c)
DAV:   1    -0.705612340196E+03   -0.20836E-03   -0.45523E-03 14048   0.914E-02    0.213E-02
RMM:   2    -0.705612352987E+03   -0.12790E-04   -0.84513E-05  7220   0.179E-02    0.400E-02
RMM:   3    -0.705612352913E+03    0.73778E-07   -0.15389E-05  7090   0.901E-03    0.358E-02
RMM:   4    -0.705612349260E+03    0.36534E-05   -0.45110E-06  6094   0.430E-03    0.249E-02
RMM:   5    -0.705612346729E+03    0.25308E-05   -0.20317E-06  4833   0.348E-03    0.188E-02
RMM:   6    -0.705612343284E+03    0.34446E-05   -0.61479E-07  2888   0.296E-03    0.102E-02
RMM:   7    -0.705612341788E+03    0.14966E-05   -0.45292E-07  2273   0.285E-03    0.870E-03
RMM:   8    -0.705612341021E+03    0.76633E-06   -0.23364E-07  1641   0.276E-03
  81 F= -.70561234E+03 E0= -.70499921E+03  d E =-.211938E-03  mag=     7.2700
       N       E                     dE             d eps       ncg     rms          rms(c)
DAV:   1    -0.705612402668E+03   -0.60880E-04   -0.55669E-03 14112   0.101E-01    0.233E-02
RMM:   2    -0.705612417186E+03   -0.14519E-04   -0.10162E-04  7220   0.197E-02    0.431E-02
RMM:   3    -0.705612416540E+03    0.64669E-06   -0.18156E-05  7105   0.978E-03    0.310E-02
RMM:   4    -0.705612417912E+03   -0.13723E-05   -0.57284E-06  6325   0.470E-03    0.368E-02
RMM:   5    -0.705612411585E+03    0.63265E-05   -0.30601E-06  5682   0.394E-03    0.176E-02
RMM:   6    -0.705612408405E+03    0.31800E-05   -0.62457E-07  2837   0.295E-03    0.973E-03
RMM:   7    -0.705612406976E+03    0.14288E-05   -0.50100E-07  2264   0.289E-03    0.540E-03
RMM:   8    -0.705612406693E+03    0.28357E-06   -0.13391E-07  1542   0.273E-03
  82 F= -.70561241E+03 E0= -.70499926E+03  d E =-.277610E-03  mag=     7.2689
       N       E                     dE             d eps       ncg     rms          rms(c)
DAV:   1    -0.705612572039E+03   -0.16506E-03   -0.22357E-03 13664   0.687E-02    0.138E-02
RMM:   2    -0.705612594196E+03   -0.22157E-04   -0.47175E-05  7154   0.134E-02    0.604E-02
RMM:   3    -0.705612578831E+03    0.15364E-04   -0.81058E-06  7047   0.673E-03    0.177E-02
RMM:   4    -0.705612580115E+03   -0.12834E-05   -0.95489E-07  3266   0.307E-03    0.202E-02
RMM:   5    -0.705612581907E+03   -0.17926E-05   -0.43671E-07  2444   0.294E-03    0.185E-02
RMM:   6    -0.705612584876E+03   -0.29690E-05   -0.27830E-07  1826   0.290E-03    0.174E-02
RMM:   7    -0.705612586157E+03   -0.12803E-05   -0.67269E-07  2355   0.296E-03    0.946E-03
RMM:   8    -0.705612587595E+03   -0.14387E-05   -0.26713E-07  1489   0.277E-03
  83 F= -.70561259E+03 E0= -.70499942E+03  d E =-.180902E-03  mag=     7.2681
       N       E                     dE             d eps       ncg     rms          rms(c)
DAV:   1    -0.705612717393E+03   -0.13124E-03   -0.93515E-03 14064   0.140E-01    0.283E-02
RMM:   2    -0.705612748193E+03   -0.30800E-04   -0.18779E-04  7612   0.266E-02    0.619E-02
RMM:   3    -0.705612739211E+03    0.89828E-05   -0.29749E-05  7146   0.127E-02    0.305E-02
RMM:   4    -0.705612757535E+03   -0.18324E-04   -0.96914E-06  6774   0.607E-03    0.656E-02
RMM:   5    -0.705612743148E+03    0.14387E-04   -0.56610E-06  6360   0.506E-03    0.317E-02
RMM:   6    -0.705612742884E+03    0.26453E-06   -0.24337E-06  4772   0.353E-03    0.142E-02
RMM:   7    -0.705612744231E+03   -0.13470E-05   -0.76405E-07  3075   0.293E-03    0.105E-02
RMM:   8    -0.705612745718E+03   -0.14872E-05   -0.11736E-07  1649   0.270E-03
  84 F= -.70561275E+03 E0= -.70499955E+03  d E =-.339025E-03  mag=     7.2675
       N       E                     dE             d eps       ncg     rms          rms(c)
DAV:   1    -0.705612892140E+03   -0.14791E-03   -0.26337E-03 13744   0.737E-02    0.181E-02
RMM:   2    -0.705612915098E+03   -0.22958E-04   -0.53378E-05  7182   0.142E-02    0.553E-02
RMM:   3    -0.705612904201E+03    0.10896E-04   -0.10589E-05  7095   0.751E-03    0.351E-02
RMM:   4    -0.705612900068E+03    0.41334E-05   -0.21094E-06  4939   0.350E-03    0.129E-02
RMM:   5    -0.705612901579E+03   -0.15110E-05   -0.34569E-07  2555   0.285E-03    0.109E-02
RMM:   6    -0.705612903789E+03   -0.22102E-05   -0.24368E-07  2094   0.286E-03    0.139E-02
RMM:   7    -0.705612904784E+03   -0.99453E-06   -0.16221E-07  1658   0.283E-03    0.403E-03
RMM:   8    -0.705612905978E+03   -0.11945E-05   -0.21439E-07  1467   0.285E-03
  85 F= -.70561291E+03 E0= -.70499971E+03  d E =-.160260E-03  mag=     7.2671
       N       E                     dE             d eps       ncg     rms          rms(c)
DAV:   1    -0.705612953076E+03   -0.48292E-04   -0.24354E-03 13712   0.708E-02    0.151E-02
RMM:   2    -0.705612960283E+03   -0.72075E-05   -0.48611E-05  7112   0.135E-02    0.257E-02
RMM:   3    -0.705612961201E+03   -0.91816E-06   -0.78117E-06  7037   0.658E-03    0.224E-02
RMM:   4    -0.705612959957E+03    0.12445E-05   -0.79789E-07  2934   0.299E-03    0.120E-02
RMM:   5    -0.705612961798E+03   -0.18417E-05   -0.51136E-07  2771   0.300E-03    0.180E-02
RMM:   6    -0.705612962143E+03   -0.34506E-06   -0.13207E-07  1816   0.288E-03    0.769E-03
RMM:   7    -0.705612963216E+03   -0.10724E-05   -0.22494E-07  1621   0.293E-03    0.549E-03
RMM:   8    -0.705612964193E+03   -0.97715E-06   -0.29372E-07  1584   0.290E-03
  86 F= -.70561296E+03 E0= -.70499977E+03  d E =-.218475E-03  mag=     7.2668
       N       E                     dE             d eps       ncg     rms          rms(c)
DAV:   1    -0.705613071072E+03   -0.10786E-03   -0.13270E-03 13568   0.503E-02    0.104E-02
RMM:   2    -0.705613074401E+03   -0.33294E-05   -0.25291E-05  7082   0.996E-03    0.127E-02
RMM:   3    -0.705613074735E+03   -0.33424E-06   -0.41786E-06  6698   0.487E-03    0.683E-03
RMM:   4    -0.705613076617E+03   -0.18813E-05   -0.14048E-07  2025   0.245E-03    0.165E-02
RMM:   5    -0.705613076171E+03    0.44555E-06   -0.44792E-08  1517   0.241E-03    0.935E-03
RMM:   6    -0.705613076784E+03   -0.61275E-06   -0.40970E-09  1258   0.236E-03    0.622E-03
RMM:   7    -0.705613077282E+03   -0.49764E-06   -0.29213E-09  1125   0.239E-03    0.243E-03
RMM:   8    -0.705613077888E+03   -0.60604E-06   -0.37659E-09   991   0.244E-03
  87 F= -.70561308E+03 E0= -.70499988E+03  d E =-.113695E-03  mag=     7.2667
       N       E                     dE             d eps       ncg     rms          rms(c)
DAV:   1    -0.705613187852E+03   -0.11057E-03   -0.87397E-03 13936   0.129E-01    0.268E-02
RMM:   2    -0.705613209330E+03   -0.21479E-04   -0.15738E-04  7508   0.247E-02    0.490E-02
RMM:   3    -0.705613206113E+03    0.32177E-05   -0.27446E-05  7144   0.120E-02    0.315E-02
RMM:   4    -0.705613210298E+03   -0.41856E-05   -0.89232E-06  6696   0.596E-03    0.433E-02
RMM:   5    -0.705613204835E+03    0.54634E-05   -0.46054E-06  6109   0.471E-03    0.275E-02
RMM:   6    -0.705613201912E+03    0.29232E-05   -0.17530E-06  4036   0.346E-03    0.904E-03
RMM:   7    -0.705613202031E+03   -0.11956E-06   -0.68622E-07  2706   0.291E-03    0.590E-03
RMM:   8    -0.705613201905E+03    0.12635E-06   -0.58550E-08  1686   0.256E-03
  88 F= -.70561320E+03 E0= -.70500000E+03  d E =-.237712E-03  mag=     7.2668
       N       E                     dE             d eps       ncg     rms          rms(c)
DAV:   1    -0.705613271158E+03   -0.69126E-04   -0.79859E-04 13200   0.395E-02    0.837E-03
RMM:   2    -0.705613273386E+03   -0.22285E-05   -0.16175E-05  7031   0.801E-03    0.205E-02
RMM:   3    -0.705613272602E+03    0.78409E-06   -0.26726E-06  5944   0.413E-03    0.579E-03
RMM:   4    -0.705613272895E+03   -0.29289E-06   -0.38537E-08  1514   0.226E-03    0.533E-03
RMM:   5    -0.705613273243E+03   -0.34821E-06   -0.88643E-09  1342   0.215E-03    0.593E-03
RMM:   6    -0.705613273475E+03   -0.23231E-06   -0.16429E-08  1092   0.218E-03    0.837E-03
RMM:   7    -0.705613273308E+03    0.16682E-06   -0.76979E-09  1045   0.220E-03    0.297E-03
RMM:   8    -0.705613273519E+03   -0.21081E-06   -0.47496E-09   914   0.222E-03
  89 F= -.70561327E+03 E0= -.70500007E+03  d E =-.716143E-04  mag=     7.2669
       N       E                     dE             d eps       ncg     rms          rms(c)
DAV:   1    -0.705613369335E+03   -0.96027E-04   -0.70633E-03 13984   0.118E-01    0.237E-02
RMM:   2    -0.705613382951E+03   -0.13616E-04   -0.13533E-04  7343   0.228E-02    0.417E-02
RMM:   3    -0.705613381487E+03    0.14646E-05   -0.22160E-05  7089   0.110E-02    0.197E-02
RMM:   4    -0.705613402769E+03   -0.21282E-04   -0.79287E-06  6594   0.531E-03    0.659E-02
RMM:   5    -0.705613380369E+03    0.22401E-04   -0.39366E-06  6039   0.440E-03    0.216E-02
RMM:   6    -0.705613381731E+03   -0.13626E-05   -0.83874E-07  3099   0.303E-03    0.131E-02
RMM:   7    -0.705613381348E+03    0.38296E-06   -0.29573E-07  2211   0.291E-03    0.704E-03
RMM:   8    -0.705613381633E+03   -0.28516E-06   -0.26896E-07  1727   0.287E-03
  90 F= -.70561338E+03 E0= -.70500019E+03  d E =-.179728E-03  mag=     7.2671
       N       E                     dE             d eps       ncg     rms          rms(c)
DAV:   1    -0.705613441974E+03   -0.60626E-04   -0.17665E-03 13632   0.596E-02    0.135E-02
RMM:   2    -0.705613461793E+03   -0.19819E-04   -0.37290E-05  7142   0.122E-02    0.626E-02
RMM:   3    -0.705613444154E+03    0.17639E-04   -0.73617E-06  7052   0.634E-03    0.151E-02
RMM:   4    -0.705613445534E+03   -0.13800E-05   -0.58047E-07  2892   0.293E-03    0.117E-02
RMM:   5    -0.705613446402E+03   -0.86782E-06   -0.21179E-07  2130   0.285E-03    0.170E-02
RMM:   6    -0.705613447138E+03   -0.73671E-06   -0.52070E-08  1464   0.278E-03    0.176E-02
RMM:   7    -0.705613446024E+03    0.11149E-05   -0.44271E-08  1274   0.282E-03    0.107E-02
RMM:   8    -0.705613446087E+03   -0.63745E-07   -0.10091E-07  1253   0.286E-03
  91 F= -.70561345E+03 E0= -.70500024E+03  d E =-.644540E-04  mag=     7.2672
       N       E                     dE             d eps       ncg     rms          rms(c)
DAV:   1    -0.705613449785E+03   -0.37611E-05   -0.19093E-04 10320   0.198E-02    0.660E-03
RMM:   2    -0.705613451879E+03   -0.20939E-05   -0.92513E-06  6857   0.607E-03    0.162E-02
RMM:   3    -0.705613451669E+03    0.20978E-06   -0.12152E-06  3640   0.318E-03    0.118E-02
RMM:   4    -0.705613451179E+03    0.49017E-06   -0.64389E-09  1060   0.239E-03    0.778E-03
RMM:   5    -0.705613451378E+03   -0.19948E-06    0.00000E+00   968   0.236E-03    0.730E-03
RMM:   6    -0.705613451548E+03   -0.16964E-06   -0.21121E-10   879   0.234E-03    0.624E-03
RMM:   7    -0.705613451596E+03   -0.48698E-07    0.00000E+00   940   0.236E-03    0.285E-03
RMM:   8    -0.705613451724E+03   -0.12713E-06    0.00000E+00   912   0.236E-03
  92 F= -.70561345E+03 E0= -.70500024E+03  d E =-.700902E-04  mag=     7.2672
       N       E                     dE             d eps       ncg     rms          rms(c)
DAV:   1    -0.705613497581E+03   -0.45985E-04   -0.10575E-03 13440   0.434E-02    0.866E-03
RMM:   2    -0.705613499434E+03   -0.18527E-05   -0.19894E-05  7110   0.896E-03    0.144E-02
RMM:   3    -0.705613499255E+03    0.17899E-06   -0.34624E-06  6638   0.441E-03    0.589E-03
RMM:   4    -0.705613500166E+03   -0.91120E-06   -0.29121E-08  1662   0.230E-03    0.139E-02
RMM:   5    -0.705613499740E+03    0.42632E-06   -0.10161E-08  1355   0.228E-03    0.101E-02
RMM:   6    -0.705613499460E+03    0.27981E-06   -0.19923E-08  1202   0.236E-03    0.500E-03
RMM:   7    -0.705613499391E+03    0.68678E-07   -0.10378E-08   993   0.241E-03    0.232E-03
RMM:   8    -0.705613499448E+03   -0.56702E-07   -0.18294E-08   884   0.246E-03
  93 F= -.70561350E+03 E0= -.70500028E+03  d E =-.477245E-04  mag=     7.2673
       N       E                     dE             d eps       ncg     rms          rms(c)
DAV:   1    -0.705613524712E+03   -0.25320E-04   -0.27203E-03 13760   0.695E-02    0.151E-02
RMM:   2    -0.705613529318E+03   -0.46066E-05   -0.50856E-05  7137   0.145E-02    0.227E-02
RMM:   3    -0.705613529293E+03    0.24651E-07   -0.92541E-06  6967   0.704E-03    0.126E-02
RMM:   4    -0.705613535466E+03   -0.61724E-05   -0.23572E-06  4760   0.349E-03    0.349E-02
RMM:   5    -0.705613528812E+03    0.66543E-05   -0.59274E-07  3014   0.304E-03    0.153E-02
RMM:   6    -0.705613529161E+03   -0.34920E-06   -0.23825E-07  1861   0.286E-03    0.650E-03
RMM:   7    -0.705613529282E+03   -0.12164E-06   -0.28575E-07  1775   0.284E-03    0.754E-03
RMM:   8    -0.705613529315E+03   -0.32538E-07   -0.17393E-07  1306   0.273E-03
  94 F= -.70561353E+03 E0= -.70500031E+03  d E =-.775913E-04  mag=     7.2674
       N       E                     dE             d eps       ncg     rms          rms(c)
DAV:   1    -0.705613558968E+03   -0.29686E-04   -0.37185E-04 13088   0.280E-02    0.734E-03
RMM:   2    -0.705613567257E+03   -0.82882E-05   -0.88976E-06  7079   0.599E-03    0.406E-02
RMM:   3    -0.705613558697E+03    0.85593E-05   -0.10691E-06  3871   0.331E-03    0.933E-03
RMM:   4    -0.705613559559E+03   -0.86128E-06   -0.53487E-09  1037   0.252E-03    0.401E-03
RMM:   5    -0.705613559773E+03   -0.21416E-06   -0.21187E-10   886   0.248E-03    0.604E-03
RMM:   6    -0.705613559646E+03    0.12698E-06   -0.71100E-09   894   0.254E-03    0.547E-03
RMM:   7    -0.705613559576E+03    0.69791E-07   -0.12144E-08   924   0.254E-03    0.275E-03
RMM:   8    -0.705613559551E+03    0.24484E-07   -0.23987E-09   814   0.254E-03
  95 F= -.70561356E+03 E0= -.70500033E+03  d E =-.302365E-04  mag=     7.2675
