       N       E                     dE             d eps       ncg     rms          rms(c)
DAV:   1     0.775391151467E+04    0.77539E+04   -0.30859E+05 13648   0.126E+03
DAV:   2     0.591185632756E+03   -0.71627E+04   -0.64659E+04 14528   0.370E+02
DAV:   3    -0.787188387706E+03   -0.13784E+04   -0.13184E+04 16624   0.164E+02
DAV:   4    -0.863020335726E+03   -0.75832E+02   -0.73968E+02 18768   0.430E+01
DAV:   5    -0.864514066535E+03   -0.14937E+01   -0.14758E+01 17344   0.563E+00    0.197E+02
RMM:   6    -0.761907960092E+03    0.10261E+03   -0.69760E+02 13470   0.421E+01    0.206E+02
RMM:   7    -0.105696191320E+04   -0.29505E+03   -0.24565E+02 13961   0.258E+01    0.364E+02
RMM:   8    -0.949123094845E+03    0.10784E+03   -0.76476E+01 16136   0.974E+00    0.341E+02
RMM:   9    -0.146074739628E+04   -0.51162E+03   -0.30502E+02 18350   0.231E+01    0.390E+02
RMM:  10    -0.883641394060E+03    0.57711E+03   -0.17532E+02 17079   0.182E+01    0.189E+02
RMM:  11    -0.784873850306E+03    0.98768E+02   -0.11934E+02 15449   0.182E+01    0.118E+02
RMM:  12    -0.665916183674E+03    0.11896E+03   -0.71046E+01 14530   0.127E+01    0.116E+02
RMM:  13    -0.649414765560E+03    0.16501E+02   -0.17193E+01 13811   0.724E+00    0.101E+02
RMM:  14    -0.634273283510E+03    0.15141E+02   -0.13075E+01 13687   0.526E+00    0.807E+01
RMM:  15    -0.638006636459E+03   -0.37334E+01   -0.13611E+01 14352   0.551E+00    0.635E+01
RMM:  16    -0.645623128080E+03   -0.76165E+01   -0.65518E+00 13705   0.415E+00    0.590E+01
RMM:  17    -0.648628125606E+03   -0.30050E+01   -0.44811E+00 13864   0.320E+00    0.498E+01
RMM:  18    -0.652772488440E+03   -0.41444E+01   -0.30877E+00 13779   0.255E+00    0.500E+01
RMM:  19    -0.659914463331E+03   -0.71420E+01   -0.88944E+00 16419   0.422E+00    0.353E+01
RMM:  20    -0.667232742989E+03   -0.73183E+01   -0.95513E+00 17184   0.430E+00    0.197E+01
RMM:  21    -0.672158347874E+03   -0.49256E+01   -0.21670E+00 14152   0.214E+00    0.210E+01
RMM:  22    -0.674938056267E+03   -0.27797E+01   -0.12124E+00 13759   0.156E+00    0.250E+01
RMM:  23    -0.675504951728E+03   -0.56690E+00   -0.56782E-01 13500   0.114E+00    0.207E+01
RMM:  24    -0.682112602806E+03   -0.66077E+01   -0.24127E+00 15498   0.213E+00    0.197E+01
RMM:  25    -0.683569871224E+03   -0.14573E+01   -0.40635E-01 13537   0.105E+00    0.206E+01
RMM:  26    -0.685079310347E+03   -0.15094E+01   -0.37203E-01 13774   0.924E-01    0.191E+01
RMM:  27    -0.686333712819E+03   -0.12544E+01   -0.36790E-01 14386   0.868E-01    0.188E+01
RMM:  28    -0.687021301325E+03   -0.68759E+00   -0.24964E-01 14054   0.752E-01    0.161E+01
RMM:  29    -0.689337587124E+03   -0.23163E+01   -0.53412E-01 15754   0.961E-01    0.159E+01
RMM:  30    -0.692941189249E+03   -0.36036E+01   -0.14576E+00 18587   0.152E+00    0.108E+01
RMM:  31    -0.695924557623E+03   -0.29834E+01   -0.66352E-01 16799   0.103E+00    0.753E+00
RMM:  32    -0.697832209276E+03   -0.19077E+01   -0.27978E-01 14755   0.665E-01    0.833E+00
RMM:  33    -0.699396521718E+03   -0.15643E+01   -0.38024E-01 15846   0.742E-01    0.590E+00
RMM:  34    -0.700993006381E+03   -0.15965E+01   -0.26114E-01 15191   0.617E-01    0.509E+00
RMM:  35    -0.701671769759E+03   -0.67876E+00   -0.22456E-01 15443   0.580E-01    0.390E+00
RMM:  36    -0.702047250508E+03   -0.37548E+00   -0.15494E-01 14941   0.483E-01    0.324E+00
RMM:  37    -0.702384459404E+03   -0.33721E+00   -0.39576E-02 13594   0.292E-01    0.301E+00
RMM:  38    -0.702563859138E+03   -0.17940E+00   -0.29713E-02 13837   0.225E-01    0.258E+00
RMM:  39    -0.702895069290E+03   -0.33121E+00   -0.38045E-02 14805   0.232E-01    0.226E+00
RMM:  40    -0.703560119786E+03   -0.66505E+00   -0.65878E-02 16099   0.319E-01    0.199E+00
RMM:  41    -0.703976511771E+03   -0.41639E+00   -0.30013E-02 14717   0.227E-01    0.171E+00
RMM:  42    -0.704110981215E+03   -0.13447E+00   -0.17935E-02 14116   0.179E-01    0.169E+00
RMM:  43    -0.704153137138E+03   -0.42156E-01   -0.18532E-02 14902   0.164E-01    0.179E+00
RMM:  44    -0.704257743540E+03   -0.10461E+00   -0.10922E-02 14390   0.131E-01    0.121E+00
RMM:  45    -0.704332275581E+03   -0.74532E-01   -0.65821E-03 13948   0.967E-02    0.101E+00
RMM:  46    -0.704436110425E+03   -0.10383E+00   -0.43956E-03 14190   0.812E-02    0.102E+00
RMM:  47    -0.704513289451E+03   -0.77179E-01   -0.23922E-03 13906   0.703E-02    0.812E-01
RMM:  48    -0.704583648484E+03   -0.70359E-01   -0.12003E-03 12946   0.557E-02    0.758E-01
RMM:  49    -0.704634088309E+03   -0.50440E-01   -0.88014E-04 12947   0.451E-02    0.625E-01
RMM:  50    -0.704712084727E+03   -0.77996E-01   -0.75986E-04 12733   0.399E-02    0.561E-01
RMM:  51    -0.704638469987E+03    0.73615E-01   -0.32241E-03 15464   0.612E-02    0.419E-01
RMM:  52    -0.704690460461E+03   -0.51990E-01   -0.38220E-04 10756   0.300E-02    0.240E-01
RMM:  53    -0.704757843124E+03   -0.67383E-01   -0.59143E-04 11245   0.311E-02    0.246E-01
RMM:  54    -0.704793136625E+03   -0.35294E-01   -0.28216E-04  9596   0.239E-02    0.248E-01
RMM:  55    -0.704812148951E+03   -0.19012E-01   -0.12337E-04  8456   0.173E-02    0.222E-01
RMM:  56    -0.704770869477E+03    0.41279E-01   -0.14133E-04  8428   0.194E-02    0.142E-01
RMM:  57    -0.704807377721E+03   -0.36508E-01   -0.65659E-05  8191   0.139E-02    0.902E-02
RMM:  58    -0.704839355193E+03   -0.31977E-01   -0.63590E-05  8277   0.111E-02    0.793E-02
RMM:  59    -0.704854311424E+03   -0.14956E-01   -0.38833E-05  7727   0.889E-03    0.713E-02
RMM:  60    -0.704863838426E+03   -0.95270E-02   -0.28623E-05  7508   0.741E-03    0.476E-02
RMM:  61    -0.704864248921E+03   -0.41049E-03   -0.18212E-05  7232   0.658E-03    0.472E-02
RMM:  62    -0.704869356429E+03   -0.51075E-02   -0.17797E-05  6523   0.548E-03    0.245E-02
RMM:  63    -0.704871208005E+03   -0.18516E-02   -0.90657E-06  5174   0.431E-03    0.202E-02
RMM:  64    -0.704871849699E+03   -0.64169E-03   -0.51376E-06  4615   0.376E-03    0.127E-02
RMM:  65    -0.704872032524E+03   -0.18283E-03   -0.28695E-06  3783   0.331E-03    0.974E-03
RMM:  66    -0.704872073185E+03   -0.40661E-04   -0.14358E-06  3332   0.306E-03
   1 F= -.70487207E+03 E0= -.70425332E+03  d E =-.704872E+03  mag=     7.1631
       N       E                     dE             d eps       ncg     rms          rms(c)
DAV:   1    -0.702409924687E+03    0.24621E+01   -0.28238E+02 13936   0.223E+01    0.609E+00
RMM:   2    -0.703939538014E+03   -0.15296E+01   -0.10166E+01 13440   0.419E+00    0.167E+01
RMM:   3    -0.703212330034E+03    0.72721E+00   -0.16704E+00 13725   0.177E+00    0.104E+01
RMM:   4    -0.702940962801E+03    0.27137E+00   -0.36662E-01 13516   0.105E+00    0.803E+00
RMM:   5    -0.702588706870E+03    0.35226E+00   -0.15647E-01 13575   0.700E-01    0.352E+00
RMM:   6    -0.702609425785E+03   -0.20719E-01   -0.94220E-02 13773   0.414E-01    0.371E+00
RMM:   7    -0.702583594018E+03    0.25832E-01   -0.48476E-02 13662   0.370E-01    0.323E+00
RMM:   8    -0.702568165534E+03    0.15428E-01   -0.36641E-02 13924   0.302E-01    0.244E+00
RMM:   9    -0.702532926811E+03    0.35239E-01   -0.13379E-02 13445   0.203E-01    0.891E-01
RMM:  10    -0.702527579369E+03    0.53474E-02   -0.46232E-03 13492   0.101E-01    0.411E-01
RMM:  11    -0.702527199343E+03    0.38003E-03   -0.13115E-03 13133   0.590E-02    0.259E-01
RMM:  12    -0.702527619622E+03   -0.42028E-03   -0.69556E-04 11885   0.376E-02    0.213E-01
RMM:  13    -0.702527216902E+03    0.40272E-03   -0.55642E-04 11150   0.343E-02    0.164E-01
RMM:  14    -0.702527030727E+03    0.18617E-03   -0.28532E-04  9438   0.270E-02    0.144E-01
RMM:  15    -0.702527087470E+03   -0.56743E-04   -0.12751E-04  8396   0.192E-02
   2 F= -.70252709E+03 E0= -.70191318E+03  d E =0.234499E+01  mag=     7.3277
       N       E                     dE             d eps       ncg     rms          rms(c)
DAV:   1    -0.705771493161E+03   -0.32445E+01   -0.21020E+02 13824   0.193E+01    0.139E+01
RMM:   2    -0.717787822390E+03   -0.12016E+02   -0.31432E+01 13549   0.507E+00    0.419E+01
RMM:   3    -0.713869017970E+03    0.39188E+01   -0.37740E+00 13492   0.315E+00    0.311E+01
RMM:   4    -0.710903423203E+03    0.29656E+01   -0.13722E+00 13468   0.189E+00    0.247E+01
RMM:   5    -0.706235893315E+03    0.46675E+01   -0.17538E+00 13982   0.166E+00    0.996E+00
RMM:   6    -0.705688474469E+03    0.54742E+00   -0.51854E-01 14087   0.996E-01    0.736E+00
RMM:   7    -0.705337268851E+03    0.35121E+00   -0.40534E-01 14564   0.757E-01    0.504E+00
RMM:   8    -0.705155104531E+03    0.18216E+00   -0.28002E-01 15089   0.588E-01    0.389E+00
RMM:   9    -0.705082275198E+03    0.72829E-01   -0.93612E-02 14980   0.364E-01    0.254E+00
RMM:  10    -0.705064843024E+03    0.17432E-01   -0.29292E-02 14191   0.229E-01    0.189E+00
RMM:  11    -0.705056292915E+03    0.85501E-02   -0.12416E-02 13493   0.185E-01    0.126E+00
RMM:  12    -0.705053683258E+03    0.26097E-02   -0.10734E-02 13682   0.155E-01    0.782E-01
RMM:  13    -0.705052825010E+03    0.85825E-03   -0.37903E-03 13311   0.993E-02    0.543E-01
RMM:  14    -0.705052459497E+03    0.36551E-03   -0.15258E-03 13068   0.615E-02    0.417E-01
RMM:  15    -0.705052351237E+03    0.10826E-03   -0.51211E-04 11291   0.357E-02    0.274E-01
RMM:  16    -0.705052237670E+03    0.11357E-03   -0.35351E-04  9639   0.273E-02    0.252E-01
RMM:  17    -0.705052255439E+03   -0.17769E-04   -0.17311E-04  8668   0.224E-02
   3 F= -.70505226E+03 E0= -.70443402E+03  d E =-.180182E+00  mag=     7.2977
       N       E                     dE             d eps       ncg     rms          rms(c)
DAV:   1    -0.705087617489E+03   -0.35380E-01   -0.10421E+00 13952   0.136E+00    0.621E-01
RMM:   2    -0.705128250598E+03   -0.40633E-01   -0.45275E-02 13430   0.279E-01    0.285E+00
RMM:   3    -0.705097762492E+03    0.30488E-01   -0.77462E-03 13396   0.168E-01    0.130E+00
RMM:   4    -0.705090676735E+03    0.70858E-02   -0.23514E-03 12813   0.826E-02    0.714E-01
RMM:   5    -0.705089850727E+03    0.82601E-03   -0.11891E-03 11780   0.531E-02    0.531E-01
RMM:   6    -0.705089866176E+03   -0.15449E-04   -0.41187E-04 10203   0.304E-02    0.392E-01
RMM:   7    -0.705090089094E+03   -0.22292E-03   -0.37221E-04 10029   0.295E-02    0.282E-01
RMM:   8    -0.705090278385E+03   -0.18929E-03   -0.29800E-04  9519   0.260E-02    0.153E-01
RMM:   9    -0.705090298821E+03   -0.20436E-04   -0.69490E-05  7753   0.160E-02
   4 F= -.70509030E+03 E0= -.70447235E+03  d E =-.218226E+00  mag=     7.2904
       N       E                     dE             d eps       ncg     rms          rms(c)
DAV:   1    -0.705090264364E+03    0.14021E-04   -0.92691E+00 13904   0.405E+00    0.158E+00
RMM:   2    -0.705320425394E+03   -0.23016E+00   -0.34991E-01 13440   0.758E-01    0.688E+00
RMM:   3    -0.705126300660E+03    0.19412E+00   -0.55007E-02 13451   0.432E-01    0.289E+00
RMM:   4    -0.705105656612E+03    0.20644E-01   -0.17905E-02 13459   0.220E-01    0.234E+00
RMM:   5    -0.705093331651E+03    0.12325E-01   -0.66221E-03 13317   0.144E-01    0.176E+00
RMM:   6    -0.705089257956E+03    0.40737E-02   -0.25863E-03 12793   0.782E-02    0.141E+00
RMM:   7    -0.705083860217E+03    0.53977E-02   -0.46972E-03 14429   0.897E-02    0.831E-01
RMM:   8    -0.705081218592E+03    0.26416E-02   -0.23946E-03 13350   0.721E-02    0.417E-01
RMM:   9    -0.705080919790E+03    0.29880E-03   -0.65934E-04 11963   0.403E-02    0.238E-01
RMM:  10    -0.705080922284E+03   -0.24944E-05   -0.25652E-04  9288   0.251E-02
   5 F= -.70508092E+03 E0= -.70446358E+03  d E =-.208849E+00  mag=     7.3046
       N       E                     dE             d eps       ncg     rms          rms(c)
DAV:   1    -0.705133062758E+03   -0.52143E-01   -0.34431E+00 13952   0.247E+00    0.130E+00
RMM:   2    -0.705303911203E+03   -0.17085E+00   -0.20817E-01 13449   0.594E-01    0.569E+00
RMM:   3    -0.705179054258E+03    0.12486E+00   -0.31866E-02 13441   0.348E-01    0.289E+00
RMM:   4    -0.705150042973E+03    0.29011E-01   -0.10965E-02 13446   0.172E-01    0.207E+00
RMM:   5    -0.705130499427E+03    0.19544E-01   -0.11619E-02 13603   0.139E-01    0.109E+00
RMM:   6    -0.705127078922E+03    0.34205E-02   -0.57382E-03 13823   0.960E-02    0.542E-01
RMM:   7    -0.705126475814E+03    0.60311E-03   -0.19562E-03 13073   0.647E-02    0.280E-01
RMM:   8    -0.705126697208E+03   -0.22139E-03   -0.73385E-04 12133   0.443E-02    0.371E-01
RMM:   9    -0.705126503278E+03    0.19393E-03   -0.25721E-04  9361   0.288E-02    0.313E-01
RMM:  10    -0.705126293801E+03    0.20948E-03   -0.12334E-04  8089   0.200E-02    0.193E-01
RMM:  11    -0.705126204207E+03    0.89594E-04   -0.55960E-05  7606   0.139E-02
   6 F= -.70512620E+03 E0= -.70450866E+03  d E =-.254131E+00  mag=     7.3031
       N       E                     dE             d eps       ncg     rms          rms(c)
DAV:   1    -0.705125057510E+03    0.12363E-02   -0.73965E-01 13888   0.114E+00    0.501E-01
RMM:   2    -0.705149332430E+03   -0.24275E-01   -0.31450E-02 13389   0.233E-01    0.222E+00
RMM:   3    -0.705129914425E+03    0.19418E-01   -0.51285E-03 13132   0.139E-01    0.102E+00
RMM:   4    -0.705125991129E+03    0.39233E-02   -0.16469E-03 12634   0.666E-02    0.629E-01
RMM:   5    -0.705124853874E+03    0.11373E-02   -0.10663E-03 11369   0.475E-02    0.437E-01
RMM:   6    -0.705124284461E+03    0.56941E-03   -0.37895E-04  9965   0.299E-02    0.295E-01
RMM:   7    -0.705123998362E+03    0.28610E-03   -0.27638E-04  9308   0.261E-02    0.197E-01
RMM:   8    -0.705123830120E+03    0.16824E-03   -0.17891E-04  8310   0.217E-02    0.119E-01
RMM:   9    -0.705123782111E+03    0.48008E-04   -0.47887E-05  7414   0.140E-02
   7 F= -.70512378E+03 E0= -.70450642E+03  d E =-.251709E+00  mag=     7.3091
       N       E                     dE             d eps       ncg     rms          rms(c)
DAV:   1    -0.705129935005E+03   -0.61049E-02   -0.28584E-01 13936   0.711E-01    0.355E-01
RMM:   2    -0.705145394683E+03   -0.15460E-01   -0.15143E-02 13337   0.161E-01    0.173E+00
RMM:   3    -0.705132971212E+03    0.12423E-01   -0.25245E-03 12829   0.988E-02    0.773E-01
RMM:   4    -0.705130654163E+03    0.23170E-02   -0.82127E-04 11914   0.474E-02    0.470E-01
RMM:   5    -0.705129878479E+03    0.77568E-03   -0.71307E-04 10338   0.361E-02    0.292E-01
RMM:   6    -0.705129701507E+03    0.17697E-03   -0.32922E-04  9409   0.258E-02    0.153E-01
RMM:   7    -0.705129690496E+03    0.11011E-04   -0.13154E-04  7782   0.196E-02    0.943E-02
RMM:   8    -0.705129747847E+03   -0.57351E-04   -0.57140E-05  7457   0.145E-02
   8 F= -.70512975E+03 E0= -.70451241E+03  d E =-.257675E+00  mag=     7.3098
       N       E                     dE             d eps       ncg     rms          rms(c)
DAV:   1    -0.704041983973E+03    0.10877E+01   -0.14067E+02 13488   0.183E+01    0.346E+00
RMM:   2    -0.704756863287E+03   -0.71488E+00   -0.33522E+00 13440   0.311E+00    0.125E+01
RMM:   3    -0.704350318979E+03    0.40654E+00   -0.46910E-01 13489   0.134E+00    0.594E+00
RMM:   4    -0.704467947427E+03   -0.11763E+00   -0.14418E-01 15514   0.610E-01    0.683E+00
RMM:   5    -0.704481280849E+03   -0.13333E-01   -0.61768E-02 13513   0.391E-01    0.773E+00
RMM:   6    -0.704356405337E+03    0.12488E+00   -0.25731E-02 13499   0.308E-01    0.572E+00
RMM:   7    -0.704298246304E+03    0.58159E-01   -0.62141E-02 14791   0.328E-01    0.341E+00
RMM:   8    -0.704247465456E+03    0.50781E-01   -0.23742E-02 13880   0.239E-01    0.203E+00
RMM:   9    -0.704232551742E+03    0.14914E-01   -0.80210E-03 13445   0.150E-01    0.153E+00
RMM:  10    -0.704234333515E+03   -0.17818E-02   -0.27770E-03 13886   0.826E-02    0.141E+00
RMM:  11    -0.704237971041E+03   -0.36375E-02   -0.87158E-04 12509   0.425E-02    0.128E+00
RMM:  12    -0.704248285920E+03   -0.10315E-01   -0.30512E-03 14734   0.672E-02    0.839E-01
RMM:  13    -0.704257382455E+03   -0.90965E-02   -0.27805E-03 14810   0.643E-02    0.466E-01
RMM:  14    -0.704262221754E+03   -0.48393E-02   -0.60800E-04 12338   0.380E-02    0.303E-01
RMM:  15    -0.704266118006E+03   -0.38963E-02   -0.38250E-04 10340   0.282E-02    0.214E-01
RMM:  16    -0.704271400716E+03   -0.52827E-02   -0.44634E-04 10279   0.271E-02    0.116E-01
RMM:  17    -0.704274316374E+03   -0.29157E-02   -0.15589E-04  8496   0.196E-02    0.748E-02
RMM:  18    -0.704275393405E+03   -0.10770E-02   -0.54168E-05  8021   0.140E-02    0.367E-02
RMM:  19    -0.704276233059E+03   -0.83965E-03   -0.24133E-05  7509   0.809E-03    0.204E-02
RMM:  20    -0.704276842106E+03   -0.60905E-03   -0.11902E-05  6882   0.591E-03    0.175E-02
RMM:  21    -0.704277380726E+03   -0.53862E-03   -0.83634E-06  5986   0.449E-03    0.129E-02
RMM:  22    -0.704278072247E+03   -0.69152E-03   -0.10119E-05  6449   0.451E-03    0.117E-02
RMM:  23    -0.704278392513E+03   -0.32027E-03   -0.40717E-06  4847   0.368E-03    0.786E-03
RMM:  24    -0.704278708974E+03   -0.31646E-03   -0.29612E-06  4147   0.323E-03    0.660E-03
RMM:  25    -0.704278944257E+03   -0.23528E-03   -0.21522E-06  3856   0.315E-03    0.608E-03
RMM:  26    -0.704279242742E+03   -0.29848E-03   -0.19914E-06  3544   0.305E-03    0.498E-03
RMM:  27    -0.704279523034E+03   -0.28029E-03   -0.20441E-06  3526   0.303E-03    0.364E-03
RMM:  28    -0.704279817417E+03   -0.29438E-03   -0.24284E-06  3564   0.306E-03    0.295E-03
RMM:  29    -0.704280036196E+03   -0.21878E-03   -0.19659E-06  3370   0.302E-03    0.304E-03
RMM:  30    -0.704280167315E+03   -0.13112E-03   -0.10830E-06  2924   0.292E-03    0.228E-03
RMM:  31    -0.704280308308E+03   -0.14099E-03   -0.11091E-06  2800   0.288E-03    0.261E-03
RMM:  32    -0.704280431344E+03   -0.12304E-03   -0.99206E-07  2751   0.288E-03    0.199E-03
RMM:  33    -0.704280538116E+03   -0.10677E-03   -0.86324E-07  2644   0.288E-03    0.203E-03
RMM:  34    -0.704280586698E+03   -0.48583E-04   -0.50517E-07  2405   0.285E-03
   9 F= -.70428059E+03 E0= -.70366498E+03  d E =0.849161E+00  mag=     7.1786
       N       E                     dE             d eps       ncg     rms          rms(c)
DAV:   1    -0.704971325755E+03   -0.69079E+00   -0.97146E+01 13536   0.153E+01    0.379E+00
RMM:   2    -0.705929684919E+03   -0.95836E+00   -0.29780E+00 13440   0.286E+00    0.134E+01
RMM:   3    -0.705395345975E+03    0.53434E+00   -0.37851E-01 13462   0.128E+00    0.769E+00
RMM:   4    -0.705433108423E+03   -0.37762E-01   -0.12179E-01 14349   0.565E-01    0.767E+00
RMM:   5    -0.705158125183E+03    0.27498E+00   -0.16695E-01 14226   0.521E-01    0.540E+00
RMM:   6    -0.705133392177E+03    0.24733E-01   -0.46152E-02 14287   0.304E-01    0.423E+00
RMM:   7    -0.705125106502E+03    0.82857E-02   -0.28874E-02 13843   0.246E-01    0.333E+00
RMM:   8    -0.705092251429E+03    0.32855E-01   -0.21221E-02 13829   0.224E-01    0.195E+00
RMM:   9    -0.705082570172E+03    0.96813E-02   -0.72616E-03 13423   0.149E-01    0.106E+00
RMM:  10    -0.705080488778E+03    0.20814E-02   -0.31309E-03 13191   0.930E-02    0.709E-01
RMM:  11    -0.705080622413E+03   -0.13363E-03   -0.11805E-03 13371   0.450E-02    0.634E-01
RMM:  12    -0.705080956754E+03   -0.33434E-03   -0.28076E-04  9733   0.274E-02    0.588E-01
RMM:  13    -0.705080299513E+03    0.65724E-03   -0.59892E-04 11091   0.343E-02    0.374E-01
RMM:  14    -0.705079981195E+03    0.31832E-03   -0.42159E-04 10475   0.297E-02    0.227E-01
RMM:  15    -0.705079998666E+03   -0.17471E-04   -0.10401E-04  8119   0.194E-02
  10 F= -.70508000E+03 E0= -.70446273E+03  d E =0.497492E-01  mag=     7.2137
       N       E                     dE             d eps       ncg     rms          rms(c)
DAV:   1    -0.705140967472E+03   -0.60986E-01   -0.13751E+00 14080   0.182E+00    0.425E-01
RMM:   2    -0.705152780186E+03   -0.11813E-01   -0.35319E-02 13440   0.314E-01    0.175E+00
RMM:   3    -0.705145021554E+03    0.77586E-02   -0.43169E-03 13368   0.136E-01    0.842E-01
RMM:   4    -0.705150705566E+03   -0.56840E-02   -0.22237E-03 13153   0.705E-02    0.139E+00
RMM:   5    -0.705143564217E+03    0.71413E-02   -0.12016E-03 12704   0.590E-02    0.684E-01
RMM:   6    -0.705142581693E+03    0.98252E-03   -0.63743E-04 11859   0.394E-02    0.378E-01
RMM:   7    -0.705142696471E+03   -0.11478E-03   -0.23515E-04  9169   0.265E-02    0.309E-01
RMM:   8    -0.705143035599E+03   -0.33913E-03   -0.13857E-04  8286   0.208E-02    0.280E-01
RMM:   9    -0.705143082584E+03   -0.46986E-04   -0.66086E-05  7772   0.155E-02
  11 F= -.70514308E+03 E0= -.70452565E+03  d E =-.133347E-01  mag=     7.2372
       N       E                     dE             d eps       ncg     rms          rms(c)
DAV:   1    -0.705144911583E+03   -0.18760E-02   -0.39151E-02 14128   0.308E-01    0.127E-01
RMM:   2    -0.705145390411E+03   -0.47883E-03   -0.10253E-03 12294   0.550E-02    0.188E-01
RMM:   3    -0.705145332483E+03    0.57927E-04   -0.14564E-04  7980   0.238E-02    0.102E-01
RMM:   4    -0.705145832244E+03   -0.49976E-03   -0.10460E-04  7837   0.177E-02    0.283E-01
RMM:   5    -0.705145798548E+03    0.33697E-04   -0.90523E-05  7640   0.168E-02    0.197E-01
RMM:   6    -0.705145874898E+03   -0.76350E-04   -0.45734E-05  7515   0.139E-02    0.580E-02
RMM:   7    -0.705146048522E+03   -0.17362E-03   -0.16171E-05  6727   0.747E-03    0.331E-02
RMM:   8    -0.705146169324E+03   -0.12080E-03   -0.61774E-06  6151   0.519E-03    0.225E-02
RMM:   9    -0.705146277188E+03   -0.10786E-03   -0.11400E-06  3108   0.275E-03    0.151E-02
RMM:  10    -0.705146376024E+03   -0.98836E-04   -0.56703E-07  2626   0.262E-03
  12 F= -.70514638E+03 E0= -.70452896E+03  d E =-.166282E-01  mag=     7.2599
       N       E                     dE             d eps       ncg     rms          rms(c)
DAV:   1    -0.704812357002E+03    0.33392E+00   -0.62330E+01 13440   0.119E+01    0.220E+00
RMM:   2    -0.705009785726E+03   -0.19743E+00   -0.14320E+00 13440   0.207E+00    0.483E+00
RMM:   3    -0.704983094847E+03    0.26691E-01   -0.24748E-01 14554   0.845E-01    0.255E+00
RMM:   4    -0.705067240972E+03   -0.84146E-01   -0.61022E-02 13465   0.435E-01    0.535E+00
RMM:   5    -0.704972531499E+03    0.94709E-01   -0.29861E-02 13645   0.297E-01    0.334E+00
RMM:   6    -0.704945898047E+03    0.26633E-01   -0.12080E-02 13440   0.180E-01    0.197E+00
RMM:   7    -0.704936824771E+03    0.90733E-02   -0.13323E-02 14109   0.171E-01    0.138E+00
RMM:   8    -0.704931326728E+03    0.54980E-02   -0.46998E-03 13238   0.119E-01    0.792E-01
RMM:   9    -0.704929947212E+03    0.13795E-02   -0.18657E-03 13290   0.695E-02    0.492E-01
RMM:  10    -0.704930461999E+03   -0.51479E-03   -0.52138E-04 11532   0.377E-02    0.418E-01
RMM:  11    -0.704931115981E+03   -0.65398E-03   -0.35462E-04 10234   0.283E-02    0.288E-01
RMM:  12    -0.704931935177E+03   -0.81920E-03   -0.51916E-04 10676   0.315E-02    0.192E-01
RMM:  13    -0.704932325409E+03   -0.39023E-03   -0.24312E-04  9046   0.243E-02    0.900E-02
RMM:  14    -0.704932597617E+03   -0.27221E-03   -0.69659E-05  7980   0.162E-02    0.571E-02
RMM:  15    -0.704932847897E+03   -0.25028E-03   -0.24014E-05  7400   0.910E-03    0.414E-02
RMM:  16    -0.704933200691E+03   -0.35279E-03   -0.14657E-05  7147   0.668E-03    0.325E-02
RMM:  17    -0.704933711266E+03   -0.51057E-03   -0.12929E-05  6892   0.525E-03    0.217E-02
RMM:  18    -0.704933970415E+03   -0.25915E-03   -0.56845E-06  5251   0.401E-03    0.144E-02
RMM:  19    -0.704934155007E+03   -0.18459E-03   -0.29348E-06  4141   0.345E-03    0.908E-03
RMM:  20    -0.704934310250E+03   -0.15524E-03   -0.19660E-06  3697   0.313E-03    0.882E-03
RMM:  21    -0.704934564834E+03   -0.25458E-03   -0.29134E-06  4010   0.322E-03    0.936E-03
RMM:  22    -0.704935150413E+03   -0.58558E-03   -0.12197E-05  5664   0.409E-03    0.976E-03
RMM:  23    -0.704935517354E+03   -0.36694E-03   -0.79419E-06  4739   0.362E-03    0.777E-03
RMM:  24    -0.704935731467E+03   -0.21411E-03   -0.54894E-06  4539   0.355E-03    0.619E-03
RMM:  25    -0.704935899601E+03   -0.16813E-03   -0.36247E-06  3921   0.336E-03    0.572E-03
RMM:  26    -0.704936120835E+03   -0.22123E-03   -0.67295E-06  4576   0.355E-03    0.426E-03
RMM:  27    -0.704936226422E+03   -0.10559E-03   -0.39351E-06  4235   0.348E-03    0.357E-03
RMM:  28    -0.704936287831E+03   -0.61409E-04   -0.20387E-06  3394   0.316E-03
  13 F= -.70493629E+03 E0= -.70431712E+03  d E =0.210088E+00  mag=     7.1936
       N       E                     dE             d eps       ncg     rms          rms(c)
DAV:   1    -0.705041133138E+03   -0.10491E+00   -0.12045E+01 13856   0.526E+00    0.950E-01
RMM:   2    -0.705075480647E+03   -0.34348E-01   -0.23488E-01 13440   0.865E-01    0.214E+00
RMM:   3    -0.705068818583E+03    0.66621E-02   -0.38834E-02 14226   0.352E-01    0.115E+00
RMM:   4    -0.705081944417E+03   -0.13126E-01   -0.11077E-02 13502   0.185E-01    0.217E+00
RMM:   5    -0.705066942943E+03    0.15001E-01   -0.41370E-03 13414   0.121E-01    0.137E+00
RMM:   6    -0.705062439182E+03    0.45038E-02   -0.19825E-03 12974   0.749E-02    0.843E-01
RMM:   7    -0.705060016514E+03    0.24227E-02   -0.23500E-03 13550   0.725E-02    0.477E-01
RMM:   8    -0.705059035343E+03    0.98117E-03   -0.85801E-04 12427   0.521E-02    0.227E-01
RMM:   9    -0.705058977714E+03    0.57629E-04   -0.28294E-04  9550   0.262E-02
  14 F= -.70505898E+03 E0= -.70444053E+03  d E =0.873983E-01  mag=     7.2027
       N       E                     dE             d eps       ncg     rms          rms(c)
DAV:   1    -0.705138109150E+03   -0.79074E-01   -0.48328E+00 13792   0.333E+00    0.618E-01
RMM:   2    -0.705146617025E+03   -0.85079E-02   -0.93394E-02 13440   0.546E-01    0.750E-01
RMM:   3    -0.705146352408E+03    0.26462E-03   -0.13845E-02 14151   0.217E-01    0.354E-01
RMM:   4    -0.705158200780E+03   -0.11848E-01   -0.43808E-03 13589   0.110E-01    0.162E+00
RMM:   5    -0.705147013140E+03    0.11188E-01   -0.11546E-03 12892   0.665E-02    0.572E-01
RMM:   6    -0.705146783249E+03    0.22989E-03   -0.89766E-04 12578   0.484E-02    0.487E-01
RMM:   7    -0.705145802655E+03    0.98059E-03   -0.62999E-04 12333   0.427E-02    0.250E-01
RMM:   8    -0.705145509624E+03    0.29303E-03   -0.32937E-04  9961   0.306E-02    0.108E-01
RMM:   9    -0.705145540576E+03   -0.30952E-04   -0.91358E-05  8008   0.181E-02
  15 F= -.70514554E+03 E0= -.70452758E+03  d E =0.835447E-03  mag=     7.2195
       N       E                     dE             d eps       ncg     rms          rms(c)
DAV:   1    -0.705170813760E+03   -0.25304E-01   -0.12889E+00 13856   0.172E+00    0.306E-01
RMM:   2    -0.705173449696E+03   -0.26359E-02   -0.25051E-02 13440   0.281E-01    0.532E-01
RMM:   3    -0.705173593152E+03   -0.14346E-03   -0.40547E-03 14320   0.113E-01    0.335E-01
RMM:   4    -0.705176338781E+03   -0.27456E-02   -0.12081E-03 13004   0.595E-02    0.845E-01
RMM:   5    -0.705173608278E+03    0.27305E-02   -0.45730E-04 10941   0.407E-02    0.445E-01
RMM:   6    -0.705173127701E+03    0.48058E-03   -0.20316E-04  8679   0.248E-02    0.263E-01
RMM:   7    -0.705172984821E+03    0.14288E-03   -0.21844E-04  8729   0.244E-02    0.152E-01
RMM:   8    -0.705173002560E+03   -0.17739E-04   -0.81970E-05  7834   0.179E-02
  16 F= -.70517300E+03 E0= -.70455526E+03  d E =-.266265E-01  mag=     7.2357
       N       E                     dE             d eps       ncg     rms          rms(c)
DAV:   1    -0.705015165993E+03    0.15782E+00   -0.29120E+01 13440   0.778E+00    0.180E+00
RMM:   2    -0.705164149013E+03   -0.14898E+00   -0.78927E-01 13440   0.144E+00    0.514E+00
RMM:   3    -0.705105438641E+03    0.58710E-01   -0.12908E-01 14311   0.607E-01    0.262E+00
RMM:   4    -0.705148503104E+03   -0.43064E-01   -0.29423E-02 13570   0.299E-01    0.413E+00
RMM:   5    -0.705084422487E+03    0.64081E-01   -0.33120E-02 14059   0.259E-01    0.242E+00
RMM:   6    -0.705072572038E+03    0.11850E-01   -0.14031E-02 13665   0.179E-01    0.126E+00
RMM:   7    -0.705072478461E+03    0.93577E-04   -0.67122E-03 13560   0.134E-01    0.115E+00
RMM:   8    -0.705070638861E+03    0.18396E-02   -0.35969E-03 13274   0.103E-01    0.990E-01
RMM:   9    -0.705068613191E+03    0.20257E-02   -0.13117E-03 13038   0.577E-02    0.606E-01
RMM:  10    -0.705068112023E+03    0.50117E-03   -0.47917E-04 11199   0.369E-02    0.449E-01
RMM:  11    -0.705068056789E+03    0.55234E-04   -0.34281E-04  9889   0.274E-02
  17 F= -.70506806E+03 E0= -.70444949E+03  d E =0.104946E+00  mag=     7.2175
       N       E                     dE             d eps       ncg     rms          rms(c)
DAV:   1    -0.705128780844E+03   -0.60669E-01   -0.44963E+00 13920   0.309E+00    0.669E-01
RMM:   2    -0.705158859057E+03   -0.30078E-01   -0.99033E-02 13440   0.535E-01    0.239E+00
RMM:   3    -0.705141023226E+03    0.17836E-01   -0.14940E-02 13677   0.222E-01    0.104E+00
RMM:   4    -0.705141759620E+03   -0.73639E-03   -0.42462E-03 13834   0.113E-01    0.114E+00
RMM:   5    -0.705139466064E+03    0.22936E-02   -0.23075E-03 13123   0.796E-02    0.941E-01
RMM:   6    -0.705137950998E+03    0.15151E-02   -0.13701E-03 12749   0.608E-02    0.640E-01
RMM:   7    -0.705137494613E+03    0.45639E-03   -0.13786E-03 13187   0.533E-02    0.371E-01
RMM:   8    -0.705137150971E+03    0.34364E-03   -0.64107E-04 11797   0.396E-02    0.222E-01
RMM:   9    -0.705137127763E+03    0.23208E-04   -0.17101E-04  8478   0.222E-02
  18 F= -.70513713E+03 E0= -.70451893E+03  d E =0.358748E-01  mag=     7.2182
       N       E                     dE             d eps       ncg     rms          rms(c)
DAV:   1    -0.705156428585E+03   -0.19278E-01   -0.10290E+00 13744   0.147E+00    0.363E-01
RMM:   2    -0.705158901669E+03   -0.24731E-02   -0.23623E-02 13440   0.261E-01    0.501E-01
RMM:   3    -0.705158507964E+03    0.39371E-03   -0.33992E-03 14105   0.101E-01    0.280E-01
RMM:   4    -0.705162783123E+03   -0.42752E-02   -0.11461E-03 12878   0.556E-02    0.888E-01
RMM:   5    -0.705159145278E+03    0.36378E-02   -0.63637E-04 12282   0.458E-02    0.498E-01
RMM:   6    -0.705158399277E+03    0.74600E-03   -0.23775E-04  9040   0.289E-02    0.214E-01
RMM:   7    -0.705158284487E+03    0.11479E-03   -0.20948E-04  8705   0.236E-02    0.155E-01
RMM:   8    -0.705158127258E+03    0.15723E-03   -0.10577E-04  7881   0.203E-02    0.780E-02
RMM:   9    -0.705158103704E+03    0.23554E-04   -0.26388E-05  7342   0.104E-02
  19 F= -.70515810E+03 E0= -.70454006E+03  d E =0.148989E-01  mag=     7.2246
       N       E                     dE             d eps       ncg     rms          rms(c)
DAV:   1    -0.705181235205E+03   -0.23108E-01   -0.12995E+00 13760   0.165E+00    0.369E-01
RMM:   2    -0.705186194904E+03   -0.49597E-02   -0.29493E-02 13440   0.287E-01    0.923E-01
RMM:   3    -0.705184217289E+03    0.19776E-02   -0.45519E-03 14096   0.116E-01    0.474E-01
RMM:   4    -0.705186507059E+03   -0.22898E-02   -0.12651E-03 12895   0.604E-02    0.835E-01
RMM:   5    -0.705184056052E+03    0.24510E-02   -0.88759E-04 12518   0.496E-02    0.539E-01
RMM:   6    -0.705183234543E+03    0.82151E-03   -0.39490E-04 10212   0.346E-02    0.307E-01
RMM:   7    -0.705183006819E+03    0.22772E-03   -0.33839E-04  9902   0.284E-02    0.201E-01
RMM:   8    -0.705182810384E+03    0.19643E-03   -0.17481E-04  8339   0.232E-02    0.133E-01
RMM:   9    -0.705182789402E+03    0.20982E-04   -0.42983E-05  7564   0.135E-02
  20 F= -.70518279E+03 E0= -.70456491E+03  d E =-.978684E-02  mag=     7.2349
       N       E                     dE             d eps       ncg     rms          rms(c)
DAV:   1    -0.705186378846E+03   -0.35685E-02   -0.32507E-01 14048   0.825E-01    0.203E-01
RMM:   2    -0.705187166444E+03   -0.78760E-03   -0.74287E-03 13440   0.144E-01    0.293E-01
RMM:   3    -0.705186983516E+03    0.18293E-03   -0.10300E-03 12608   0.565E-02    0.138E-01
RMM:   4    -0.705188293277E+03   -0.13098E-02   -0.38729E-04 10492   0.332E-02    0.479E-01
RMM:   5    -0.705187333224E+03    0.96005E-03   -0.20608E-04  8521   0.270E-02    0.319E-01
RMM:   6    -0.705186969760E+03    0.36346E-03   -0.85221E-05  7742   0.181E-02    0.125E-01
RMM:   7    -0.705186928251E+03    0.41509E-04   -0.65021E-05  7522   0.131E-02    0.781E-02
RMM:   8    -0.705186907599E+03    0.20652E-04   -0.32709E-05  7063   0.114E-02
  21 F= -.70518691E+03 E0= -.70456915E+03  d E =-.139050E-01  mag=     7.2451
       N       E                     dE             d eps       ncg     rms          rms(c)
DAV:   1    -0.705086596667E+03    0.10033E+00   -0.98447E+00 13536   0.491E+00    0.878E-01
RMM:   2    -0.705131559496E+03   -0.44963E-01   -0.23587E-01 13440   0.854E-01    0.304E+00
RMM:   3    -0.705113292911E+03    0.18267E-01   -0.32667E-02 13680   0.350E-01    0.159E+00
RMM:   4    -0.705138130375E+03   -0.24837E-01   -0.10501E-02 14242   0.171E-01    0.266E+00
RMM:   5    -0.705107856996E+03    0.30273E-01   -0.70784E-03 13591   0.130E-01    0.129E+00
RMM:   6    -0.705105166008E+03    0.26910E-02   -0.23468E-03 13002   0.801E-02    0.846E-01
RMM:   7    -0.705105964323E+03   -0.79832E-03   -0.16371E-03 13006   0.648E-02    0.831E-01
RMM:   8    -0.705106113344E+03   -0.14902E-03   -0.11950E-03 13001   0.549E-02    0.669E-01
RMM:   9    -0.705105175414E+03    0.93793E-03   -0.43154E-04 11031   0.343E-02    0.420E-01
RMM:  10    -0.705104988916E+03    0.18650E-03   -0.19756E-04  8840   0.229E-02    0.305E-01
RMM:  11    -0.705105043717E+03   -0.54801E-04   -0.70443E-05  8001   0.153E-02
  22 F= -.70510504E+03 E0= -.70448727E+03  d E =0.818639E-01  mag=     7.2533
       N       E                     dE             d eps       ncg     rms          rms(c)
DAV:   1    -0.705148079904E+03   -0.43091E-01   -0.16633E+00 13888   0.201E+00    0.402E-01
RMM:   2    -0.705158761833E+03   -0.10682E-01   -0.38722E-02 13440   0.351E-01    0.155E+00
RMM:   3    -0.705151803477E+03    0.69584E-02   -0.52698E-03 13436   0.152E-01    0.516E-01
RMM:   4    -0.705152762482E+03   -0.95900E-03   -0.15948E-03 13823   0.674E-02    0.677E-01
RMM:   5    -0.705151605737E+03    0.11567E-02   -0.62323E-04 11914   0.431E-02    0.507E-01
RMM:   6    -0.705151327480E+03    0.27826E-03   -0.29838E-04  9659   0.302E-02    0.391E-01
RMM:   7    -0.705151201996E+03    0.12548E-03   -0.38498E-04 10043   0.316E-02    0.261E-01
RMM:   8    -0.705151033471E+03    0.16852E-03   -0.29243E-04  9216   0.257E-02    0.153E-01
RMM:   9    -0.705151020330E+03    0.13141E-04   -0.65459E-05  7683   0.166E-02
  23 F= -.70515102E+03 E0= -.70453337E+03  d E =0.358873E-01  mag=     7.2594
       N       E                     dE             d eps       ncg     rms          rms(c)
DAV:   1    -0.705190207368E+03   -0.39174E-01   -0.11868E+00 13872   0.170E+00    0.315E-01
RMM:   2    -0.705195258504E+03   -0.50511E-02   -0.27058E-02 13440   0.294E-01    0.938E-01
RMM:   3    -0.705193292874E+03    0.19656E-02   -0.39865E-03 13899   0.118E-01    0.510E-01
RMM:   4    -0.705195306872E+03   -0.20140E-02   -0.10682E-03 13303   0.568E-02    0.755E-01
RMM:   5    -0.705193293819E+03    0.20131E-02   -0.75735E-04 12261   0.438E-02    0.529E-01
RMM:   6    -0.705192878637E+03    0.41518E-03   -0.23496E-04  9047   0.284E-02    0.342E-01
RMM:   7    -0.705192986865E+03   -0.10823E-03   -0.27795E-04  9217   0.261E-02    0.276E-01
RMM:   8    -0.705192903836E+03    0.83029E-04   -0.17867E-04  8412   0.230E-02
  24 F= -.70519290E+03 E0= -.70457500E+03  d E =-.599624E-02  mag=     7.2638
       N       E                     dE             d eps       ncg     rms          rms(c)
DAV:   1    -0.705195265048E+03   -0.22782E-02   -0.75926E-02 14144   0.433E-01    0.164E-01
RMM:   2    -0.705195832885E+03   -0.56784E-03   -0.19298E-03 13254   0.793E-02    0.287E-01
RMM:   3    -0.705196184303E+03   -0.35142E-03   -0.42124E-04 10754   0.392E-02    0.377E-01
RMM:   4    -0.705195735936E+03    0.44837E-03   -0.19765E-04  8366   0.249E-02    0.236E-01
RMM:   5    -0.705195545905E+03    0.19003E-03   -0.73201E-05  7708   0.184E-02    0.969E-02
RMM:   6    -0.705195574209E+03   -0.28305E-04   -0.50437E-05  7436   0.113E-02    0.896E-02
RMM:   7    -0.705195560902E+03    0.13307E-04   -0.33545E-05  7269   0.115E-02    0.697E-02
RMM:   8    -0.705195554148E+03    0.67540E-05   -0.94656E-06  6495   0.662E-03
  25 F= -.70519555E+03 E0= -.70457778E+03  d E =-.864655E-02  mag=     7.2668
       N       E                     dE             d eps       ncg     rms          rms(c)
DAV:   1    -0.705152429224E+03    0.43132E-01   -0.28890E+00 13472   0.256E+00    0.454E-01
RMM:   2    -0.705164959227E+03   -0.12530E-01   -0.65555E-02 13440   0.443E-01    0.169E+00
RMM:   3    -0.705160621808E+03    0.43374E-02   -0.91991E-03 13781   0.180E-01    0.982E-01
RMM:   4    -0.705169367444E+03   -0.87456E-02   -0.30690E-03 13734   0.901E-02    0.157E+00
RMM:   5    -0.705158315541E+03    0.11052E-01   -0.16165E-03 12974   0.689E-02    0.597E-01
RMM:   6    -0.705158167168E+03    0.14837E-03   -0.51294E-04 11588   0.384E-02    0.542E-01
RMM:   7    -0.705158518895E+03   -0.35173E-03   -0.39477E-04 10549   0.335E-02    0.554E-01
RMM:   8    -0.705158278828E+03    0.24007E-03   -0.40981E-04 10022   0.318E-02    0.387E-01
RMM:   9    -0.705158004707E+03    0.27412E-03   -0.11107E-04  7983   0.200E-02    0.260E-01
RMM:  10    -0.705157950905E+03    0.53802E-04   -0.44864E-05  7612   0.124E-02
  26 F= -.70515795E+03 E0= -.70454012E+03  d E =0.376032E-01  mag=     7.2703
       N       E                     dE             d eps       ncg     rms          rms(c)
DAV:   1    -0.705193811624E+03   -0.35807E-01   -0.13682E+00 13792   0.176E+00    0.346E-01
RMM:   2    -0.705201146244E+03   -0.73346E-02   -0.30481E-02 13440   0.304E-01    0.126E+00
RMM:   3    -0.705196638562E+03    0.45077E-02   -0.41668E-03 13393   0.132E-01    0.396E-01
RMM:   4    -0.705198261072E+03   -0.16225E-02   -0.14493E-03 13756   0.598E-02    0.665E-01
RMM:   5    -0.705196697770E+03    0.15633E-02   -0.39881E-04 10754   0.350E-02    0.421E-01
RMM:   6    -0.705196576132E+03    0.12164E-03   -0.24893E-04  9113   0.281E-02    0.350E-01
RMM:   7    -0.705196425692E+03    0.15044E-03   -0.31755E-04  9388   0.288E-02    0.208E-01
RMM:   8    -0.705196348610E+03    0.77082E-04   -0.15564E-04  8170   0.210E-02
  27 F= -.70519635E+03 E0= -.70457843E+03  d E =-.794463E-03  mag=     7.2720
       N       E                     dE             d eps       ncg     rms          rms(c)
DAV:   1    -0.705197882619E+03   -0.14569E-02   -0.53571E-02 14032   0.350E-01    0.121E-01
RMM:   2    -0.705198184193E+03   -0.30157E-03   -0.12397E-03 12811   0.629E-02    0.183E-01
RMM:   3    -0.705198485192E+03   -0.30100E-03   -0.27934E-04  9081   0.308E-02    0.313E-01
RMM:   4    -0.705198164449E+03    0.32074E-03   -0.11976E-04  7813   0.203E-02    0.193E-01
RMM:   5    -0.705198100289E+03    0.64160E-04   -0.29686E-05  7320   0.120E-02    0.128E-01
RMM:   6    -0.705198141671E+03   -0.41382E-04   -0.36714E-05  7114   0.886E-03    0.125E-01
RMM:   7    -0.705198102891E+03    0.38780E-04   -0.23449E-05  6969   0.935E-03    0.860E-02
RMM:   8    -0.705198071735E+03    0.31156E-04   -0.11113E-05  6371   0.652E-03
  28 F= -.70519807E+03 E0= -.70458029E+03  d E =-.251759E-02  mag=     7.2731
       N       E                     dE             d eps       ncg     rms          rms(c)
DAV:   1    -0.705194719719E+03    0.33832E-02   -0.87316E-01 13760   0.137E+00    0.214E-01
RMM:   2    -0.705196502899E+03   -0.17832E-02   -0.16446E-02 13440   0.227E-01    0.322E-01
RMM:   3    -0.705196873270E+03   -0.37037E-03   -0.24881E-03 14011   0.896E-02    0.326E-01
RMM:   4    -0.705196683323E+03    0.18995E-03   -0.65822E-04 11727   0.424E-02    0.217E-01
RMM:   5    -0.705196629374E+03    0.53949E-04   -0.19929E-04  8537   0.259E-02    0.219E-01
RMM:   6    -0.705196539195E+03    0.90180E-04   -0.19419E-04  8556   0.248E-02    0.146E-01
RMM:   7    -0.705196495983E+03    0.43212E-04   -0.10932E-04  7951   0.186E-02    0.890E-02
RMM:   8    -0.705196484261E+03    0.11721E-04   -0.56837E-05  7533   0.143E-02
  29 F= -.70519648E+03 E0= -.70457874E+03  d E =0.158747E-02  mag=     7.2741
       N       E                     dE             d eps       ncg     rms          rms(c)
DAV:   1    -0.705200717173E+03   -0.42212E-02   -0.25062E-01 13968   0.735E-01    0.112E-01
RMM:   2    -0.705201296835E+03   -0.57966E-03   -0.46338E-03 13440   0.121E-01    0.213E-01
RMM:   3    -0.705201350037E+03   -0.53202E-04   -0.69170E-04 12492   0.481E-02    0.196E-01
RMM:   4    -0.705201211661E+03    0.13838E-03   -0.16846E-04  8143   0.238E-02    0.933E-02
RMM:   5    -0.705201211206E+03    0.45401E-06   -0.58092E-05  7469   0.167E-02    0.895E-02
RMM:   6    -0.705201216307E+03   -0.51008E-05   -0.64211E-05  7335   0.128E-02    0.885E-02
RMM:   7    -0.705201195412E+03    0.20896E-04   -0.37719E-05  7042   0.119E-02    0.451E-02
RMM:   8    -0.705201195080E+03    0.33141E-06   -0.17637E-05  6641   0.789E-03
  30 F= -.70520120E+03 E0= -.70458342E+03  d E =-.312335E-02  mag=     7.2746
       N       E                     dE             d eps       ncg     rms          rms(c)
DAV:   1    -0.705205790988E+03   -0.45956E-02   -0.22964E-01 13920   0.706E-01    0.121E-01
RMM:   2    -0.705206517595E+03   -0.72661E-03   -0.40163E-03 13439   0.115E-01    0.351E-01
RMM:   3    -0.705206203399E+03    0.31420E-03   -0.70370E-04 12736   0.478E-02    0.154E-01
RMM:   4    -0.705206447847E+03   -0.24445E-03   -0.19629E-04  8492   0.242E-02    0.252E-01
RMM:   5    -0.705206197767E+03    0.25008E-03   -0.89242E-05  7743   0.198E-02    0.146E-01
RMM:   6    -0.705206164876E+03    0.32891E-04   -0.48089E-05  7419   0.124E-02    0.103E-01
RMM:   7    -0.705206147627E+03    0.17249E-04   -0.43645E-05  7325   0.118E-02    0.600E-02
RMM:   8    -0.705206148314E+03   -0.68673E-06   -0.15852E-05  6681   0.810E-03
  31 F= -.70520615E+03 E0= -.70458841E+03  d E =-.495323E-02  mag=     7.2758
       N       E                     dE             d eps       ncg     rms          rms(c)
DAV:   1    -0.705206225415E+03   -0.77788E-04   -0.29581E-03 13392   0.807E-02    0.401E-02
RMM:   2    -0.705206406604E+03   -0.18119E-03   -0.95418E-05  7417   0.163E-02    0.180E-01
RMM:   3    -0.705206264797E+03    0.14181E-03   -0.36677E-05  7209   0.129E-02    0.878E-02
RMM:   4    -0.705206243866E+03    0.20931E-04   -0.12236E-05  6556   0.654E-03    0.528E-02
RMM:   5    -0.705206237325E+03    0.65406E-05   -0.28992E-06  5131   0.406E-03    0.320E-02
RMM:   6    -0.705206239701E+03   -0.23758E-05   -0.40584E-07  2630   0.272E-03    0.270E-02
RMM:   7    -0.705206241359E+03   -0.16579E-05   -0.47042E-07  2670   0.259E-03    0.236E-02
RMM:   8    -0.705206240917E+03    0.44175E-06   -0.18865E-07  1705   0.248E-03
  32 F= -.70520624E+03 E0= -.70458855E+03  d E =-.504584E-02  mag=     7.2767
       N       E                     dE             d eps       ncg     rms          rms(c)
DAV:   1    -0.705209630841E+03   -0.33895E-02   -0.24757E-01 13680   0.768E-01    0.143E-01
RMM:   2    -0.705210222053E+03   -0.59121E-03   -0.48347E-03 13436   0.128E-01    0.263E-01
RMM:   3    -0.705210176860E+03    0.45193E-04   -0.74610E-04 12885   0.514E-02    0.168E-01
RMM:   4    -0.705210490450E+03   -0.31359E-03   -0.21371E-04  8455   0.261E-02    0.302E-01
RMM:   5    -0.705210127696E+03    0.36275E-03   -0.12656E-04  7908   0.232E-02    0.171E-01
RMM:   6    -0.705210038332E+03    0.89364E-04   -0.55289E-05  7452   0.141E-02    0.679E-02
RMM:   7    -0.705210041873E+03   -0.35414E-05   -0.47724E-05  7426   0.117E-02    0.683E-02
RMM:   8    -0.705210023789E+03    0.18084E-04   -0.20513E-05  6709   0.957E-03
  33 F= -.70521002E+03 E0= -.70459238E+03  d E =-.378287E-02  mag=     7.2782
       N       E                     dE             d eps       ncg     rms          rms(c)
DAV:   1    -0.705210023243E+03    0.18630E-04   -0.11774E-04 10400   0.195E-02    0.230E-02
RMM:   2    -0.705210039451E+03   -0.16208E-04   -0.20131E-05  6953   0.986E-03    0.531E-02
RMM:   3    -0.705210039139E+03    0.31217E-06   -0.90353E-06  6297   0.629E-03    0.559E-02
RMM:   4    -0.705210026559E+03    0.12580E-04   -0.21215E-06  4596   0.339E-03    0.236E-02
RMM:   5    -0.705210024855E+03    0.17036E-05   -0.17710E-07  2278   0.268E-03    0.122E-02
RMM:   6    -0.705210024972E+03   -0.11658E-06   -0.11639E-07  1765   0.261E-03    0.984E-03
RMM:   7    -0.705210026404E+03   -0.14324E-05   -0.30889E-07  1807   0.271E-03    0.619E-03
RMM:   8    -0.705210028288E+03   -0.18835E-05   -0.11383E-07  1514   0.265E-03
  34 F= -.70521003E+03 E0= -.70459238E+03  d E =-.378737E-02  mag=     7.2796
       N       E                     dE             d eps       ncg     rms          rms(c)
DAV:   1    -0.705212780399E+03   -0.27540E-02   -0.97487E-02 13760   0.489E-01    0.871E-02
RMM:   2    -0.705213047426E+03   -0.26703E-03   -0.20007E-03 13340   0.826E-02    0.176E-01
RMM:   3    -0.705213008715E+03    0.38711E-04   -0.30811E-04  8964   0.325E-02    0.997E-02
RMM:   4    -0.705213141121E+03   -0.13241E-03   -0.84272E-05  7625   0.195E-02    0.191E-01
RMM:   5    -0.705212997030E+03    0.14409E-03   -0.45882E-05  7323   0.132E-02    0.110E-01
RMM:   6    -0.705212968761E+03    0.28268E-04   -0.20927E-05  6804   0.902E-03    0.546E-02
RMM:   7    -0.705212976541E+03   -0.77796E-05   -0.17750E-05  6831   0.709E-03    0.568E-02
RMM:   8    -0.705212969008E+03    0.75332E-05   -0.10153E-05  6364   0.645E-03
  35 F= -.70521297E+03 E0= -.70459537E+03  d E =-.294072E-02  mag=     7.2812
       N       E                     dE             d eps       ncg     rms          rms(c)
DAV:   1    -0.705213705554E+03   -0.72901E-03   -0.70098E-02 13696   0.415E-01    0.833E-02
RMM:   2    -0.705213880557E+03   -0.17500E-03   -0.14726E-03 13174   0.706E-02    0.122E-01
RMM:   3    -0.705213904564E+03   -0.24006E-04   -0.22103E-04  8227   0.276E-02    0.116E-01
RMM:   4    -0.705213890256E+03    0.14307E-04   -0.59575E-05  7457   0.173E-02    0.107E-01
RMM:   5    -0.705213880256E+03    0.10001E-04   -0.30156E-05  7204   0.101E-02    0.104E-01
RMM:   6    -0.705213840871E+03    0.39385E-04   -0.19011E-05  6798   0.891E-03    0.371E-02
RMM:   7    -0.705213837490E+03    0.33808E-05   -0.15438E-05  6613   0.596E-03    0.304E-02
RMM:   8    -0.705213833018E+03    0.44723E-05   -0.48579E-06  5959   0.502E-03
  36 F= -.70521383E+03 E0= -.70459629E+03  d E =-.380473E-02  mag=     7.2831
       N       E                     dE             d eps       ncg     rms          rms(c)
DAV:   1    -0.705217545252E+03   -0.37078E-02   -0.85185E-02 13696   0.458E-01    0.790E-02
RMM:   2    -0.705217773385E+03   -0.22813E-03   -0.17158E-03 13151   0.763E-02    0.156E-01
RMM:   3    -0.705217737335E+03    0.36050E-04   -0.26973E-04  8715   0.300E-02    0.786E-02
RMM:   4    -0.705217878271E+03   -0.14094E-03   -0.71448E-05  7515   0.178E-02    0.183E-01
RMM:   5    -0.705217742643E+03    0.13563E-03   -0.34023E-05  7271   0.118E-02    0.955E-02
RMM:   6    -0.705217726334E+03    0.16309E-04   -0.15258E-05  6751   0.775E-03    0.526E-02
RMM:   7    -0.705217741496E+03   -0.15162E-04   -0.12169E-05  6657   0.612E-03    0.591E-02
RMM:   8    -0.705217736225E+03    0.52712E-05   -0.84206E-06  6283   0.568E-03
  37 F= -.70521774E+03 E0= -.70460026E+03  d E =-.390321E-02  mag=     7.2849
       N       E                     dE             d eps       ncg     rms          rms(c)
DAV:   1    -0.705230835389E+03   -0.13094E-01   -0.76811E-01 13440   0.138E+00    0.232E-01
RMM:   2    -0.705232477097E+03   -0.16417E-02   -0.15473E-02 13440   0.230E-01    0.387E-01
RMM:   3    -0.705232501354E+03   -0.24257E-04   -0.24606E-03 14144   0.892E-02    0.234E-01
RMM:   4    -0.705235441899E+03   -0.29405E-02   -0.69081E-04 12498   0.452E-02    0.777E-01
RMM:   5    -0.705232542019E+03    0.28999E-02   -0.29462E-04  9763   0.338E-02    0.286E-01
RMM:   6    -0.705232387409E+03    0.15461E-03   -0.14998E-04  8169   0.230E-02    0.160E-01
RMM:   7    -0.705232431323E+03   -0.43914E-04   -0.13989E-04  8012   0.201E-02    0.134E-01
RMM:   8    -0.705232417572E+03    0.13751E-04   -0.67553E-05  7678   0.161E-02
  38 F= -.70523242E+03 E0= -.70461521E+03  d E =-.185846E-01  mag=     7.2870
       N       E                     dE             d eps       ncg     rms          rms(c)
DAV:   1    -0.705243235474E+03   -0.10804E-01   -0.30706E+00 13440   0.275E+00    0.497E-01
RMM:   2    -0.705249868662E+03   -0.66332E-02   -0.62205E-02 13440   0.462E-01    0.788E-01
RMM:   3    -0.705250006543E+03   -0.13788E-03   -0.10057E-02 14679   0.180E-01    0.479E-01
RMM:   4    -0.705260486859E+03   -0.10480E-01   -0.27628E-03 13463   0.906E-02    0.149E+00
RMM:   5    -0.705250146832E+03    0.10340E-01   -0.12220E-03 12837   0.688E-02    0.573E-01
RMM:   6    -0.705249492161E+03    0.65467E-03   -0.58924E-04 11960   0.438E-02    0.301E-01
RMM:   7    -0.705249648784E+03   -0.15662E-03   -0.61929E-04 12036   0.379E-02    0.242E-01
RMM:   8    -0.705249602775E+03    0.46009E-04   -0.22101E-04  9169   0.271E-02
  39 F= -.70524960E+03 E0= -.70463275E+03  d E =-.357698E-01  mag=     7.2903
       N       E                     dE             d eps       ncg     rms          rms(c)
DAV:   1    -0.705270742399E+03   -0.21094E-01   -0.12291E+01 13440   0.551E+00    0.100E+00
RMM:   2    -0.705297965925E+03   -0.27224E-01   -0.25290E-01 13440   0.932E-01    0.166E+00
RMM:   3    -0.705298442470E+03   -0.47654E-03   -0.41394E-02 14747   0.364E-01    0.103E+00
RMM:   4    -0.705359969209E+03   -0.61527E-01   -0.12578E-02 13521   0.190E-01    0.355E+00
RMM:   5    -0.705299068606E+03    0.60901E-01   -0.53792E-03 13462   0.145E-01    0.118E+00
RMM:   6    -0.705296215456E+03    0.28531E-02   -0.23824E-03 13047   0.836E-02    0.696E-01
RMM:   7    -0.705297246552E+03   -0.10311E-02   -0.18709E-03 13030   0.696E-02    0.658E-01
RMM:   8    -0.705297141473E+03    0.10508E-03   -0.11541E-03 12879   0.568E-02    0.582E-01
RMM:   9    -0.705296569276E+03    0.57220E-03   -0.41783E-04 10772   0.364E-02    0.391E-01
RMM:  10    -0.705296355192E+03    0.21408E-03   -0.15360E-04  8626   0.193E-02    0.304E-01
RMM:  11    -0.705296214845E+03    0.14035E-03   -0.90834E-05  8183   0.162E-02    0.245E-01
RMM:  12    -0.705296109584E+03    0.10526E-03   -0.11465E-04  8187   0.152E-02    0.190E-01
RMM:  13    -0.705296036946E+03    0.72638E-04   -0.59683E-05  7846   0.138E-02
  40 F= -.70529604E+03 E0= -.70468009E+03  d E =-.822039E-01  mag=     7.2995
       N       E                     dE             d eps       ncg     rms          rms(c)
DAV:   1    -0.705300511705E+03   -0.44021E-02   -0.98703E-01 13872   0.157E+00    0.233E-01
RMM:   2    -0.705302705483E+03   -0.21938E-02   -0.19596E-02 13440   0.264E-01    0.475E-01
RMM:   3    -0.705302578282E+03    0.12720E-03   -0.29889E-03 14067   0.102E-01    0.228E-01
RMM:   4    -0.705304653017E+03   -0.20747E-02   -0.80907E-04 12829   0.499E-02    0.674E-01
RMM:   5    -0.705302760241E+03    0.18928E-02   -0.27199E-04  9369   0.318E-02    0.308E-01
RMM:   6    -0.705302559280E+03    0.20096E-03   -0.18512E-04  8364   0.253E-02    0.186E-01
RMM:   7    -0.705302625306E+03   -0.66026E-04   -0.16511E-04  8185   0.221E-02    0.134E-01
RMM:   8    -0.705302598737E+03    0.26570E-04   -0.10148E-04  7732   0.187E-02
  41 F= -.70530260E+03 E0= -.70468640E+03  d E =-.887657E-01  mag=     7.3036
       N       E                     dE             d eps       ncg     rms          rms(c)
DAV:   1    -0.705303499135E+03   -0.87383E-03   -0.10669E-02 14096   0.163E-01    0.792E-02
RMM:   2    -0.705304067005E+03   -0.56787E-03   -0.36100E-04 10117   0.340E-02    0.296E-01
RMM:   3    -0.705303757214E+03    0.30979E-03   -0.11594E-04  7289   0.234E-02    0.207E-01
RMM:   4    -0.705303541824E+03    0.21539E-03   -0.34656E-05  7210   0.118E-02    0.481E-02
RMM:   5    -0.705303545993E+03   -0.41688E-05   -0.10393E-05  6611   0.683E-03    0.264E-02
RMM:   6    -0.705303567156E+03   -0.21163E-04   -0.65947E-06  6074   0.476E-03    0.191E-02
RMM:   7    -0.705303585743E+03   -0.18587E-04   -0.23270E-06  4633   0.362E-03    0.118E-02
RMM:   8    -0.705303610323E+03   -0.24580E-04   -0.12732E-06  3199   0.306E-03
  42 F= -.70530361E+03 E0= -.70468747E+03  d E =-.101159E-02  mag=     7.3064
       N       E                     dE             d eps       ncg     rms          rms(c)
DAV:   1    -0.705305365048E+03   -0.17793E-02   -0.94367E-02 13984   0.484E-01    0.797E-02
RMM:   2    -0.705305618376E+03   -0.25333E-03   -0.18649E-03 13166   0.810E-02    0.174E-01
RMM:   3    -0.705305591692E+03    0.26684E-04   -0.30344E-04  9067   0.317E-02    0.925E-02
RMM:   4    -0.705305887819E+03   -0.29613E-03   -0.87094E-05  7550   0.188E-02    0.258E-01
RMM:   5    -0.705305587876E+03    0.29994E-03   -0.38432E-05  7279   0.131E-02    0.900E-02
RMM:   6    -0.705305589286E+03   -0.14106E-05   -0.13474E-05  6717   0.694E-03    0.716E-02
RMM:   7    -0.705305619233E+03   -0.29947E-04   -0.86415E-06  6446   0.567E-03    0.871E-02
RMM:   8    -0.705305625158E+03   -0.59244E-05   -0.10147E-05  6573   0.575E-03
  43 F= -.70530563E+03 E0= -.70468954E+03  d E =-.302642E-02  mag=     7.3089
       N       E                     dE             d eps       ncg     rms          rms(c)
DAV:   1    -0.705307240818E+03   -0.16216E-02   -0.37959E-01 13632   0.970E-01    0.185E-01
RMM:   2    -0.705308045732E+03   -0.80491E-03   -0.75734E-03 13425   0.163E-01    0.310E-01
RMM:   3    -0.705308089499E+03   -0.43767E-04   -0.12727E-03 13129   0.635E-02    0.220E-01
RMM:   4    -0.705309962926E+03   -0.18734E-02   -0.41378E-04 10978   0.344E-02    0.628E-01
RMM:   5    -0.705308081751E+03    0.18812E-02   -0.13409E-04  7926   0.243E-02    0.223E-01
RMM:   6    -0.705308021198E+03    0.60553E-04   -0.70916E-05  7676   0.150E-02    0.162E-01
RMM:   7    -0.705308066943E+03   -0.45746E-04   -0.52590E-05  7489   0.138E-02    0.160E-01
RMM:   8    -0.705308069301E+03   -0.23578E-05   -0.40459E-05  7274   0.116E-02
  44 F= -.70530807E+03 E0= -.70469217E+03  d E =-.547056E-02  mag=     7.3112
       N       E                     dE             d eps       ncg     rms          rms(c)
DAV:   1    -0.705302635435E+03    0.54315E-02   -0.15210E+00 13440   0.194E+00    0.391E-01
RMM:   2    -0.705305837393E+03   -0.32020E-02   -0.30958E-02 13440   0.328E-01    0.627E-01
RMM:   3    -0.705306003841E+03   -0.16645E-03   -0.52066E-03 14695   0.128E-01    0.427E-01
RMM:   4    -0.705307194453E+03   -0.11906E-02   -0.14129E-03 13050   0.620E-02    0.683E-01
RMM:   5    -0.705305886683E+03    0.13078E-02   -0.34129E-04 10103   0.338E-02    0.412E-01
RMM:   6    -0.705305754893E+03    0.13179E-03   -0.18371E-04  8432   0.240E-02    0.337E-01
RMM:   7    -0.705305839081E+03   -0.84188E-04   -0.14381E-04  8097   0.223E-02    0.307E-01
RMM:   8    -0.705305823030E+03    0.16051E-04   -0.13046E-04  8009   0.203E-02
  45 F= -.70530582E+03 E0= -.70469032E+03  d E =-.322429E-02  mag=     7.3140
       N       E                     dE             d eps       ncg     rms          rms(c)
DAV:   1    -0.705307476107E+03   -0.16370E-02   -0.96061E-01 13584   0.154E+00    0.238E-01
RMM:   2    -0.705310032763E+03   -0.25567E-02   -0.18845E-02 13440   0.260E-01    0.561E-01
RMM:   3    -0.705309759473E+03    0.27329E-03   -0.28135E-03 13478   0.103E-01    0.321E-01
RMM:   4    -0.705310193071E+03   -0.43360E-03   -0.82653E-04 12844   0.508E-02    0.457E-01
RMM:   5    -0.705309570938E+03    0.62213E-03   -0.23607E-04  8812   0.291E-02    0.298E-01
RMM:   6    -0.705309326721E+03    0.24422E-03   -0.16018E-04  8124   0.242E-02    0.205E-01
RMM:   7    -0.705309335892E+03   -0.91716E-05   -0.18898E-04  8341   0.233E-02    0.124E-01
RMM:   8    -0.705309279743E+03    0.56150E-04   -0.11481E-04  7806   0.190E-02
  46 F= -.70530928E+03 E0= -.70469348E+03  d E =-.668101E-02  mag=     7.3159
       N       E                     dE             d eps       ncg     rms          rms(c)
DAV:   1    -0.705309835141E+03   -0.49925E-03   -0.24061E-01 13872   0.773E-01    0.132E-01
RMM:   2    -0.705312061686E+03   -0.22265E-02   -0.49404E-03 13415   0.132E-01    0.619E-01
RMM:   3    -0.705310348017E+03    0.17137E-02   -0.78359E-04 12495   0.547E-02    0.176E-01
RMM:   4    -0.705310418043E+03   -0.70026E-04   -0.18897E-04  8271   0.264E-02    0.210E-01
RMM:   5    -0.705310481505E+03   -0.63462E-04   -0.92441E-05  7528   0.205E-02    0.224E-01
RMM:   6    -0.705310350315E+03    0.13119E-03   -0.49914E-05  7283   0.129E-02    0.148E-01
RMM:   7    -0.705310315517E+03    0.34798E-04   -0.59238E-05  7285   0.134E-02    0.827E-02
RMM:   8    -0.705310292115E+03    0.23402E-04   -0.40489E-05  7029   0.114E-02
  47 F= -.70531029E+03 E0= -.70469460E+03  d E =-.769338E-02  mag=     7.3175
       N       E                     dE             d eps       ncg     rms          rms(c)
DAV:   1    -0.705315477629E+03   -0.51621E-02   -0.87065E-03 14080   0.150E-01    0.402E-02
RMM:   2    -0.705315520300E+03   -0.42671E-04   -0.20064E-04  7775   0.272E-02    0.780E-02
RMM:   3    -0.705315519374E+03    0.92578E-06   -0.34861E-05  7195   0.135E-02    0.628E-02
RMM:   4    -0.705315521452E+03   -0.20774E-05   -0.13037E-05  6863   0.662E-03    0.738E-02
RMM:   5    -0.705315508781E+03    0.12671E-04   -0.39908E-06  6013   0.478E-03    0.431E-02
RMM:   6    -0.705315502321E+03    0.64602E-05   -0.40980E-06  4346   0.350E-03    0.281E-02
RMM:   7    -0.705315504717E+03   -0.23962E-05   -0.18803E-06  4028   0.350E-03    0.201E-02
RMM:   8    -0.705315505265E+03   -0.54735E-06   -0.58214E-08  1832   0.247E-03
  48 F= -.70531551E+03 E0= -.70469985E+03  d E =-.521315E-02  mag=     7.3189
       N       E                     dE             d eps       ncg     rms          rms(c)
DAV:   1    -0.705328115979E+03   -0.12611E-01   -0.78689E-02 13824   0.450E-01    0.732E-02
RMM:   2    -0.705328361515E+03   -0.24554E-03   -0.15606E-03 13274   0.765E-02    0.200E-01
RMM:   3    -0.705328299706E+03    0.61810E-04   -0.25908E-04  8642   0.297E-02    0.105E-01
RMM:   4    -0.705328460689E+03   -0.16098E-03   -0.70357E-05  7483   0.176E-02    0.210E-01
RMM:   5    -0.705328270705E+03    0.18998E-03   -0.27028E-05  7241   0.111E-02    0.799E-02
RMM:   6    -0.705328275578E+03   -0.48728E-05   -0.86106E-06  6547   0.548E-03    0.822E-02
RMM:   7    -0.705328310972E+03   -0.35395E-04   -0.63520E-06  6248   0.474E-03    0.105E-01
RMM:   8    -0.705328285545E+03    0.25428E-04   -0.71751E-06  6548   0.508E-03
  49 F= -.70532829E+03 E0= -.70471270E+03  d E =-.179934E-01  mag=     7.3201
       N       E                     dE             d eps       ncg     rms          rms(c)
DAV:   1    -0.705341392994E+03   -0.13082E-01   -0.31463E-01 13440   0.899E-01    0.175E-01
RMM:   2    -0.705342049874E+03   -0.65688E-03   -0.63343E-03 13440   0.154E-01    0.310E-01
RMM:   3    -0.705342097021E+03   -0.47147E-04   -0.10640E-03 13140   0.595E-02    0.228E-01
RMM:   4    -0.705343698175E+03   -0.16012E-02   -0.35437E-04 10365   0.322E-02    0.597E-01
RMM:   5    -0.705342051476E+03    0.16467E-02   -0.11813E-04  7812   0.232E-02    0.207E-01
RMM:   6    -0.705342026630E+03    0.24846E-04   -0.55433E-05  7616   0.129E-02    0.186E-01
RMM:   7    -0.705342046807E+03   -0.20177E-04   -0.38753E-05  7360   0.117E-02    0.161E-01
RMM:   8    -0.705342054167E+03   -0.73600E-05   -0.32827E-05  7257   0.105E-02
  50 F= -.70534205E+03 E0= -.70472661E+03  d E =-.317621E-01  mag=     7.3214
       N       E                     dE             d eps       ncg     rms          rms(c)
DAV:   1    -0.705343053107E+03   -0.10063E-02   -0.12608E+00 13440   0.180E+00    0.368E-01
RMM:   2    -0.705345939656E+03   -0.28865E-02   -0.25865E-02 13440   0.309E-01    0.667E-01
RMM:   3    -0.705346002492E+03   -0.62836E-04   -0.44659E-03 14478   0.120E-01    0.476E-01
RMM:   4    -0.705353126336E+03   -0.71238E-02   -0.16672E-03 13116   0.669E-02    0.125E+00
RMM:   5    -0.705345643309E+03    0.74830E-02   -0.53477E-04 11919   0.471E-02    0.391E-01
RMM:   6    -0.705345601975E+03    0.41335E-04   -0.20162E-04  8629   0.225E-02    0.371E-01
RMM:   7    -0.705345850181E+03   -0.24821E-03   -0.12414E-04  8056   0.214E-02    0.385E-01
RMM:   8    -0.705345695204E+03    0.15498E-03   -0.12732E-04  7932   0.196E-02    0.288E-01
RMM:   9    -0.705345630850E+03    0.64354E-04   -0.41364E-05  7591   0.127E-02
  51 F= -.70534563E+03 E0= -.70473060E+03  d E =-.353387E-01  mag=     7.3231
       N       E                     dE             d eps       ncg     rms          rms(c)
DAV:   1    -0.705347233593E+03   -0.15384E-02   -0.15043E-01 13904   0.622E-01    0.194E-01
RMM:   2    -0.705348744014E+03   -0.15104E-02   -0.28666E-03 13425   0.105E-01    0.492E-01
RMM:   3    -0.705348835347E+03   -0.91332E-04   -0.61752E-04 12627   0.485E-02    0.495E-01
RMM:   4    -0.705347599311E+03    0.12360E-02   -0.20924E-04  8404   0.294E-02    0.168E-01
RMM:   5    -0.705347523153E+03    0.76158E-04   -0.83189E-05  7362   0.196E-02    0.754E-02
RMM:   6    -0.705347520726E+03    0.24265E-05   -0.39894E-05  7188   0.104E-02    0.474E-02
RMM:   7    -0.705347537457E+03   -0.16731E-04   -0.25438E-05  6991   0.972E-03    0.431E-02
RMM:   8    -0.705347542532E+03   -0.50749E-05   -0.11186E-05  6515   0.649E-03
  52 F= -.70534754E+03 E0= -.70473242E+03  d E =-.372504E-01  mag=     7.3245
       N       E                     dE             d eps       ncg     rms          rms(c)
DAV:   1    -0.705357682828E+03   -0.10145E-01   -0.32341E-02 14128   0.292E-01    0.456E-02
RMM:   2    -0.705357806593E+03   -0.12376E-03   -0.67758E-04 12151   0.508E-02    0.147E-01
RMM:   3    -0.705357772030E+03    0.34563E-04   -0.10651E-04  7388   0.203E-02    0.680E-02
RMM:   4    -0.705357841932E+03   -0.69902E-04   -0.26925E-05  7251   0.117E-02    0.135E-01
RMM:   5    -0.705357782198E+03    0.59733E-04   -0.11845E-05  6908   0.683E-03    0.536E-02
RMM:   6    -0.705357797133E+03   -0.14935E-04   -0.53773E-06  6082   0.457E-03    0.561E-02
RMM:   7    -0.705357818751E+03   -0.21618E-04   -0.36963E-06  5648   0.400E-03    0.628E-02
RMM:   8    -0.705357820529E+03   -0.17776E-05   -0.34609E-06  5242   0.377E-03
  53 F= -.70535782E+03 E0= -.70474279E+03  d E =-.102780E-01  mag=     7.3246
       N       E                     dE             d eps       ncg     rms          rms(c)
DAV:   1    -0.705377559253E+03   -0.19741E-01   -0.29078E-01 13984   0.874E-01    0.149E-01
RMM:   2    -0.705378230255E+03   -0.67100E-03   -0.59510E-03 13440   0.151E-01    0.338E-01
RMM:   3    -0.705378267535E+03   -0.37280E-04   -0.96937E-04 13265   0.582E-02    0.272E-01
RMM:   4    -0.705378894771E+03   -0.62724E-03   -0.25396E-04  8972   0.307E-02    0.423E-01
RMM:   5    -0.705378121763E+03    0.77301E-03   -0.88406E-05  7864   0.207E-02    0.174E-01
RMM:   6    -0.705378140301E+03   -0.18539E-04   -0.66970E-05  7739   0.128E-02    0.211E-01
RMM:   7    -0.705378102417E+03    0.37884E-04   -0.58691E-05  7572   0.144E-02    0.174E-01
RMM:   8    -0.705378040233E+03    0.62184E-04   -0.36360E-05  7341   0.116E-02
  54 F= -.70537804E+03 E0= -.70476320E+03  d E =-.304977E-01  mag=     7.3222
       N       E                     dE             d eps       ncg     rms          rms(c)
DAV:   1    -0.705372410092E+03    0.56923E-02   -0.11625E+00 13920   0.175E+00    0.344E-01
RMM:   2    -0.705374969667E+03   -0.25596E-02   -0.24088E-02 13440   0.303E-01    0.667E-01
RMM:   3    -0.705375256395E+03   -0.28673E-03   -0.39894E-03 14254   0.117E-01    0.548E-01
RMM:   4    -0.705374712612E+03    0.54378E-03   -0.92015E-04 13034   0.602E-02    0.341E-01
RMM:   5    -0.705374898351E+03   -0.18574E-03   -0.34529E-04 10383   0.347E-02    0.416E-01
RMM:   6    -0.705375298282E+03   -0.39993E-03   -0.21737E-04  8813   0.243E-02    0.566E-01
RMM:   7    -0.705374561557E+03    0.73673E-03   -0.22418E-04  8910   0.258E-02    0.339E-01
RMM:   8    -0.705374322391E+03    0.23917E-03   -0.11869E-04  8060   0.213E-02    0.283E-01
RMM:   9    -0.705374291896E+03    0.30495E-04   -0.43882E-05  7781   0.132E-02
  55 F= -.70537429E+03 E0= -.70475959E+03  d E =-.267494E-01  mag=     7.3147
       N       E                     dE             d eps       ncg     rms          rms(c)
DAV:   1    -0.705382260368E+03   -0.79380E-02   -0.32690E-01 14112   0.926E-01    0.238E-01
RMM:   2    -0.705383230921E+03   -0.97055E-03   -0.62058E-03 13440   0.156E-01    0.342E-01
RMM:   3    -0.705384287707E+03   -0.10568E-02   -0.11122E-03 13237   0.658E-02    0.510E-01
RMM:   4    -0.705383238324E+03    0.10494E-02   -0.34906E-04 10473   0.355E-02    0.279E-01
RMM:   5    -0.705382986683E+03    0.25164E-03   -0.13958E-04  8200   0.229E-02    0.987E-02
RMM:   6    -0.705383060443E+03   -0.73760E-04   -0.87208E-05  7859   0.166E-02    0.918E-02
RMM:   7    -0.705383150997E+03   -0.90554E-04   -0.65078E-05  7649   0.152E-02    0.593E-02
RMM:   8    -0.705383196409E+03   -0.45412E-04   -0.25443E-05  7245   0.998E-03
  56 F= -.70538320E+03 E0= -.70476842E+03  d E =-.356539E-01  mag=     7.3113
       N       E                     dE             d eps       ncg     rms          rms(c)
DAV:   1    -0.705392050282E+03   -0.88993E-02   -0.40947E-02 14000   0.323E-01    0.600E-02
RMM:   2    -0.705392257815E+03   -0.20753E-03   -0.79776E-04 12491   0.551E-02    0.153E-01
RMM:   3    -0.705392178997E+03    0.78818E-04   -0.13053E-04  7477   0.221E-02    0.574E-02
RMM:   4    -0.705392219877E+03   -0.40880E-04   -0.32275E-05  7252   0.131E-02    0.921E-02
RMM:   5    -0.705392221308E+03   -0.14306E-05   -0.14559E-05  6986   0.761E-03    0.541E-02
RMM:   6    -0.705392254088E+03   -0.32780E-04   -0.12458E-05  6690   0.613E-03    0.561E-02
RMM:   7    -0.705392272738E+03   -0.18650E-04   -0.59867E-06  6230   0.529E-03    0.441E-02
RMM:   8    -0.705392274086E+03   -0.13478E-05   -0.27873E-06  4783   0.354E-03
  57 F= -.70539227E+03 E0= -.70477750E+03  d E =-.907768E-02  mag=     7.3089
       N       E                     dE             d eps       ncg     rms          rms(c)
DAV:   1    -0.705412096563E+03   -0.19824E-01   -0.36771E-01 14016   0.967E-01    0.163E-01
RMM:   2    -0.705412851764E+03   -0.75520E-03   -0.72349E-03 13438   0.164E-01    0.295E-01
RMM:   3    -0.705412892469E+03   -0.40705E-04   -0.11767E-03 13492   0.634E-02    0.219E-01
RMM:   4    -0.705412907328E+03   -0.14859E-04   -0.23628E-04  8758   0.294E-02    0.217E-01
RMM:   5    -0.705412996443E+03   -0.89115E-04   -0.90673E-05  7956   0.198E-02    0.233E-01
RMM:   6    -0.705412987051E+03    0.93919E-05   -0.88620E-05  7862   0.151E-02    0.235E-01
RMM:   7    -0.705412824019E+03    0.16303E-03   -0.65623E-05  7619   0.156E-02    0.113E-01
RMM:   8    -0.705412810596E+03    0.13422E-04   -0.31178E-05  7349   0.104E-02
  58 F= -.70541281E+03 E0= -.70479807E+03  d E =-.296142E-01  mag=     7.3063
       N       E                     dE             d eps       ncg     rms          rms(c)
DAV:   1    -0.705413090370E+03   -0.26635E-03   -0.14700E+00 13792   0.193E+00    0.355E-01
RMM:   2    -0.705416162125E+03   -0.30718E-02   -0.29063E-02 13440   0.327E-01    0.589E-01
RMM:   3    -0.705416316510E+03   -0.15438E-03   -0.48162E-03 14480   0.127E-01    0.439E-01
RMM:   4    -0.705422750829E+03   -0.64343E-02   -0.13430E-03 13256   0.659E-02    0.115E+00
RMM:   5    -0.705416127943E+03    0.66229E-02   -0.52055E-04 12015   0.466E-02    0.392E-01
RMM:   6    -0.705416112520E+03    0.15422E-04   -0.43401E-04 11434   0.320E-02    0.346E-01
RMM:   7    -0.705416031076E+03    0.81444E-04   -0.28437E-04  9650   0.303E-02    0.275E-01
RMM:   8    -0.705415991649E+03    0.39428E-04   -0.14802E-04  8262   0.227E-02
  59 F= -.70541599E+03 E0= -.70480150E+03  d E =-.327952E-01  mag=     7.3020
       N       E                     dE             d eps       ncg     rms          rms(c)
DAV:   1    -0.705419791584E+03   -0.37605E-02   -0.18256E-01 14112   0.681E-01    0.178E-01
RMM:   2    -0.705421587173E+03   -0.17956E-02   -0.35506E-03 13439   0.115E-01    0.569E-01
RMM:   3    -0.705420678778E+03    0.90840E-03   -0.64371E-04 12713   0.511E-02    0.349E-01
RMM:   4    -0.705420112598E+03    0.56618E-03   -0.22544E-04  8762   0.292E-02    0.168E-01
RMM:   5    -0.705420048951E+03    0.63647E-04   -0.99470E-05  7627   0.213E-02    0.978E-02
RMM:   6    -0.705420054308E+03   -0.53570E-05   -0.74868E-05  7447   0.149E-02    0.859E-02
RMM:   7    -0.705420070710E+03   -0.16402E-04   -0.44478E-05  7266   0.130E-02    0.456E-02
RMM:   8    -0.705420082673E+03   -0.11963E-04   -0.16654E-05  6910   0.780E-03
  60 F= -.70542008E+03 E0= -.70480548E+03  d E =-.368863E-01  mag=     7.2988
       N       E                     dE             d eps       ncg     rms          rms(c)
DAV:   1    -0.705420362395E+03   -0.29169E-03   -0.43609E-02 14128   0.333E-01    0.557E-02
RMM:   2    -0.705420504716E+03   -0.14232E-03   -0.88337E-04 12759   0.568E-02    0.129E-01
RMM:   3    -0.705420490640E+03    0.14076E-04   -0.13973E-04  7713   0.226E-02    0.590E-02
RMM:   4    -0.705420641103E+03   -0.15046E-03   -0.41636E-05  7399   0.138E-02    0.175E-01
RMM:   5    -0.705420513699E+03    0.12740E-03   -0.16190E-05  7066   0.825E-03    0.482E-02
RMM:   6    -0.705420539825E+03   -0.26126E-04   -0.84165E-06  6413   0.532E-03    0.578E-02
RMM:   7    -0.705420562525E+03   -0.22700E-04   -0.49527E-06  6045   0.472E-03    0.511E-02
RMM:   8    -0.705420579224E+03   -0.16699E-04   -0.33198E-06  4942   0.367E-03
  61 F= -.70542058E+03 E0= -.70480591E+03  d E =-.373828E-01  mag=     7.2970
       N       E                     dE             d eps       ncg     rms          rms(c)
DAV:   1    -0.705427085376E+03   -0.65229E-02   -0.33646E-02 14144   0.289E-01    0.537E-02
RMM:   2    -0.705427329482E+03   -0.24411E-03   -0.69991E-04 11940   0.491E-02    0.197E-01
RMM:   3    -0.705427164458E+03    0.16502E-03   -0.11202E-04  7432   0.211E-02    0.675E-02
RMM:   4    -0.705427157954E+03    0.65041E-05   -0.29769E-05  7218   0.125E-02    0.529E-02
RMM:   5    -0.705427165353E+03   -0.73997E-05   -0.12020E-05  6833   0.673E-03    0.606E-02
RMM:   6    -0.705427164417E+03    0.93660E-06   -0.52462E-06  6012   0.492E-03    0.426E-02
RMM:   7    -0.705427164557E+03   -0.14045E-06   -0.64041E-06  6187   0.444E-03    0.315E-02
RMM:   8    -0.705427164260E+03    0.29756E-06   -0.28082E-06  5099   0.402E-03
  62 F= -.70542716E+03 E0= -.70481250E+03  d E =-.658504E-02  mag=     7.2954
       N       E                     dE             d eps       ncg     rms          rms(c)
DAV:   1    -0.705440026320E+03   -0.12862E-01   -0.30244E-01 13856   0.865E-01    0.157E-01
RMM:   2    -0.705440872524E+03   -0.84620E-03   -0.62293E-03 13440   0.147E-01    0.341E-01
RMM:   3    -0.705440687461E+03    0.18506E-03   -0.96828E-04 13342   0.590E-02    0.205E-01
RMM:   4    -0.705440959767E+03   -0.27231E-03   -0.26721E-04  8813   0.295E-02    0.303E-01
RMM:   5    -0.705440615309E+03    0.34446E-03   -0.13471E-04  8012   0.238E-02    0.185E-01
RMM:   6    -0.705440522565E+03    0.92745E-04   -0.64042E-05  7657   0.158E-02    0.109E-01
RMM:   7    -0.705440486677E+03    0.35888E-04   -0.48007E-05  7584   0.124E-02    0.611E-02
RMM:   8    -0.705440462067E+03    0.24610E-04   -0.23890E-05  7145   0.983E-03
  63 F= -.70544046E+03 E0= -.70482582E+03  d E =-.198828E-01  mag=     7.2925
       N       E                     dE             d eps       ncg     rms          rms(c)
DAV:   1    -0.705436351980E+03    0.41347E-02   -0.12087E+00 13632   0.173E+00    0.318E-01
RMM:   2    -0.705439913379E+03   -0.35614E-02   -0.24890E-02 13440   0.294E-01    0.685E-01
RMM:   3    -0.705439084423E+03    0.82896E-03   -0.39890E-03 14240   0.118E-01    0.418E-01
RMM:   4    -0.705439906907E+03   -0.82248E-03   -0.10222E-03 13370   0.584E-02    0.571E-01
RMM:   5    -0.705438792388E+03    0.11145E-02   -0.49656E-04 11688   0.401E-02    0.369E-01
RMM:   6    -0.705438381990E+03    0.41040E-03   -0.24585E-04  9015   0.298E-02    0.206E-01
RMM:   7    -0.705438272461E+03    0.10953E-03   -0.18451E-04  8583   0.240E-02    0.120E-01
RMM:   8    -0.705438191872E+03    0.80589E-04   -0.89862E-05  7887   0.191E-02
  64 F= -.70543819E+03 E0= -.70482357E+03  d E =-.176126E-01  mag=     7.2868
       N       E                     dE             d eps       ncg     rms          rms(c)
DAV:   1    -0.705442948958E+03   -0.46765E-02   -0.32336E-01 13952   0.895E-01    0.164E-01
RMM:   2    -0.705444025933E+03   -0.10770E-02   -0.66405E-03 13440   0.152E-01    0.392E-01
RMM:   3    -0.705443607236E+03    0.41870E-03   -0.94073E-04 13094   0.627E-02    0.145E-01
RMM:   4    -0.705444114930E+03   -0.50769E-03   -0.32300E-04  9656   0.305E-02    0.329E-01
RMM:   5    -0.705443730240E+03    0.38469E-03   -0.11088E-04  7810   0.211E-02    0.170E-01
RMM:   6    -0.705443707499E+03    0.22740E-04   -0.74468E-05  7484   0.157E-02    0.127E-01
RMM:   7    -0.705443731937E+03   -0.24437E-04   -0.49911E-05  7363   0.134E-02    0.638E-02
RMM:   8    -0.705443791458E+03   -0.59521E-04   -0.31263E-05  7091   0.966E-03
  65 F= -.70544379E+03 E0= -.70482906E+03  d E =-.232122E-01  mag=     7.2841
       N       E                     dE             d eps       ncg     rms          rms(c)
DAV:   1    -0.705449959645E+03   -0.62277E-02   -0.61761E-02 14096   0.387E-01    0.796E-02
RMM:   2    -0.705450437516E+03   -0.47787E-03   -0.13139E-03 13213   0.665E-02    0.281E-01
RMM:   3    -0.705450175736E+03    0.26178E-03   -0.22018E-04  8233   0.289E-02    0.140E-01
RMM:   4    -0.705450092170E+03    0.83565E-04   -0.65801E-05  7373   0.178E-02    0.753E-02
RMM:   5    -0.705450079267E+03    0.12904E-04   -0.22588E-05  7099   0.920E-03    0.587E-02
RMM:   6    -0.705450070980E+03    0.82869E-05   -0.12167E-05  6544   0.682E-03    0.493E-02
RMM:   7    -0.705450052754E+03    0.18226E-04   -0.11012E-05  6562   0.632E-03    0.229E-02
RMM:   8    -0.705450043795E+03    0.89582E-05   -0.54257E-06  6063   0.464E-03
  66 F= -.70545004E+03 E0= -.70483538E+03  d E =-.625234E-02  mag=     7.2808
       N       E                     dE             d eps       ncg     rms          rms(c)
DAV:   1    -0.705455315276E+03   -0.52625E-02   -0.39199E-01 13680   0.975E-01    0.181E-01
RMM:   2    -0.705456486446E+03   -0.11712E-02   -0.79798E-03 13440   0.164E-01    0.377E-01
RMM:   3    -0.705456338955E+03    0.14749E-03   -0.12581E-03 13578   0.658E-02    0.281E-01
RMM:   4    -0.705456204222E+03    0.13473E-03   -0.34296E-04  9900   0.339E-02    0.265E-01
RMM:   5    -0.705455957996E+03    0.24623E-03   -0.15034E-04  8215   0.247E-02    0.181E-01
RMM:   6    -0.705455789001E+03    0.16900E-03   -0.75683E-05  7780   0.171E-02    0.947E-02
RMM:   7    -0.705455700077E+03    0.88923E-04   -0.63435E-05  7694   0.141E-02    0.836E-02
RMM:   8    -0.705455617148E+03    0.82929E-04   -0.30663E-05  7298   0.117E-02
  67 F= -.70545562E+03 E0= -.70484106E+03  d E =-.118257E-01  mag=     7.2742
       N       E                     dE             d eps       ncg     rms          rms(c)
DAV:   1    -0.705462139659E+03   -0.64396E-02   -0.74093E-02 14064   0.419E-01    0.686E-02
RMM:   2    -0.705462280777E+03   -0.14112E-03   -0.13261E-03 13154   0.668E-02    0.888E-02
RMM:   3    -0.705462319099E+03   -0.38323E-04   -0.20891E-04  8190   0.271E-02    0.983E-02
RMM:   4    -0.705462318923E+03    0.17592E-06   -0.55923E-05  7513   0.165E-02    0.923E-02
RMM:   5    -0.705462298092E+03    0.20832E-04   -0.19160E-05  7169   0.814E-03    0.634E-02
RMM:   6    -0.705462301742E+03   -0.36505E-05   -0.11864E-05  6500   0.651E-03    0.352E-02
RMM:   7    -0.705462314340E+03   -0.12598E-04   -0.80227E-06  6455   0.526E-03    0.304E-02
RMM:   8    -0.705462321519E+03   -0.71788E-05   -0.37109E-06  5418   0.425E-03
  68 F= -.70546232E+03 E0= -.70484780E+03  d E =-.670437E-02  mag=     7.2680
       N       E                     dE             d eps       ncg     rms          rms(c)
DAV:   1    -0.705470856586E+03   -0.85422E-02   -0.66745E-01 13664   0.126E+00    0.197E-01
RMM:   2    -0.705472030779E+03   -0.11742E-02   -0.11873E-02 13440   0.200E-01    0.257E-01
RMM:   3    -0.705472001530E+03    0.29248E-04   -0.17733E-03 13870   0.794E-02    0.116E-01
RMM:   4    -0.705472514807E+03   -0.51328E-03   -0.49854E-04 11316   0.397E-02    0.331E-01
RMM:   5    -0.705472147998E+03    0.36681E-03   -0.15570E-04  8294   0.228E-02    0.193E-01
RMM:   6    -0.705471995151E+03    0.15285E-03   -0.88010E-05  7923   0.179E-02    0.907E-02
RMM:   7    -0.705471972336E+03    0.22814E-04   -0.61899E-05  7766   0.141E-02    0.817E-02
RMM:   8    -0.705471925897E+03    0.46439E-04   -0.29339E-05  7322   0.111E-02
  69 F= -.70547193E+03 E0= -.70485758E+03  d E =-.163087E-01  mag=     7.2607
       N       E                     dE             d eps       ncg     rms          rms(c)
DAV:   1    -0.705481060836E+03   -0.90885E-02   -0.14259E-01 14016   0.595E-01    0.877E-02
RMM:   2    -0.705481436398E+03   -0.37556E-03   -0.27149E-03 13410   0.978E-02    0.177E-01
RMM:   3    -0.705481411197E+03    0.25201E-04   -0.42962E-04 10523   0.384E-02    0.122E-01
RMM:   4    -0.705481411102E+03    0.95250E-07   -0.11122E-04  7887   0.208E-02    0.114E-01
RMM:   5    -0.705481412540E+03   -0.14376E-05   -0.42682E-05  7498   0.135E-02    0.861E-02
RMM:   6    -0.705481418729E+03   -0.61891E-05   -0.26943E-05  7248   0.947E-03    0.633E-02
RMM:   7    -0.705481446961E+03   -0.28232E-04   -0.19731E-05  6946   0.839E-03    0.366E-02
RMM:   8    -0.705481465000E+03   -0.18039E-04   -0.10674E-05  6490   0.608E-03
  70 F= -.70548146E+03 E0= -.70486720E+03  d E =-.953910E-02  mag=     7.2553
       N       E                     dE             d eps       ncg     rms          rms(c)
DAV:   1    -0.705483190239E+03   -0.17433E-02   -0.80029E-02 14032   0.446E-01    0.663E-02
RMM:   2    -0.705483368669E+03   -0.17843E-03   -0.15329E-03 13193   0.733E-02    0.919E-02
RMM:   3    -0.705483385953E+03   -0.17285E-04   -0.24039E-04  8459   0.284E-02    0.490E-02
RMM:   4    -0.705483527289E+03   -0.14134E-03   -0.63399E-05  7543   0.171E-02    0.157E-01
RMM:   5    -0.705483436091E+03    0.91197E-04   -0.22869E-05  7213   0.946E-03    0.749E-02
RMM:   6    -0.705483436185E+03   -0.93460E-07   -0.13272E-05  6624   0.676E-03    0.424E-02
RMM:   7    -0.705483464078E+03   -0.27893E-04   -0.81751E-06  6340   0.539E-03    0.270E-02
RMM:   8    -0.705483481005E+03   -0.16927E-04   -0.41775E-06  5516   0.409E-03
  71 F= -.70548348E+03 E0= -.70486929E+03  d E =-.115551E-01  mag=     7.2509
       N       E                     dE             d eps       ncg     rms          rms(c)
DAV:   1    -0.705491646010E+03   -0.81819E-02   -0.19288E-01 13904   0.697E-01    0.126E-01
RMM:   2    -0.705492125891E+03   -0.47988E-03   -0.41486E-03 13440   0.121E-01    0.207E-01
RMM:   3    -0.705492064134E+03    0.61757E-04   -0.58432E-04 11799   0.459E-02    0.111E-01
RMM:   4    -0.705492380602E+03   -0.31647E-03   -0.17609E-04  8282   0.247E-02    0.250E-01
RMM:   5    -0.705492170025E+03    0.21058E-03   -0.93059E-05  7783   0.185E-02    0.176E-01
RMM:   6    -0.705492065409E+03    0.10462E-03   -0.44851E-05  7399   0.128E-02    0.721E-02
RMM:   7    -0.705492072893E+03   -0.74840E-05   -0.30559E-05  7233   0.982E-03    0.531E-02
RMM:   8    -0.705492072877E+03    0.15920E-07   -0.18416E-05  6663   0.827E-03
  72 F= -.70549207E+03 E0= -.70487800E+03  d E =-.859187E-02  mag=     7.2474
       N       E                     dE             d eps       ncg     rms          rms(c)
DAV:   1    -0.705493978888E+03   -0.19060E-02   -0.10009E-01 14048   0.502E-01    0.917E-02
RMM:   2    -0.705494242436E+03   -0.26355E-03   -0.21691E-03 13383   0.873E-02    0.163E-01
RMM:   3    -0.705494233877E+03    0.85589E-05   -0.32008E-04  9246   0.333E-02    0.952E-02
RMM:   4    -0.705494424336E+03   -0.19046E-03   -0.10575E-04  7824   0.202E-02    0.223E-01
[...]
RMM:   8    -0.705661650023E+03    0.41287E-05   -0.52069E-06  6060   0.471E-03
 187 F= -.70566165E+03 E0= -.70504866E+03  d E =-.825607E-03  mag=     7.2449
       N       E                     dE             d eps       ncg     rms          rms(c)
DAV:   1    -0.705662155357E+03   -0.50121E-03   -0.50218E-04 13216   0.374E-02    0.481E-02
RMM:   2    -0.705662162403E+03   -0.70465E-05   -0.16558E-05  7156   0.785E-03    0.453E-02
RMM:   3    -0.705662216283E+03   -0.53879E-04   -0.12776E-05  6832   0.682E-03    0.100E-01
RMM:   4    -0.705662202978E+03    0.13304E-04   -0.13454E-05  6619   0.623E-03    0.104E-01
RMM:   5    -0.705662154346E+03    0.48632E-04   -0.78792E-06  6539   0.604E-03    0.156E-02
RMM:   6    -0.705662156435E+03   -0.20885E-05   -0.98716E-07  3416   0.298E-03    0.114E-02
RMM:   7    -0.705662156504E+03   -0.68881E-07   -0.29673E-08  1358   0.260E-03    0.491E-03
RMM:   8    -0.705662156732E+03   -0.22857E-06   -0.56686E-10  1108   0.252E-03
 188 F= -.70566216E+03 E0= -.70504918E+03  d E =-.506709E-03  mag=     7.2449
       N       E                     dE             d eps       ncg     rms          rms(c)
DAV:   1    -0.705663303498E+03   -0.11470E-02   -0.44966E-03 13392   0.110E-01    0.172E-02
RMM:   2    -0.705663314711E+03   -0.11213E-04   -0.10119E-04  7301   0.198E-02    0.393E-02
RMM:   3    -0.705663313580E+03    0.11308E-05   -0.12462E-05  7101   0.843E-03    0.205E-02
RMM:   4    -0.705663329678E+03   -0.16099E-04   -0.36897E-06  5808   0.391E-03    0.592E-02
RMM:   5    -0.705663310154E+03    0.19524E-04   -0.10506E-06  3769   0.317E-03    0.141E-02
RMM:   6    -0.705663310277E+03   -0.12299E-06   -0.43741E-07  2402   0.261E-03    0.152E-02
RMM:   7    -0.705663308561E+03    0.17165E-05   -0.23252E-07  1975   0.249E-03    0.156E-02
RMM:   8    -0.705663306075E+03    0.24858E-05   -0.21279E-08  1464   0.235E-03
 189 F= -.70566331E+03 E0= -.70505033E+03  d E =-.165605E-02  mag=     7.2452
       N       E                     dE             d eps       ncg     rms          rms(c)
DAV:   1    -0.705663967752E+03   -0.65919E-03   -0.17837E-02 13984   0.220E-01    0.353E-02
RMM:   2    -0.705664007600E+03   -0.39847E-04   -0.39776E-04  8955   0.392E-02    0.821E-02
RMM:   3    -0.705664010982E+03   -0.33823E-05   -0.54780E-05  7203   0.162E-02    0.551E-02
RMM:   4    -0.705664005007E+03    0.59751E-05   -0.15627E-05  7082   0.824E-03    0.367E-02
RMM:   5    -0.705664000363E+03    0.46440E-05   -0.41963E-06  6122   0.475E-03    0.363E-02
RMM:   6    -0.705664000311E+03    0.51972E-07   -0.26176E-07  2237   0.244E-03    0.456E-02
RMM:   7    -0.705663989894E+03    0.10417E-04   -0.12447E-06  3007   0.295E-03    0.368E-02
RMM:   8    -0.705663982148E+03    0.77462E-05   -0.12104E-06  3248   0.307E-03
 190 F= -.70566398E+03 E0= -.70505101E+03  d E =-.233212E-02  mag=     7.2461
       N       E                     dE             d eps       ncg     rms          rms(c)
DAV:   1    -0.705664006480E+03   -0.16586E-04   -0.47923E-04 13136   0.360E-02    0.293E-02
RMM:   2    -0.705664008680E+03   -0.22000E-05   -0.10767E-05  7008   0.643E-03    0.224E-02
RMM:   3    -0.705664048826E+03   -0.40146E-04   -0.65034E-06  6323   0.479E-03    0.873E-02
RMM:   4    -0.705664014027E+03    0.34799E-04   -0.38312E-06  5432   0.430E-03    0.452E-02
RMM:   5    -0.705664010847E+03    0.31799E-05   -0.64950E-07  3020   0.302E-03    0.126E-02
RMM:   6    -0.705664012318E+03   -0.14714E-05   -0.24050E-07  1630   0.262E-03    0.508E-03
RMM:   7    -0.705664013811E+03   -0.14921E-05   -0.50607E-09  1039   0.233E-03    0.347E-03
RMM:   8    -0.705664015334E+03   -0.15239E-05   -0.17190E-09   967   0.233E-03
 191 F= -.70566402E+03 E0= -.70505103E+03  d E =-.236531E-02  mag=     7.2467
       N       E                     dE             d eps       ncg     rms          rms(c)
DAV:   1    -0.705664402246E+03   -0.38844E-03   -0.11593E-03 12880   0.556E-02    0.995E-03
RMM:   2    -0.705664407869E+03   -0.56228E-05   -0.27089E-05  7108   0.103E-02    0.244E-02
RMM:   3    -0.705664407359E+03    0.50988E-06   -0.32911E-06  6281   0.452E-03    0.133E-02
RMM:   4    -0.705664412822E+03   -0.54625E-05   -0.15972E-07  1619   0.228E-03    0.294E-02
RMM:   5    -0.705664408890E+03    0.39319E-05   -0.83412E-09  1308   0.209E-03    0.970E-03
RMM:   6    -0.705664410715E+03   -0.18256E-05   -0.77806E-10  1175   0.200E-03    0.789E-03
RMM:   7    -0.705664412357E+03   -0.16413E-05   -0.47620E-09  1093   0.206E-03    0.688E-03
RMM:   8    -0.705664413572E+03   -0.12156E-05   -0.84068E-09  1082   0.210E-03
 192 F= -.70566441E+03 E0= -.70505143E+03  d E =-.398238E-03  mag=     7.2473
       N       E                     dE             d eps       ncg     rms          rms(c)
DAV:   1    -0.705665280495E+03   -0.86814E-03   -0.10290E-02 14112   0.166E-01    0.276E-02
RMM:   2    -0.705665306104E+03   -0.25609E-04   -0.23208E-04  7871   0.304E-02    0.604E-02
RMM:   3    -0.705665309315E+03   -0.32113E-05   -0.32316E-05  7127   0.130E-02    0.426E-02
RMM:   4    -0.705665307729E+03    0.15859E-05   -0.10548E-05  6927   0.666E-03    0.289E-02
RMM:   5    -0.705665307054E+03    0.67551E-06   -0.33061E-06  5956   0.440E-03    0.353E-02
RMM:   6    -0.705665308803E+03   -0.17489E-05   -0.44873E-08  1829   0.223E-03    0.388E-02
RMM:   7    -0.705665308798E+03    0.49768E-08   -0.22063E-07  2192   0.256E-03    0.362E-02
RMM:   8    -0.705665308274E+03    0.52388E-06   -0.59771E-07  2540   0.287E-03
 193 F= -.70566531E+03 E0= -.70505235E+03  d E =-.129294E-02  mag=     7.2477
       N       E                     dE             d eps       ncg     rms          rms(c)
DAV:   1    -0.705665664767E+03   -0.35597E-03   -0.41110E-02 13936   0.332E-01    0.733E-02
RMM:   2    -0.705665760982E+03   -0.96215E-04   -0.90313E-04 12470   0.602E-02    0.121E-01
RMM:   3    -0.705665792043E+03   -0.31061E-04   -0.15620E-04  7635   0.233E-02    0.114E-01
RMM:   4    -0.705666020516E+03   -0.22847E-03   -0.59920E-05  7331   0.155E-02    0.240E-01
RMM:   5    -0.705665768577E+03    0.25194E-03   -0.24898E-05  7201   0.997E-03    0.966E-02
RMM:   6    -0.705665764567E+03    0.40102E-05   -0.12127E-05  6629   0.663E-03    0.125E-01
RMM:   7    -0.705665764360E+03    0.20653E-06   -0.45486E-06  6145   0.456E-03    0.137E-01
RMM:   8    -0.705665768186E+03   -0.38263E-05   -0.14709E-05  7132   0.594E-03
 194 F= -.70566577E+03 E0= -.70505284E+03  d E =-.175285E-02  mag=     7.2477
       N       E                     dE             d eps       ncg     rms          rms(c)
DAV:   1    -0.705665852008E+03   -0.87648E-04   -0.34391E-03 13696   0.989E-02    0.285E-01
RMM:   2    -0.705666278759E+03   -0.42675E-03   -0.13448E-04  7397   0.215E-02    0.336E-01
RMM:   3    -0.705667703699E+03   -0.14249E-02   -0.29489E-04  9797   0.285E-02    0.594E-01
RMM:   4    -0.705665919289E+03    0.17844E-02   -0.16999E-04  7385   0.274E-02    0.149E-01
RMM:   5    -0.705665845519E+03    0.73770E-04   -0.54110E-05  7218   0.163E-02    0.574E-02
RMM:   6    -0.705665829122E+03    0.16397E-04   -0.10009E-05  6612   0.690E-03    0.274E-02
RMM:   7    -0.705665826707E+03    0.24145E-05   -0.17217E-06  4705   0.361E-03    0.139E-02
RMM:   8    -0.705665827345E+03   -0.63728E-06   -0.36009E-08  1215   0.212E-03
 195 F= -.70566583E+03 E0= -.70505288E+03  d E =-.181201E-02  mag=     7.2481
       N       E                     dE             d eps       ncg     rms          rms(c)
DAV:   1    -0.705666187302E+03   -0.36059E-03   -0.28898E-03 13552   0.845E-02    0.194E-02
RMM:   2    -0.705666223439E+03   -0.36137E-04   -0.62424E-05  7245   0.152E-02    0.852E-02
RMM:   3    -0.705666197046E+03    0.26393E-04   -0.11685E-05  7146   0.797E-03    0.369E-02
RMM:   4    -0.705666194527E+03    0.25193E-05   -0.16574E-06  4315   0.339E-03    0.208E-02
RMM:   5    -0.705666193982E+03    0.54442E-06   -0.35720E-08  1525   0.254E-03    0.169E-02
RMM:   6    -0.705666196327E+03   -0.23449E-05   -0.62281E-07  2597   0.293E-03    0.199E-02
RMM:   7    -0.705666194881E+03    0.14467E-05   -0.45526E-07  2406   0.294E-03    0.453E-03
RMM:   8    -0.705666195626E+03   -0.74497E-06   -0.33922E-07  1578   0.281E-03
 196 F= -.70566620E+03 E0= -.70505328E+03  d E =-.368281E-03  mag=     7.2485
       N       E                     dE             d eps       ncg     rms          rms(c)
DAV:   1    -0.705666882468E+03   -0.68759E-03   -0.25963E-02 13856   0.253E-01    0.392E-02
RMM:   2    -0.705666936885E+03   -0.54417E-04   -0.51149E-04  9987   0.438E-02    0.761E-02
RMM:   3    -0.705666938981E+03   -0.20958E-05   -0.81541E-05  7244   0.186E-02    0.416E-02
RMM:   4    -0.705666995595E+03   -0.56614E-04   -0.21775E-05  7154   0.973E-03    0.105E-01
RMM:   5    -0.705666946608E+03    0.48987E-04   -0.11804E-05  6754   0.687E-03    0.599E-02
RMM:   6    -0.705666945906E+03    0.70141E-06   -0.40928E-06  5634   0.426E-03    0.486E-02
RMM:   7    -0.705666943445E+03    0.24616E-05   -0.17297E-06  4098   0.339E-03    0.362E-02
RMM:   8    -0.705666943458E+03   -0.13410E-07   -0.22386E-06  4627   0.338E-03
 197 F= -.70566694E+03 E0= -.70505409E+03  d E =-.111611E-02  mag=     7.2487
       N       E                     dE             d eps       ncg     rms          rms(c)
DAV:   1    -0.705666253110E+03    0.69033E-03   -0.10401E-01 13760   0.507E-01    0.832E-02
RMM:   2    -0.705666546759E+03   -0.29365E-03   -0.20323E-03 13392   0.879E-02    0.205E-01
RMM:   3    -0.705666528659E+03    0.18100E-04   -0.36646E-04  9911   0.343E-02    0.156E-01
RMM:   4    -0.705666615750E+03   -0.87091E-04   -0.90464E-05  7552   0.201E-02    0.191E-01
RMM:   5    -0.705666461645E+03    0.15411E-03   -0.33640E-05  7251   0.128E-02    0.105E-01
RMM:   6    -0.705666492269E+03   -0.30624E-04   -0.16907E-05  6757   0.649E-03    0.122E-01
RMM:   7    -0.705666496349E+03   -0.40804E-05   -0.17252E-05  7043   0.733E-03    0.102E-01
RMM:   8    -0.705666475321E+03    0.21029E-04   -0.12703E-05  6576   0.687E-03
 198 F= -.70566648E+03 E0= -.70505366E+03  d E =-.647976E-03  mag=     7.2488
       N       E                     dE             d eps       ncg     rms          rms(c)
DAV:   1    -0.705667019920E+03   -0.52357E-03   -0.46109E-02 13936   0.337E-01    0.656E-02
RMM:   2    -0.705667389354E+03   -0.36943E-03   -0.87097E-04 12616   0.578E-02    0.240E-01
RMM:   3    -0.705667129430E+03    0.25992E-03   -0.15739E-04  7567   0.246E-02    0.954E-02
RMM:   4    -0.705667108300E+03    0.21131E-04   -0.43375E-05  7203   0.152E-02    0.489E-02
RMM:   5    -0.705667102420E+03    0.58798E-05   -0.13805E-05  6831   0.784E-03    0.355E-02
RMM:   6    -0.705667102512E+03   -0.92339E-07   -0.11764E-05  6631   0.552E-03    0.398E-02
RMM:   7    -0.705667096926E+03    0.55863E-05   -0.70873E-06  6390   0.549E-03    0.141E-02
RMM:   8    -0.705667096992E+03   -0.65840E-07   -0.13097E-06  3614   0.310E-03
 199 F= -.70566710E+03 E0= -.70505425E+03  d E =-.126965E-02  mag=     7.2490
       N       E                     dE             d eps       ncg     rms          rms(c)
DAV:   1    -0.705667432843E+03   -0.33592E-03   -0.95125E-03 13584   0.152E-01    0.230E-02
RMM:   2    -0.705667485560E+03   -0.52717E-04   -0.17875E-04  7584   0.253E-02    0.964E-02
RMM:   3    -0.705667446601E+03    0.38960E-04   -0.25455E-05  7164   0.119E-02    0.265E-02
RMM:   4    -0.705667452926E+03   -0.63247E-05   -0.70063E-06  6761   0.538E-03    0.399E-02
RMM:   5    -0.705667448181E+03    0.47445E-05   -0.32732E-06  5705   0.423E-03    0.308E-02
RMM:   6    -0.705667446906E+03    0.12751E-05   -0.21497E-07  2098   0.260E-03    0.267E-02
RMM:   7    -0.705667442961E+03    0.39448E-05   -0.77457E-07  2876   0.294E-03    0.170E-02
RMM:   8    -0.705667441483E+03    0.14780E-05   -0.21060E-07  1715   0.282E-03
 200 F= -.70566744E+03 E0= -.70505460E+03  d E =-.344492E-03  mag=     7.2494
       N       E                     dE             d eps       ncg     rms          rms(c)
DAV:   1    -0.705667453155E+03   -0.10194E-04   -0.53737E-04 12944   0.362E-02    0.120E-02
RMM:   2    -0.705667468641E+03   -0.15485E-04   -0.13687E-05  7112   0.690E-03    0.553E-02
RMM:   3    -0.705667455126E+03    0.13515E-04   -0.33581E-06  6003   0.430E-03    0.265E-02
RMM:   4    -0.705667454693E+03    0.43272E-06   -0.31336E-08  1402   0.233E-03    0.193E-02
RMM:   5    -0.705667454953E+03   -0.26015E-06   -0.19509E-09  1100   0.228E-03    0.221E-02
RMM:   6    -0.705667451970E+03    0.29828E-05   -0.61034E-09  1144   0.235E-03    0.105E-02
RMM:   7    -0.705667451418E+03    0.55265E-06   -0.19033E-09   942   0.235E-03    0.497E-03
RMM:   8    -0.705667451692E+03   -0.27424E-06    0.00000E+00   900   0.234E-03
 201 F= -.70566745E+03 E0= -.70505462E+03  d E =-.354700E-03  mag=     7.2498
       N       E                     dE             d eps       ncg     rms          rms(c)
DAV:   1    -0.705667658698E+03   -0.20728E-03   -0.52048E-03 13680   0.111E-01    0.198E-02
RMM:   2    -0.705667668927E+03   -0.10229E-04   -0.10719E-04  7258   0.204E-02    0.383E-02
RMM:   3    -0.705667669462E+03   -0.53472E-06   -0.16003E-05  7103   0.948E-03    0.192E-02
RMM:   4    -0.705667675545E+03   -0.60831E-05   -0.46332E-06  6375   0.442E-03    0.411E-02
RMM:   5    -0.705667669180E+03    0.63647E-05   -0.18804E-06  4600   0.354E-03    0.213E-02
RMM:   6    -0.705667669414E+03   -0.23439E-06   -0.17491E-07  2116   0.270E-03    0.143E-02
RMM:   7    -0.705667669960E+03   -0.54539E-06   -0.31988E-07  2011   0.275E-03    0.119E-02
RMM:   8    -0.705667670060E+03   -0.10026E-06   -0.10183E-07  1374   0.266E-03
 202 F= -.70566767E+03 E0= -.70505485E+03  d E =-.218368E-03  mag=     7.2501
       N       E                     dE             d eps       ncg     rms          rms(c)
DAV:   1    -0.705667697968E+03   -0.28008E-04   -0.13443E-03 13232   0.564E-02    0.115E-02
RMM:   2    -0.705667702780E+03   -0.48125E-05   -0.29830E-05  7117   0.106E-02    0.213E-02
RMM:   3    -0.705667701704E+03    0.10759E-05   -0.44885E-06  6746   0.499E-03    0.119E-02
RMM:   4    -0.705667703375E+03   -0.16701E-05   -0.15990E-07  1989   0.248E-03    0.172E-02
RMM:   5    -0.705667702445E+03    0.92952E-06   -0.48215E-08  1783   0.239E-03    0.892E-03
RMM:   6    -0.705667702730E+03   -0.28487E-06   -0.15972E-09  1212   0.230E-03    0.563E-03
RMM:   7    -0.705667703301E+03   -0.57144E-06    0.00000E+00  1008   0.231E-03    0.320E-03
RMM:   8    -0.705667703782E+03   -0.48093E-06   -0.50015E-10   899   0.232E-03
 203 F= -.70566770E+03 E0= -.70505489E+03  d E =-.252090E-03  mag=     7.2503
       N       E                     dE             d eps       ncg     rms          rms(c)
DAV:   1    -0.705667779074E+03   -0.75772E-04   -0.12727E-03 13232   0.541E-02    0.937E-03
RMM:   2    -0.705667782208E+03   -0.31341E-05   -0.27624E-05  7077   0.106E-02    0.172E-02
RMM:   3    -0.705667782363E+03   -0.15565E-06   -0.44209E-06  6776   0.500E-03    0.802E-03
RMM:   4    -0.705667786332E+03   -0.39684E-05   -0.22029E-07  2061   0.252E-03    0.270E-02
RMM:   5    -0.705667782286E+03    0.40454E-05   -0.23241E-08  1542   0.240E-03    0.705E-03
RMM:   6    -0.705667782985E+03   -0.69879E-06   -0.38160E-09  1048   0.235E-03    0.541E-03
RMM:   7    -0.705667783259E+03   -0.27403E-06   -0.83825E-09   899   0.244E-03    0.580E-03
RMM:   8    -0.705667783476E+03   -0.21735E-06   -0.11045E-08   854   0.247E-03
 204 F= -.70566778E+03 E0= -.70505497E+03  d E =-.796941E-04  mag=     7.2505
       N       E                     dE             d eps       ncg     rms          rms(c)
DAV:   1    -0.705667812243E+03   -0.28984E-04   -0.30784E-03 13600   0.841E-02    0.154E-02
RMM:   2    -0.705667818674E+03   -0.64314E-05   -0.66005E-05  7126   0.163E-02    0.250E-02
RMM:   3    -0.705667819160E+03   -0.48567E-06   -0.10416E-05  7043   0.765E-03    0.146E-02
RMM:   4    -0.705667824659E+03   -0.54989E-05   -0.26921E-06  5195   0.364E-03    0.348E-02
RMM:   5    -0.705667819399E+03    0.52598E-05   -0.61193E-07  2981   0.306E-03    0.182E-02
RMM:   6    -0.705667819127E+03    0.27221E-06   -0.96355E-08  1687   0.278E-03    0.119E-02
RMM:   7    -0.705667819082E+03    0.44332E-07   -0.54792E-08  1435   0.280E-03    0.917E-03
RMM:   8    -0.705667819119E+03   -0.36285E-07   -0.21029E-07  1393   0.288E-03
 205 F= -.70566782E+03 E0= -.70505501E+03  d E =-.115336E-03  mag=     7.2507
       N       E                     dE             d eps       ncg     rms          rms(c)
DAV:   1    -0.705667820353E+03   -0.12704E-05   -0.96293E-05  8016   0.155E-02    0.541E-03
RMM:   2    -0.705667824960E+03   -0.46077E-05   -0.60599E-06  6377   0.539E-03    0.270E-02
RMM:   3    -0.705667820784E+03    0.41764E-05   -0.10877E-07  1688   0.260E-03    0.761E-03
RMM:   4    -0.705667821699E+03   -0.91473E-06   -0.14973E-07  1382   0.264E-03    0.995E-03
RMM:   5    -0.705667821356E+03    0.34221E-06   -0.30772E-09   802   0.251E-03    0.264E-03
RMM:   6    -0.705667821817E+03   -0.46079E-06   -0.72191E-09   855   0.254E-03    0.241E-03
RMM:   7    -0.705667822266E+03   -0.44827E-06   -0.41806E-08   940   0.257E-03    0.191E-03
RMM:   8    -0.705667822632E+03   -0.36643E-06   -0.38184E-08   901   0.255E-03
 206 F= -.70566782E+03 E0= -.70505502E+03  d E =-.118850E-03  mag=     7.2508
       N       E                     dE             d eps       ncg     rms          rms(c)
DAV:   1    -0.705667864494E+03   -0.42228E-04   -0.12524E-03 13168   0.506E-02    0.999E-03
RMM:   2    -0.705667867146E+03   -0.26525E-05   -0.23702E-05  7053   0.984E-03    0.171E-02
RMM:   3    -0.705667867529E+03   -0.38329E-06   -0.41791E-06  6806   0.486E-03    0.122E-02
RMM:   4    -0.705667868469E+03   -0.93928E-06   -0.11477E-07  1828   0.238E-03    0.162E-02
RMM:   5    -0.705667867712E+03    0.75698E-06   -0.98658E-08  1755   0.248E-03    0.895E-03
RMM:   6    -0.705667868182E+03   -0.47005E-06   -0.13457E-08  1200   0.243E-03    0.557E-03
RMM:   7    -0.705667868345E+03   -0.16315E-06   -0.12180E-08  1022   0.250E-03    0.307E-03
RMM:   8    -0.705667868666E+03   -0.32109E-06   -0.45562E-08   989   0.256E-03
 207 F= -.70566787E+03 E0= -.70505507E+03  d E =-.460340E-04  mag=     7.2509
       N       E                     dE             d eps       ncg     rms          rms(c)
DAV:   1    -0.705667879934E+03   -0.11589E-04   -0.60480E-04 13056   0.349E-02    0.722E-03
RMM:   2    -0.705667881334E+03   -0.14001E-05   -0.12900E-05  6994   0.745E-03    0.908E-03
RMM:   3    -0.705667881682E+03   -0.34789E-06   -0.16845E-06  4753   0.357E-03    0.813E-03
RMM:   4    -0.705667882297E+03   -0.61503E-06   -0.46022E-09  1384   0.244E-03    0.128E-02
RMM:   5    -0.705667881724E+03    0.57313E-06   -0.71803E-09  1150   0.245E-03    0.577E-03
RMM:   6    -0.705667881980E+03   -0.25611E-06   -0.40758E-09  1080   0.240E-03    0.486E-03
RMM:   7    -0.705667882025E+03   -0.45009E-07   -0.14712E-08   971   0.241E-03    0.228E-03
RMM:   8    -0.705667882052E+03   -0.27474E-07    0.00000E+00   849   0.240E-03
 208 F= -.70566788E+03 E0= -.70505508E+03  d E =-.594205E-04  mag=     7.2509
       N       E                     dE             d eps       ncg     rms          rms(c)
DAV:   1    -0.705667910188E+03   -0.28163E-04   -0.10430E-03 12912   0.455E-02    0.835E-03
RMM:   2    -0.705667911825E+03   -0.16365E-05   -0.20073E-05  7056   0.901E-03    0.114E-02
RMM:   3    -0.705667912046E+03   -0.22091E-06   -0.34072E-06  6279   0.444E-03    0.507E-03
RMM:   4    -0.705667912534E+03   -0.48869E-06   -0.13519E-07  1884   0.244E-03    0.924E-03
RMM:   5    -0.705667912995E+03   -0.46042E-06   -0.24930E-08  1341   0.236E-03    0.125E-02
RMM:   6    -0.705667912243E+03    0.75201E-06   -0.24369E-08  1081   0.231E-03    0.506E-03
RMM:   7    -0.705667912442E+03   -0.19911E-06   -0.85633E-09   920   0.234E-03    0.316E-03
RMM:   8    -0.705667912470E+03   -0.28282E-07   -0.94971E-09   820   0.236E-03
 209 F= -.70566791E+03 E0= -.70505512E+03  d E =-.304175E-04  mag=     7.2508
