       N       E                     dE             d eps       ncg     rms          rms(c)
DAV:   1     0.894082741173E+04    0.89408E+04   -0.33926E+05 24848   0.111E+03
DAV:   2     0.767895801803E+03   -0.81729E+04   -0.73612E+04 30960   0.303E+02
DAV:   3    -0.908253863582E+03   -0.16761E+04   -0.16549E+04 29680   0.148E+02
DAV:   4    -0.992196667839E+03   -0.83943E+02   -0.83375E+02 33232   0.407E+01
DAV:   5    -0.995514990179E+03   -0.33183E+01   -0.33095E+01 39712   0.645E+00    0.176E+02
RMM:   6    -0.941628271447E+03    0.53887E+02   -0.27571E+03 26946   0.912E+01    0.354E+02
RMM:   7    -0.724127512383E+03    0.21750E+03   -0.32560E+02 24336   0.303E+01    0.210E+02
RMM:   8    -0.894462915097E+03   -0.17034E+03   -0.30687E+02 24383   0.276E+01    0.213E+02
RMM:   9    -0.656265332473E+03    0.23820E+03   -0.15832E+02 24330   0.202E+01    0.144E+02
RMM:  10    -0.551968189476E+03    0.10430E+03   -0.77240E+01 24347   0.149E+01    0.830E+01
RMM:  11    -0.529165438172E+03    0.22803E+02   -0.25627E+01 24383   0.788E+00    0.774E+01
RMM:  12    -0.528058972384E+03    0.11065E+01   -0.16077E+01 24521   0.666E+00    0.745E+01
RMM:  13    -0.518866923737E+03    0.91920E+01   -0.17380E+01 24533   0.668E+00    0.622E+01
RMM:  14    -0.510065003273E+03    0.88019E+01   -0.12434E+01 24600   0.590E+00    0.518E+01
RMM:  15    -0.494549618884E+03    0.15515E+02   -0.89537E+00 24349   0.473E+00    0.443E+01
RMM:  16    -0.484441172728E+03    0.10108E+02   -0.44335E+00 24532   0.333E+00    0.389E+01
RMM:  17    -0.476025220936E+03    0.84160E+01   -0.26770E+00 25042   0.248E+00    0.365E+01
RMM:  18    -0.467167055580E+03    0.88582E+01   -0.23118E+00 25132   0.231E+00    0.342E+01
RMM:  19    -0.459364391662E+03    0.78027E+01   -0.20257E+00 25195   0.221E+00    0.326E+01
RMM:  20    -0.452773148159E+03    0.65912E+01   -0.19895E+00 25694   0.217E+00    0.310E+01
RMM:  21    -0.449537944689E+03    0.32352E+01   -0.13193E+00 25101   0.186E+00    0.292E+01
RMM:  22    -0.448434917532E+03    0.11030E+01   -0.11248E+00 25310   0.164E+00    0.282E+01
RMM:  23    -0.452204574904E+03   -0.37697E+01   -0.11162E+00 25824   0.166E+00    0.280E+01
RMM:  24    -0.460584546919E+03   -0.83800E+01   -0.19575E+00 28316   0.212E+00    0.270E+01
RMM:  25    -0.473032184190E+03   -0.12448E+02   -0.18292E+00 27419   0.199E+00    0.263E+01
RMM:  26    -0.484826112684E+03   -0.11794E+02   -0.22553E+00 28603   0.207E+00    0.262E+01
RMM:  27    -0.501498445616E+03   -0.16672E+02   -0.36398E+00 29455   0.247E+00    0.252E+01
RMM:  28    -0.520803953110E+03   -0.19306E+02   -0.52140E+00 31794   0.289E+00    0.247E+01
RMM:  29    -0.537820345022E+03   -0.17016E+02   -0.53055E+00 32008   0.288E+00    0.235E+01
RMM:  30    -0.551897112483E+03   -0.14077E+02   -0.43332E+00 31949   0.259E+00    0.231E+01
RMM:  31    -0.569853524464E+03   -0.17956E+02   -0.67131E+00 32877   0.315E+00    0.228E+01
RMM:  32    -0.588571843009E+03   -0.18718E+02   -0.80197E+00 34373   0.350E+00    0.225E+01
RMM:  33    -0.605965855199E+03   -0.17394E+02   -0.92325E+00 34760   0.365E+00    0.212E+01
RMM:  34    -0.618438544577E+03   -0.12473E+02   -0.83713E+00 34747   0.339E+00    0.194E+01
RMM:  35    -0.620220383673E+03   -0.17818E+01   -0.18828E+00 31426   0.181E+00    0.167E+01
RMM:  36    -0.622790401168E+03   -0.25700E+01   -0.60613E-01 27533   0.113E+00    0.154E+01
RMM:  37    -0.625728251404E+03   -0.29379E+01   -0.39511E-01 26707   0.922E-01    0.144E+01
RMM:  38    -0.632178351138E+03   -0.64501E+01   -0.10521E+00 30060   0.127E+00    0.131E+01
RMM:  39    -0.637561669745E+03   -0.53833E+01   -0.13116E+00 31651   0.144E+00    0.135E+01
RMM:  40    -0.641473514181E+03   -0.39118E+01   -0.12306E+00 31761   0.141E+00    0.139E+01
RMM:  41    -0.644042993802E+03   -0.25695E+01   -0.13028E+00 32284   0.136E+00    0.145E+01
RMM:  42    -0.645384274101E+03   -0.13413E+01   -0.10584E+00 31674   0.118E+00    0.153E+01
RMM:  43    -0.646675626407E+03   -0.12914E+01   -0.59532E-01 29814   0.898E-01    0.155E+01
RMM:  44    -0.647580239696E+03   -0.90461E+00   -0.41784E-01 28763   0.783E-01    0.155E+01
RMM:  45    -0.648360344270E+03   -0.78010E+00   -0.64895E-01 30806   0.999E-01    0.161E+01
RMM:  46    -0.650717441360E+03   -0.23571E+01   -0.53091E-01 30665   0.946E-01    0.155E+01
RMM:  47    -0.652740878894E+03   -0.20234E+01   -0.31832E-01 29458   0.735E-01    0.140E+01
RMM:  48    -0.655137539677E+03   -0.23967E+01   -0.42821E-01 30763   0.839E-01    0.116E+01
RMM:  49    -0.656867918134E+03   -0.17304E+01   -0.52555E-01 31199   0.874E-01    0.941E+00
RMM:  50    -0.659424972808E+03   -0.25571E+01   -0.38570E-01 29829   0.710E-01    0.713E+00
RMM:  51    -0.660138174318E+03   -0.71320E+00   -0.36722E-01 31932   0.808E-01    0.579E+00
RMM:  52    -0.661977244011E+03   -0.18391E+01   -0.50885E-01 30655   0.772E-01    0.485E+00
RMM:  53    -0.663829097936E+03   -0.18519E+01   -0.28757E-01 29445   0.553E-01    0.392E+00
RMM:  54    -0.664404209174E+03   -0.57511E+00   -0.16614E-01 27409   0.434E-01    0.352E+00
RMM:  55    -0.664604765809E+03   -0.20056E+00   -0.62560E-02 26311   0.326E-01    0.321E+00
RMM:  56    -0.664787827666E+03   -0.18306E+00   -0.76599E-02 26545   0.365E-01    0.291E+00
RMM:  57    -0.664479325243E+03    0.30850E+00   -0.40509E-02 26295   0.310E-01    0.262E+00
RMM:  58    -0.664353258272E+03    0.12607E+00   -0.26047E-02 25391   0.249E-01    0.225E+00
RMM:  59    -0.664337756235E+03    0.15502E-01   -0.24010E-02 25880   0.211E-01    0.202E+00
RMM:  60    -0.664767479509E+03   -0.42972E+00   -0.20404E-02 25921   0.187E-01    0.171E+00
RMM:  61    -0.665023938314E+03   -0.25646E+00   -0.22419E-02 26752   0.210E-01    0.159E+00
RMM:  62    -0.665045798910E+03   -0.21861E-01   -0.84036E-03 24730   0.141E-01    0.133E+00
RMM:  63    -0.665110896529E+03   -0.65098E-01   -0.51170E-03 24842   0.959E-02    0.122E+00
RMM:  64    -0.665179733069E+03   -0.68837E-01   -0.52942E-03 25572   0.872E-02    0.119E+00
RMM:  65    -0.665299215159E+03   -0.11948E+00   -0.52603E-03 26211   0.902E-02    0.114E+00
RMM:  66    -0.665380370777E+03   -0.81156E-01   -0.40711E-03 25564   0.788E-02    0.110E+00
RMM:  67    -0.665442005958E+03   -0.61635E-01   -0.54021E-03 26386   0.823E-02    0.106E+00
RMM:  68    -0.665414789872E+03    0.27216E-01   -0.41317E-03 26333   0.701E-02    0.102E+00
RMM:  69    -0.665326553786E+03    0.88236E-01   -0.45849E-03 26567   0.649E-02    0.983E-01
RMM:  70    -0.665216402633E+03    0.11015E+00   -0.52067E-03 27023   0.700E-02    0.969E-01
RMM:  71    -0.665066513896E+03    0.14989E+00   -0.36159E-03 27499   0.673E-02    0.920E-01
RMM:  72    -0.664992176828E+03    0.74337E-01   -0.32837E-03 27674   0.688E-02    0.877E-01
RMM:  73    -0.664998026609E+03   -0.58498E-02   -0.21564E-03 25545   0.615E-02    0.795E-01
RMM:  74    -0.665055195775E+03   -0.57169E-01   -0.31082E-03 27275   0.726E-02    0.741E-01
RMM:  75    -0.665278118599E+03   -0.22292E+00   -0.46119E-03 29053   0.819E-02    0.606E-01
RMM:  76    -0.665416827723E+03   -0.13871E+00   -0.50186E-03 28972   0.782E-02    0.495E-01
RMM:  77    -0.665452738119E+03   -0.35910E-01   -0.30065E-03 27251   0.649E-02    0.400E-01
RMM:  78    -0.665496351635E+03   -0.43614E-01   -0.28499E-03 26332   0.608E-02    0.322E-01
RMM:  79    -0.665608684495E+03   -0.11233E+00   -0.22923E-03 24707   0.494E-02    0.248E-01
RMM:  80    -0.665791515742E+03   -0.18283E+00   -0.16152E-03 23267   0.407E-02
   1 F= -.66579152E+03 E0= -.66537534E+03  d E =-.665792E+03  mag=    80.0067
       N       E                     dE             d eps       ncg     rms          rms(c)
DAV:   1    -0.658642405076E+03    0.69663E+01   -0.50299E+02 27488   0.215E+01    0.869E+00
RMM:   2    -0.659035858348E+03   -0.39345E+00   -0.22038E+01 24320   0.407E+00    0.733E+00
RMM:   3    -0.660177246393E+03   -0.11414E+01   -0.40804E+00 24460   0.183E+00    0.907E+00
RMM:   4    -0.659577554278E+03    0.59969E+00   -0.46770E-01 24797   0.935E-01    0.499E+00
RMM:   5    -0.659456121015E+03    0.12143E+00   -0.20124E-01 24746   0.563E-01    0.325E+00
RMM:   6    -0.659539665800E+03   -0.83545E-01   -0.13251E-01 24453   0.420E-01    0.199E+00
RMM:   7    -0.659617067664E+03   -0.77402E-01   -0.80883E-02 24957   0.367E-01    0.214E+00
RMM:   8    -0.659643406533E+03   -0.26339E-01   -0.38980E-02 24480   0.280E-01    0.133E+00
RMM:   9    -0.659682318428E+03   -0.38912E-01   -0.29738E-02 24353   0.223E-01    0.953E-01
RMM:  10    -0.659706958824E+03   -0.24640E-01   -0.95924E-03 23887   0.141E-01    0.559E-01
RMM:  11    -0.659722437005E+03   -0.15478E-01   -0.49765E-03 24547   0.834E-02    0.383E-01
RMM:  12    -0.659734680774E+03   -0.12244E-01   -0.22575E-03 23675   0.596E-02    0.240E-01
RMM:  13    -0.659742597281E+03   -0.79165E-02   -0.10276E-03 23636   0.382E-02    0.157E-01
RMM:  14    -0.659751762873E+03   -0.91656E-02   -0.51191E-04 21537   0.249E-02    0.108E-01
RMM:  15    -0.659762768384E+03   -0.11006E-01   -0.27533E-04 18615   0.191E-02    0.901E-02
RMM:  16    -0.659773209531E+03   -0.10441E-01   -0.17616E-04 16100   0.159E-02    0.807E-02
RMM:  17    -0.659781578113E+03   -0.83686E-02   -0.10589E-04 14532   0.121E-02    0.698E-02
RMM:  18    -0.659790843252E+03   -0.92651E-02   -0.88409E-05 14730   0.112E-02    0.682E-02
RMM:  19    -0.659804146023E+03   -0.13303E-01   -0.11795E-04 14865   0.126E-02    0.608E-02
RMM:  20    -0.659819343508E+03   -0.15197E-01   -0.14186E-04 15183   0.129E-02    0.526E-02
RMM:  21    -0.659826965868E+03   -0.76224E-02   -0.66148E-05 13887   0.916E-03    0.500E-02
RMM:  22    -0.659832344566E+03   -0.53787E-02   -0.49849E-05 13638   0.820E-03    0.457E-02
RMM:  23    -0.659838257043E+03   -0.59125E-02   -0.50304E-05 13626   0.807E-03    0.443E-02
RMM:  24    -0.659844885919E+03   -0.66289E-02   -0.60575E-05 14034   0.805E-03    0.402E-02
RMM:  25    -0.659848413873E+03   -0.35280E-02   -0.32274E-05 12949   0.629E-03    0.374E-02
RMM:  26    -0.659853478455E+03   -0.50646E-02   -0.30030E-05 12971   0.584E-03    0.349E-02
RMM:  27    -0.659859536005E+03   -0.60575E-02   -0.41684E-05 13282   0.639E-03    0.337E-02
RMM:  28    -0.659864710274E+03   -0.51743E-02   -0.26891E-05 12715   0.576E-03    0.309E-02
RMM:  29    -0.659868518801E+03   -0.38085E-02   -0.18913E-05 12377   0.501E-03    0.285E-02
RMM:  30    -0.659871548966E+03   -0.30302E-02   -0.13258E-05 11605   0.437E-03    0.266E-02
RMM:  31    -0.659875162573E+03   -0.36136E-02   -0.13325E-05 12541   0.453E-03    0.255E-02
RMM:  32    -0.659878767556E+03   -0.36050E-02   -0.12177E-05 12464   0.447E-03    0.232E-02
RMM:  33    -0.659881025434E+03   -0.22579E-02   -0.74827E-06 11761   0.378E-03    0.228E-02
RMM:  34    -0.659882781748E+03   -0.17563E-02   -0.52301E-06 11125   0.329E-03    0.213E-02
RMM:  35    -0.659884799178E+03   -0.20174E-02   -0.52045E-06 10957   0.317E-03    0.205E-02
RMM:  36    -0.659887786584E+03   -0.29874E-02   -0.68681E-06 12071   0.353E-03    0.200E-02
RMM:  37    -0.659890504065E+03   -0.27175E-02   -0.57195E-06 11412   0.326E-03    0.193E-02
RMM:  38    -0.659893577184E+03   -0.30731E-02   -0.62479E-06 11500   0.332E-03    0.179E-02
RMM:  39    -0.659896483935E+03   -0.29068E-02   -0.55793E-06 11052   0.319E-03    0.171E-02
RMM:  40    -0.659899921466E+03   -0.34375E-02   -0.83850E-06 11829   0.344E-03    0.161E-02
RMM:  41    -0.659902989178E+03   -0.30677E-02   -0.71525E-06 11263   0.331E-03    0.149E-02
RMM:  42    -0.659905551237E+03   -0.25621E-02   -0.56774E-06 10866   0.311E-03    0.132E-02
RMM:  43    -0.659907359868E+03   -0.18086E-02   -0.28717E-06  9287   0.266E-03    0.123E-02
RMM:  44    -0.659909328030E+03   -0.19682E-02   -0.31726E-06  9751   0.270E-03    0.113E-02
RMM:  45    -0.659911196298E+03   -0.18683E-02   -0.37060E-06 10622   0.285E-03    0.107E-02
RMM:  46    -0.659912975891E+03   -0.17796E-02   -0.27543E-06 10042   0.279E-03    0.915E-03
RMM:  47    -0.659914313334E+03   -0.13374E-02   -0.22453E-06  9715   0.266E-03    0.825E-03
RMM:  48    -0.659915721630E+03   -0.14083E-02   -0.23734E-06  9553   0.267E-03    0.726E-03
RMM:  49    -0.659916950949E+03   -0.12293E-02   -0.21445E-06  8941   0.254E-03    0.618E-03
RMM:  50    -0.659917732660E+03   -0.78171E-03   -0.18374E-06  8205   0.243E-03    0.558E-03
RMM:  51    -0.659918210365E+03   -0.47770E-03   -0.16084E-06  7744   0.232E-03    0.465E-03
RMM:  52    -0.659918578488E+03   -0.36812E-03   -0.18508E-06  7923   0.232E-03    0.448E-03
RMM:  53    -0.659918975707E+03   -0.39722E-03   -0.32404E-06  8627   0.248E-03    0.407E-03
RMM:  54    -0.659919284316E+03   -0.30861E-03   -0.30158E-06  8420   0.246E-03    0.374E-03
RMM:  55    -0.659919440400E+03   -0.15608E-03   -0.27732E-06  8332   0.244E-03    0.328E-03
RMM:  56    -0.659919534109E+03   -0.93709E-04   -0.23100E-06  7950   0.233E-03
   2 F= -.65991953E+03 E0= -.65949281E+03  d E =0.587198E+01  mag=    79.7525
       N       E                     dE             d eps       ncg     rms          rms(c)
DAV:   1    -0.666840902178E+03   -0.69215E+01   -0.41527E+02 27312   0.181E+01    0.192E+01
RMM:   2    -0.676745313705E+03   -0.99044E+01   -0.72871E+01 24451   0.409E+00    0.175E+01
RMM:   3    -0.670997630813E+03    0.57477E+01   -0.74252E+00 24495   0.220E+00    0.162E+01
RMM:   4    -0.669008087642E+03    0.19895E+01   -0.97430E-01 24391   0.119E+00    0.107E+01
RMM:   5    -0.667480716700E+03    0.15274E+01   -0.13255E+00 24695   0.948E-01    0.785E+00
RMM:   6    -0.666443389216E+03    0.10373E+01   -0.93570E-01 25564   0.850E-01    0.470E+00
RMM:   7    -0.666198304583E+03    0.24508E+00   -0.21466E-01 24841   0.476E-01    0.312E+00
RMM:   8    -0.666226906859E+03   -0.28602E-01   -0.61589E-02 23972   0.363E-01    0.289E+00
RMM:   9    -0.666268058714E+03   -0.41152E-01   -0.79277E-02 24659   0.310E-01    0.216E+00
RMM:  10    -0.666322554771E+03   -0.54496E-01   -0.71928E-02 25861   0.333E-01    0.176E+00
RMM:  11    -0.666356088467E+03   -0.33534E-01   -0.15720E-02 23925   0.148E-01    0.164E+00
RMM:  12    -0.666356932722E+03   -0.84426E-03   -0.36811E-03 24457   0.688E-02    0.155E+00
RMM:  13    -0.666415693360E+03   -0.58761E-01   -0.45079E-02 28328   0.165E-01    0.101E+00
RMM:  14    -0.666411985336E+03    0.37080E-02   -0.19052E-02 27892   0.137E-01    0.594E-01
RMM:  15    -0.666422784773E+03   -0.10799E-01   -0.57949E-03 24631   0.981E-02    0.546E-01
RMM:  16    -0.666434056657E+03   -0.11272E-01   -0.34341E-03 23150   0.817E-02    0.314E-01
RMM:  17    -0.666443129112E+03   -0.90725E-02   -0.20963E-03 22555   0.562E-02    0.262E-01
RMM:  18    -0.666451313052E+03   -0.81839E-02   -0.11212E-03 21302   0.374E-02    0.237E-01
RMM:  19    -0.666458192711E+03   -0.68797E-02   -0.71246E-04 20128   0.282E-02    0.146E-01
RMM:  20    -0.666462580670E+03   -0.43880E-02   -0.38474E-04 18407   0.226E-02    0.102E-01
RMM:  21    -0.666463599276E+03   -0.10186E-02   -0.12059E-04 15216   0.163E-02    0.843E-02
RMM:  22    -0.666464086405E+03   -0.48713E-03   -0.11238E-04 15203   0.152E-02    0.634E-02
RMM:  23    -0.666465005551E+03   -0.91915E-03   -0.11089E-04 14914   0.149E-02    0.536E-02
RMM:  24    -0.666465549877E+03   -0.54433E-03   -0.67696E-05 14002   0.110E-02    0.578E-02
RMM:  25    -0.666465664494E+03   -0.11462E-03   -0.38858E-05 13527   0.917E-03    0.470E-02
RMM:  26    -0.666465955856E+03   -0.29136E-03   -0.24367E-05 12959   0.663E-03    0.333E-02
RMM:  27    -0.666466643937E+03   -0.68808E-03   -0.18846E-05 12717   0.576E-03    0.276E-02
RMM:  28    -0.666467409298E+03   -0.76536E-03   -0.14742E-05 12538   0.497E-03    0.269E-02
RMM:  29    -0.666468275751E+03   -0.86645E-03   -0.10568E-05 12200   0.420E-03    0.242E-02
RMM:  30    -0.666469522783E+03   -0.12470E-02   -0.13220E-05 12400   0.437E-03    0.249E-02
RMM:  31    -0.666470419985E+03   -0.89720E-03   -0.10014E-05 11913   0.387E-03    0.236E-02
RMM:  32    -0.666471195450E+03   -0.77546E-03   -0.13470E-05 12600   0.441E-03    0.280E-02
RMM:  33    -0.666471413634E+03   -0.21818E-03   -0.81208E-06 11685   0.367E-03    0.244E-02
RMM:  34    -0.666471491365E+03   -0.77731E-04   -0.65209E-06 11468   0.346E-03
   3 F= -.66647149E+03 E0= -.66605465E+03  d E =-.679976E+00  mag=    79.7567
       N       E                     dE             d eps       ncg     rms          rms(c)
DAV:   1    -0.666505849773E+03   -0.34436E-01   -0.67611E-01 26960   0.796E-01    0.563E-01
RMM:   2    -0.666511006047E+03   -0.51563E-02   -0.36624E-02 22573   0.171E-01    0.984E-01
RMM:   3    -0.666507374616E+03    0.36314E-02   -0.65828E-03 21837   0.985E-02    0.266E-01
RMM:   4    -0.666507620868E+03   -0.24625E-03   -0.15593E-03 20292   0.501E-02    0.175E-01
RMM:   5    -0.666507626710E+03   -0.58417E-05   -0.48129E-04 17528   0.287E-02    0.994E-02
RMM:   6    -0.666507721909E+03   -0.95199E-04   -0.14117E-04 14609   0.157E-02    0.771E-02
RMM:   7    -0.666507887935E+03   -0.16603E-03   -0.78371E-05 13402   0.127E-02    0.580E-02
RMM:   8    -0.666508063008E+03   -0.17507E-03   -0.55264E-05 13142   0.967E-03    0.482E-02
RMM:   9    -0.666508119256E+03   -0.56248E-04   -0.21888E-05 12279   0.754E-03
   4 F= -.66650812E+03 E0= -.66609090E+03  d E =-.716604E+00  mag=    79.7593
       N       E                     dE             d eps       ncg     rms          rms(c)
DAV:   1    -0.666505054330E+03    0.30087E-02   -0.37903E-01 25744   0.594E-01    0.442E-01
RMM:   2    -0.666508444820E+03   -0.33905E-02   -0.22148E-02 22260   0.131E-01    0.778E-01
RMM:   3    -0.666505999922E+03    0.24449E-02   -0.39905E-03 21172   0.762E-02    0.205E-01
RMM:   4    -0.666506076889E+03   -0.76967E-04   -0.91383E-04 18987   0.381E-02    0.133E-01
RMM:   5    -0.666506076280E+03    0.60908E-06   -0.27984E-04 15900   0.222E-02    0.761E-02
RMM:   6    -0.666506139553E+03   -0.63273E-04   -0.80306E-05 13470   0.120E-02    0.574E-02
RMM:   7    -0.666506259377E+03   -0.11982E-03   -0.45041E-05 12762   0.983E-03    0.449E-02
RMM:   8    -0.666506391822E+03   -0.13245E-03   -0.32651E-05 12608   0.759E-03    0.367E-02
RMM:   9    -0.666506436566E+03   -0.44744E-04   -0.12102E-05 11943   0.576E-03
   5 F= -.66650644E+03 E0= -.66608894E+03  d E =-.714921E+00  mag=    79.7617
       N       E                     dE             d eps       ncg     rms          rms(c)
DAV:   1    -0.666512509680E+03   -0.61179E-02   -0.13274E-01 26112   0.350E-01    0.250E-01
RMM:   2    -0.666512959545E+03   -0.44987E-03   -0.75211E-03 21085   0.747E-02    0.446E-01
RMM:   3    -0.666512413069E+03    0.54648E-03   -0.12757E-03 19278   0.434E-02    0.120E-01
RMM:   4    -0.666512571631E+03   -0.15856E-03   -0.30080E-04 15720   0.222E-02    0.814E-02
RMM:   5    -0.666512689260E+03   -0.11763E-03   -0.99077E-05 13588   0.139E-02    0.472E-02
RMM:   6    -0.666512773517E+03   -0.84257E-04   -0.26226E-05 12390   0.751E-03    0.338E-02
RMM:   7    -0.666512900598E+03   -0.12708E-03   -0.16226E-05 12120   0.602E-03    0.275E-02
RMM:   8    -0.666513080556E+03   -0.17996E-03   -0.10819E-05 11771   0.467E-03    0.210E-02
RMM:   9    -0.666513175941E+03   -0.95384E-04   -0.37367E-06 10666   0.345E-03
   6 F= -.66651318E+03 E0= -.66609581E+03  d E =-.721660E+00  mag=    79.7641
       N       E                     dE             d eps       ncg     rms          rms(c)
DAV:   1    -0.665799959377E+03    0.71312E+00   -0.74740E+01 24992   0.940E+00    0.427E+00
RMM:   2    -0.666019995681E+03   -0.22004E+00   -0.20518E+00 24320   0.184E+00    0.519E+00
RMM:   3    -0.666059620108E+03   -0.39624E-01   -0.49665E-01 24305   0.894E-01    0.231E+00
RMM:   4    -0.666051520001E+03    0.81001E-02   -0.97752E-02 24803   0.483E-01    0.158E+00
RMM:   5    -0.666048700885E+03    0.28191E-02   -0.29386E-02 24888   0.233E-01    0.109E+00
RMM:   6    -0.666050367880E+03   -0.16670E-02   -0.11658E-02 23510   0.142E-01    0.925E-01
RMM:   7    -0.666045697717E+03    0.46702E-02   -0.94639E-03 23372   0.126E-01    0.633E-01
RMM:   8    -0.666042665752E+03    0.30320E-02   -0.64395E-03 23277   0.100E-01    0.470E-01
RMM:   9    -0.666043606466E+03   -0.94071E-03   -0.18053E-03 21791   0.609E-02    0.369E-01
RMM:  10    -0.666044857778E+03   -0.12513E-02   -0.10284E-03 21757   0.386E-02    0.189E-01
RMM:  11    -0.666046446211E+03   -0.15884E-02   -0.68539E-04 20069   0.280E-02    0.872E-02
RMM:  12    -0.666047029658E+03   -0.58345E-03   -0.21137E-04 16770   0.178E-02    0.584E-02
RMM:  13    -0.666047517840E+03   -0.48818E-03   -0.74605E-05 14298   0.117E-02    0.395E-02
RMM:  14    -0.666047941599E+03   -0.42376E-03   -0.48383E-05 13776   0.952E-03    0.328E-02
RMM:  15    -0.666048344267E+03   -0.40267E-03   -0.31202E-05 13511   0.761E-03    0.244E-02
RMM:  16    -0.666048516725E+03   -0.17246E-03   -0.15631E-05 12612   0.577E-03    0.207E-02
RMM:  17    -0.666048674314E+03   -0.15759E-03   -0.95915E-06 12223   0.472E-03    0.161E-02
RMM:  18    -0.666048857698E+03   -0.18338E-03   -0.77730E-06 11837   0.385E-03    0.131E-02
RMM:  19    -0.666049101042E+03   -0.24334E-03   -0.76194E-06 12057   0.376E-03    0.113E-02
RMM:  20    -0.666049475288E+03   -0.37425E-03   -0.11717E-05 12474   0.410E-03    0.103E-02
RMM:  21    -0.666049715384E+03   -0.24010E-03   -0.71998E-06 11220   0.334E-03    0.831E-03
RMM:  22    -0.666049900966E+03   -0.18558E-03   -0.42527E-06 10230   0.296E-03    0.697E-03
RMM:  23    -0.666050121292E+03   -0.22033E-03   -0.45712E-06 10263   0.287E-03    0.622E-03
RMM:  24    -0.666050314722E+03   -0.19343E-03   -0.33062E-06  9354   0.267E-03    0.604E-03
RMM:  25    -0.666050524329E+03   -0.20961E-03   -0.36711E-06  9798   0.269E-03    0.531E-03
RMM:  26    -0.666050686463E+03   -0.16213E-03   -0.17492E-06  8134   0.238E-03    0.460E-03
RMM:  27    -0.666050864724E+03   -0.17826E-03   -0.21529E-06  8377   0.238E-03    0.415E-03
RMM:  28    -0.666051136957E+03   -0.27223E-03   -0.26242E-06  8622   0.247E-03    0.361E-03
RMM:  29    -0.666051418962E+03   -0.28201E-03   -0.29567E-06  8875   0.249E-03    0.356E-03
RMM:  30    -0.666051585931E+03   -0.16697E-03   -0.10503E-06  7169   0.225E-03    0.306E-03
RMM:  31    -0.666051745106E+03   -0.15917E-03   -0.90784E-07  6819   0.220E-03    0.274E-03
RMM:  32    -0.666051903687E+03   -0.15858E-03   -0.88885E-07  6758   0.220E-03    0.259E-03
RMM:  33    -0.666052033621E+03   -0.12993E-03   -0.60733E-07  6380   0.217E-03    0.250E-03
RMM:  34    -0.666052130584E+03   -0.96963E-04   -0.42309E-07  6077   0.214E-03
   7 F= -.66605213E+03 E0= -.66562988E+03  d E =0.461045E+00  mag=    79.7712
       N       E                     dE             d eps       ncg     rms          rms(c)
DAV:   1    -0.666404034561E+03   -0.35200E+00   -0.26695E+01 26128   0.554E+00    0.268E+00
RMM:   2    -0.666492210462E+03   -0.88176E-01   -0.75911E-01 24320   0.103E+00    0.333E+00
RMM:   3    -0.666479080964E+03    0.13129E-01   -0.14104E-01 24096   0.476E-01    0.115E+00
RMM:   4    -0.666481425586E+03   -0.23446E-02   -0.33108E-02 23972   0.274E-01    0.101E+00
RMM:   5    -0.666479168405E+03    0.22572E-02   -0.10396E-02 23125   0.156E-01    0.551E-01
RMM:   6    -0.666479295115E+03   -0.12671E-03   -0.45876E-03 23015   0.956E-02    0.619E-01
RMM:   7    -0.666478422680E+03    0.87244E-03   -0.30960E-03 22441   0.802E-02    0.347E-01
RMM:   8    -0.666478390973E+03    0.31708E-04   -0.15277E-03 21918   0.500E-02    0.216E-01
RMM:   9    -0.666478346977E+03    0.43996E-04   -0.67663E-04 20370   0.366E-02
   8 F= -.66647835E+03 E0= -.66605929E+03  d E =0.348290E-01  mag=    79.7726
       N       E                     dE             d eps       ncg     rms          rms(c)
DAV:   1    -0.666548459997E+03   -0.70069E-01   -0.31596E+00 27952   0.193E+00    0.919E-01
RMM:   2    -0.666559338062E+03   -0.10878E-01   -0.88917E-02 24039   0.362E-01    0.114E+00
RMM:   3    -0.666557947244E+03    0.13908E-02   -0.16940E-02 23413   0.164E-01    0.353E-01
RMM:   4    -0.666558305565E+03   -0.35832E-03   -0.37940E-03 22660   0.905E-02    0.315E-01
RMM:   5    -0.666558123850E+03    0.18171E-03   -0.11327E-03 21234   0.519E-02    0.196E-01
RMM:   6    -0.666558176202E+03   -0.52352E-04   -0.52648E-04 20173   0.307E-02    0.203E-01
RMM:   7    -0.666558125012E+03    0.51190E-04   -0.34397E-04 18558   0.269E-02    0.117E-01
RMM:   8    -0.666558127079E+03   -0.20671E-05   -0.18604E-04 16151   0.177E-02
   9 F= -.66655813E+03 E0= -.66613976E+03  d E =-.449511E-01  mag=    79.7742
       N       E                     dE             d eps       ncg     rms          rms(c)
DAV:   1    -0.666570417446E+03   -0.12292E-01   -0.55022E+00 26480   0.237E+00    0.120E+00
RMM:   2    -0.666587773089E+03   -0.17356E-01   -0.10759E-01 24134   0.404E-01    0.106E+00
RMM:   3    -0.666592520343E+03   -0.47473E-02   -0.26059E-02 23434   0.215E-01    0.724E-01
RMM:   4    -0.666591417886E+03    0.11025E-02   -0.68976E-03 22401   0.128E-01    0.366E-01
RMM:   5    -0.666591367161E+03    0.50725E-04   -0.21613E-03 21555   0.676E-02    0.282E-01
RMM:   6    -0.666591304980E+03    0.62181E-04   -0.93306E-04 20473   0.420E-02    0.209E-01
RMM:   7    -0.666591288405E+03    0.16575E-04   -0.53528E-04 19803   0.346E-02    0.157E-01
RMM:   8    -0.666591292546E+03   -0.41407E-05   -0.21781E-04 16829   0.202E-02
  10 F= -.66659129E+03 E0= -.66617191E+03  d E =-.331655E-01  mag=    79.7750
       N       E                     dE             d eps       ncg     rms          rms(c)
DAV:   1    -0.666595680475E+03   -0.43921E-02   -0.43124E-01 27376   0.662E-01    0.323E-01
RMM:   2    -0.666596897948E+03   -0.12175E-02   -0.80229E-03 22853   0.109E-01    0.252E-01
RMM:   3    -0.666597282926E+03   -0.38498E-03   -0.15250E-03 20572   0.515E-02    0.158E-01
RMM:   4    -0.666597258887E+03    0.24039E-04   -0.43016E-04 17577   0.322E-02    0.105E-01
RMM:   5    -0.666597272100E+03   -0.13214E-04   -0.17643E-04 15042   0.208E-02    0.836E-02
RMM:   6    -0.666597286574E+03   -0.14474E-04   -0.82778E-05 13493   0.123E-02    0.369E-02
RMM:   7    -0.666597295416E+03   -0.88420E-05   -0.33398E-05 12716   0.927E-03    0.351E-02
RMM:   8    -0.666597288299E+03    0.71167E-05   -0.10928E-05 11885   0.607E-03
  11 F= -.66659729E+03 E0= -.66617823E+03  d E =-.391612E-01  mag=    79.7760
       N       E                     dE             d eps       ncg     rms          rms(c)
DAV:   1    -0.666640007897E+03   -0.42712E-01   -0.30068E+00 26064   0.195E+00    0.570E-01
RMM:   2    -0.666648347196E+03   -0.83393E-02   -0.69995E-02 24213   0.371E-01    0.505E-01
RMM:   3    -0.666650482642E+03   -0.21354E-02   -0.12037E-02 23320   0.159E-01    0.530E-01
RMM:   4    -0.666649620695E+03    0.86195E-03   -0.28837E-03 22025   0.882E-02    0.190E-01
RMM:   5    -0.666649723889E+03   -0.10319E-03   -0.11498E-03 21085   0.453E-02    0.189E-01
RMM:   6    -0.666649651193E+03    0.72696E-04   -0.40621E-04 18604   0.268E-02    0.105E-01
RMM:   7    -0.666649685063E+03   -0.33870E-04   -0.26637E-04 17363   0.231E-02    0.109E-01
RMM:   8    -0.666649684727E+03    0.33574E-06   -0.10823E-04 14822   0.169E-02
  12 F= -.66664968E+03 E0= -.66623094E+03  d E =-.523964E-01  mag=    79.7764
       N       E                     dE             d eps       ncg     rms          rms(c)
DAV:   1    -0.666652685768E+03   -0.30007E-02   -0.10493E-01 26784   0.365E-01    0.109E-01
RMM:   2    -0.666653024910E+03   -0.33914E-03   -0.24291E-03 21769   0.707E-02    0.122E-01
RMM:   3    -0.666653119044E+03   -0.94133E-04   -0.40960E-04 18136   0.308E-02    0.101E-01
RMM:   4    -0.666653116541E+03    0.25025E-05   -0.10281E-04 14449   0.175E-02    0.517E-02
RMM:   5    -0.666653137519E+03   -0.20978E-04   -0.32091E-05 13035   0.860E-03    0.307E-02
RMM:   6    -0.666653171830E+03   -0.34311E-04   -0.13287E-05 12217   0.563E-03    0.241E-02
RMM:   7    -0.666653195713E+03   -0.23883E-04   -0.10068E-05 12046   0.537E-03    0.192E-02
RMM:   8    -0.666653215474E+03   -0.19761E-04   -0.38065E-06 10929   0.377E-03
  13 F= -.66665322E+03 E0= -.66623428E+03  d E =-.559272E-01  mag=    79.7768
       N       E                     dE             d eps       ncg     rms          rms(c)
DAV:   1    -0.666659756945E+03   -0.65612E-02   -0.11450E+00 26656   0.112E+00    0.413E-01
RMM:   2    -0.666663652602E+03   -0.38957E-02   -0.29924E-02 24141   0.200E-01    0.502E-01
RMM:   3    -0.666663522181E+03    0.13042E-03   -0.41466E-03 22536   0.799E-02    0.205E-01
RMM:   4    -0.666663733432E+03   -0.21125E-03   -0.86853E-04 21121   0.469E-02    0.240E-01
RMM:   5    -0.666663496774E+03    0.23666E-03   -0.27812E-04 17686   0.273E-02    0.101E-01
RMM:   6    -0.666663523991E+03   -0.27217E-04   -0.14381E-04 15324   0.173E-02    0.110E-01
RMM:   7    -0.666663515229E+03    0.87614E-05   -0.11726E-04 14800   0.171E-02    0.678E-02
RMM:   8    -0.666663530970E+03   -0.15741E-04   -0.55479E-05 13499   0.111E-02
  14 F= -.66666353E+03 E0= -.66624494E+03  d E =-.103155E-01  mag=    79.7769
       N       E                     dE             d eps       ncg     rms          rms(c)
DAV:   1    -0.666666740682E+03   -0.32255E-02   -0.13963E-01 26848   0.390E-01    0.147E-01
RMM:   2    -0.666667230207E+03   -0.48952E-03   -0.36116E-03 22047   0.710E-02    0.190E-01
RMM:   3    -0.666667193057E+03    0.37150E-04   -0.49777E-04 18233   0.294E-02    0.737E-02
RMM:   4    -0.666667223541E+03   -0.30485E-04   -0.13082E-04 14904   0.186E-02    0.852E-02
RMM:   5    -0.666667201134E+03    0.22407E-04   -0.41021E-05 13129   0.111E-02    0.324E-02
RMM:   6    -0.666667215152E+03   -0.14018E-04   -0.18103E-05 12390   0.635E-03    0.413E-02
RMM:   7    -0.666667224379E+03   -0.92275E-05   -0.14206E-05 12257   0.637E-03    0.239E-02
RMM:   8    -0.666667235011E+03   -0.10632E-04   -0.60412E-06 11192   0.397E-03
  15 F= -.66666724E+03 E0= -.66624861E+03  d E =-.140195E-01  mag=    79.7772
       N       E                     dE             d eps       ncg     rms          rms(c)
DAV:   1    -0.666676204384E+03   -0.89800E-02   -0.41743E-01 26512   0.734E-01    0.253E-01
RMM:   2    -0.666677363210E+03   -0.11588E-02   -0.88187E-03 23812   0.139E-01    0.156E-01
RMM:   3    -0.666677754129E+03   -0.39092E-03   -0.14862E-03 21488   0.548E-02    0.145E-01
RMM:   4    -0.666677713761E+03    0.40368E-04   -0.36852E-04 18278   0.307E-02    0.856E-02
RMM:   5    -0.666677696853E+03    0.16908E-04   -0.14220E-04 15225   0.179E-02    0.758E-02
RMM:   6    -0.666677667530E+03    0.29323E-04   -0.57272E-05 13941   0.118E-02    0.514E-02
RMM:   7    -0.666677655001E+03    0.12529E-04   -0.33175E-05 13368   0.913E-03    0.421E-02
RMM:   8    -0.666677650014E+03    0.49863E-05   -0.14565E-05 12293   0.674E-03
  16 F= -.66667765E+03 E0= -.66625901E+03  d E =-.104150E-01  mag=    79.7773
       N       E                     dE             d eps       ncg     rms          rms(c)
DAV:   1    -0.666678015945E+03   -0.36094E-03   -0.99534E-03 27104   0.114E-01    0.398E-02
RMM:   2    -0.666678053923E+03   -0.37978E-04   -0.21538E-04 16245   0.219E-02    0.299E-02
RMM:   3    -0.666678072975E+03   -0.19052E-04   -0.37520E-05 13330   0.985E-03    0.285E-02
RMM:   4    -0.666678077797E+03   -0.48219E-05   -0.10849E-05 11927   0.597E-03    0.142E-02
RMM:   5    -0.666678090714E+03   -0.12917E-04   -0.37735E-06 10274   0.353E-03    0.125E-02
RMM:   6    -0.666678102741E+03   -0.12027E-04   -0.12157E-06  8190   0.253E-03    0.462E-03
RMM:   7    -0.666678113138E+03   -0.10397E-04   -0.25228E-07  6226   0.215E-03    0.579E-03
RMM:   8    -0.666678118211E+03   -0.50729E-05   -0.13981E-08  5113   0.197E-03
  17 F= -.66667812E+03 E0= -.66625946E+03  d E =-.108832E-01  mag=    79.7775
       N       E                     dE             d eps       ncg     rms          rms(c)
DAV:   1    -0.666682863993E+03   -0.47509E-02   -0.18864E-01 26144   0.462E-01    0.232E-01
RMM:   2    -0.666683539744E+03   -0.67575E-03   -0.50671E-03 22838   0.887E-02    0.262E-01
RMM:   3    -0.666683540630E+03   -0.88615E-06   -0.90211E-04 20177   0.405E-02    0.112E-01
RMM:   4    -0.666683558610E+03   -0.17981E-04   -0.21715E-04 16026   0.226E-02    0.959E-02
RMM:   5    -0.666683526400E+03    0.32211E-04   -0.62869E-05 13855   0.134E-02    0.450E-02
RMM:   6    -0.666683535630E+03   -0.92303E-05   -0.27026E-05 12668   0.801E-03    0.414E-02
RMM:   7    -0.666683545943E+03   -0.10313E-04   -0.23623E-05 12529   0.768E-03    0.243E-02
RMM:   8    -0.666683555810E+03   -0.98674E-05   -0.10993E-05 12221   0.521E-03
  18 F= -.66668356E+03 E0= -.66626480E+03  d E =-.543760E-02  mag=    79.7774
       N       E                     dE             d eps       ncg     rms          rms(c)
DAV:   1    -0.666683583482E+03   -0.37539E-04   -0.53999E-04 24560   0.264E-02    0.135E-02
RMM:   2    -0.666683597407E+03   -0.13925E-04   -0.15364E-05 13139   0.611E-03    0.220E-02
RMM:   3    -0.666683600977E+03   -0.35698E-05   -0.42540E-06 11316   0.402E-03    0.948E-03
RMM:   4    -0.666683606882E+03   -0.59055E-05   -0.29026E-07  6251   0.201E-03    0.564E-03
RMM:   5    -0.666683611798E+03   -0.49155E-05   -0.54400E-08  5256   0.187E-03    0.323E-03
RMM:   6    -0.666683619603E+03   -0.78049E-05   -0.27139E-08  5116   0.179E-03    0.279E-03
RMM:   7    -0.666683632488E+03   -0.12886E-04   -0.16048E-07  5568   0.192E-03    0.148E-03
RMM:   8    -0.666683639230E+03   -0.67418E-05   -0.67168E-08  5386   0.190E-03
  19 F= -.66668364E+03 E0= -.66626487E+03  d E =-.552102E-02  mag=    79.7774
       N       E                     dE             d eps       ncg     rms          rms(c)
DAV:   1    -0.666686704995E+03   -0.30725E-02   -0.10329E-01 26640   0.332E-01    0.169E-01
RMM:   2    -0.666687130619E+03   -0.42562E-03   -0.23282E-03 21608   0.710E-02    0.131E-01
RMM:   3    -0.666687271398E+03   -0.14078E-03   -0.45355E-04 18457   0.307E-02    0.115E-01
RMM:   4    -0.666687238156E+03    0.33242E-04   -0.16989E-04 15056   0.220E-02    0.667E-02
RMM:   5    -0.666687237711E+03    0.44564E-06   -0.55301E-05 13079   0.117E-02    0.396E-02
RMM:   6    -0.666687231430E+03    0.62804E-05   -0.23710E-05 12426   0.675E-03    0.236E-02
RMM:   7    -0.666687228406E+03    0.30245E-05   -0.11786E-05 11919   0.565E-03    0.221E-02
RMM:   8    -0.666687225708E+03    0.26976E-05   -0.41233E-06 10936   0.387E-03
  20 F= -.66668723E+03 E0= -.66626855E+03  d E =-.358648E-02  mag=    79.7772
       N       E                     dE             d eps       ncg     rms          rms(c)
DAV:   1    -0.666687483919E+03   -0.25551E-03   -0.15448E-02 26496   0.129E-01    0.656E-02
RMM:   2    -0.666687549212E+03   -0.65293E-04   -0.35595E-04 17399   0.276E-02    0.532E-02
RMM:   3    -0.666687569706E+03   -0.20494E-04   -0.70511E-05 13753   0.124E-02    0.490E-02
RMM:   4    -0.666687562896E+03    0.68098E-05   -0.27143E-05 12533   0.914E-03    0.290E-02
RMM:   5    -0.666687561334E+03    0.15628E-05   -0.73604E-06 11349   0.456E-03    0.179E-02
RMM:   6    -0.666687558004E+03    0.33299E-05   -0.28659E-06 10209   0.316E-03    0.139E-02
RMM:   7    -0.666687555110E+03    0.28936E-05   -0.20970E-06  9377   0.283E-03    0.743E-03
RMM:   8    -0.666687555240E+03   -0.13039E-06   -0.32993E-07  6280   0.219E-03
  21 F= -.66668756E+03 E0= -.66626893E+03  d E =-.391601E-02  mag=    79.7769
       N       E                     dE             d eps       ncg     rms          rms(c)
DAV:   1    -0.666690502185E+03   -0.29471E-02   -0.41228E-02 26464   0.200E-01    0.123E-01
RMM:   2    -0.666690735180E+03   -0.23300E-03   -0.85996E-04 19830   0.398E-02    0.125E-01
RMM:   3    -0.666690745770E+03   -0.10590E-04   -0.19383E-04 15961   0.187E-02    0.703E-02
RMM:   4    -0.666690749615E+03   -0.38450E-05   -0.70707E-05 13671   0.145E-02    0.653E-02
RMM:   5    -0.666690732259E+03    0.17357E-04   -0.19973E-05 12565   0.795E-03    0.261E-02
RMM:   6    -0.666690728927E+03    0.33323E-05   -0.74352E-06 11766   0.454E-03    0.253E-02
RMM:   7    -0.666690720640E+03    0.82869E-05   -0.64193E-06 11693   0.442E-03    0.139E-02
RMM:   8    -0.666690717469E+03    0.31712E-05   -0.19500E-06  9416   0.285E-03
  22 F= -.66669072E+03 E0= -.66627209E+03  d E =-.316223E-02  mag=    79.7765
       N       E                     dE             d eps       ncg     rms          rms(c)
DAV:   1    -0.666693897927E+03   -0.31773E-02   -0.37077E-01 27408   0.601E-01    0.370E-01
RMM:   2    -0.666695855496E+03   -0.19576E-02   -0.77171E-03 23647   0.120E-01    0.382E-01
RMM:   3    -0.666695975926E+03   -0.12043E-03   -0.17738E-03 21391   0.581E-02    0.220E-01
RMM:   4    -0.666695963414E+03    0.12512E-04   -0.65912E-04 19739   0.424E-02    0.187E-01
RMM:   5    -0.666695833337E+03    0.13008E-03   -0.17505E-04 15645   0.222E-02    0.832E-02
RMM:   6    -0.666695824976E+03    0.83609E-05   -0.74855E-05 13992   0.134E-02    0.808E-02
RMM:   7    -0.666695775154E+03    0.49822E-04   -0.63396E-05 13661   0.124E-02    0.437E-02
RMM:   8    -0.666695754311E+03    0.20843E-04   -0.21853E-05 12568   0.765E-03
  23 F= -.66669575E+03 E0= -.66627714E+03  d E =-.819907E-02  mag=    79.7759
       N       E                     dE             d eps       ncg     rms          rms(c)
DAV:   1    -0.666698496151E+03   -0.27210E-02   -0.58611E-02 27328   0.247E-01    0.138E-01
RMM:   2    -0.666698742238E+03   -0.24609E-03   -0.96636E-04 20598   0.463E-02    0.100E-01
RMM:   3    -0.666698779359E+03   -0.37120E-04   -0.20531E-04 16338   0.205E-02    0.660E-02
RMM:   4    -0.666698772545E+03    0.68131E-05   -0.67197E-05 13735   0.146E-02    0.537E-02
RMM:   5    -0.666698754692E+03    0.17853E-04   -0.23156E-05 12484   0.823E-03    0.292E-02
RMM:   6    -0.666698724978E+03    0.29715E-04   -0.13034E-05 12453   0.560E-03    0.322E-02
RMM:   7    -0.666698700234E+03    0.24744E-04   -0.63803E-06 11822   0.453E-03    0.149E-02
RMM:   8    -0.666698688700E+03    0.11533E-04   -0.14193E-06  9114   0.272E-03
  24 F= -.66669869E+03 E0= -.66628009E+03  d E =-.293439E-02  mag=    79.7751
       N       E                     dE             d eps       ncg     rms          rms(c)
DAV:   1    -0.666699844752E+03   -0.11445E-02   -0.10332E-01 26880   0.327E-01    0.182E-01
RMM:   2    -0.666700286355E+03   -0.44160E-03   -0.16889E-03 21807   0.607E-02    0.130E-01
RMM:   3    -0.666700357751E+03   -0.71395E-04   -0.34481E-04 17665   0.259E-02    0.779E-02
RMM:   4    -0.666700355152E+03    0.25989E-05   -0.11837E-04 15048   0.184E-02    0.783E-02
RMM:   5    -0.666700329184E+03    0.25968E-04   -0.45324E-05 13000   0.113E-02    0.375E-02
RMM:   6    -0.666700287984E+03    0.41200E-04   -0.24649E-05 12944   0.708E-03    0.371E-02
RMM:   7    -0.666700258126E+03    0.29858E-04   -0.11119E-05 12260   0.584E-03    0.203E-02
RMM:   8    -0.666700241626E+03    0.16500E-04   -0.28887E-06 10699   0.331E-03
  25 F= -.66670024E+03 E0= -.66628163E+03  d E =-.448732E-02  mag=    79.7743
       N       E                     dE             d eps       ncg     rms          rms(c)
DAV:   1    -0.666701753282E+03   -0.14952E-02   -0.39399E-02 27120   0.211E-01    0.105E-01
RMM:   2    -0.666701876936E+03   -0.12365E-03   -0.85828E-04 20022   0.432E-02    0.647E-02
RMM:   3    -0.666701906511E+03   -0.29575E-04   -0.13287E-04 15399   0.161E-02    0.367E-02
RMM:   4    -0.666701901263E+03    0.52475E-05   -0.38430E-05 13449   0.106E-02    0.524E-02
RMM:   5    -0.666701865755E+03    0.35508E-04   -0.14809E-05 12591   0.703E-03    0.282E-02
RMM:   6    -0.666701832006E+03    0.33749E-04   -0.81091E-06 11819   0.433E-03    0.191E-02
RMM:   7    -0.666701806451E+03    0.25555E-04   -0.36308E-06 11337   0.362E-03    0.147E-02
RMM:   8    -0.666701791331E+03    0.15120E-04   -0.61326E-07  7993   0.243E-03
  26 F= -.66670179E+03 E0= -.66628324E+03  d E =-.154971E-02  mag=    79.7733
       N       E                     dE             d eps       ncg     rms          rms(c)
DAV:   1    -0.666702019138E+03   -0.21269E-03   -0.16903E-02 26672   0.138E-01    0.687E-02
RMM:   2    -0.666702061685E+03   -0.42547E-04   -0.37233E-04 17443   0.285E-02    0.442E-02
RMM:   3    -0.666702069352E+03   -0.76671E-05   -0.57714E-05 14433   0.114E-02    0.284E-02
RMM:   4    -0.666702060985E+03    0.83675E-05   -0.19064E-05 12467   0.776E-03    0.339E-02
RMM:   5    -0.666702033530E+03    0.27455E-04   -0.79384E-06 11881   0.523E-03    0.187E-02
RMM:   6    -0.666702010324E+03    0.23206E-04   -0.33899E-06 10192   0.310E-03    0.127E-02
RMM:   7    -0.666701990911E+03    0.19413E-04   -0.72472E-07  6949   0.232E-03    0.972E-03
RMM:   8    -0.666701979472E+03    0.11439E-04   -0.79943E-08  5466   0.205E-03
  27 F= -.66670198E+03 E0= -.66628348E+03  d E =-.173785E-02  mag=    79.7723
       N       E                     dE             d eps       ncg     rms          rms(c)
DAV:   1    -0.666703082892E+03   -0.10920E-02   -0.17828E-02 27216   0.148E-01    0.634E-02
RMM:   2    -0.666703144052E+03   -0.61160E-04   -0.36957E-04 17435   0.280E-02    0.407E-02
RMM:   3    -0.666703143782E+03    0.27008E-06   -0.60254E-05 14636   0.118E-02    0.271E-02
RMM:   4    -0.666703139176E+03    0.46063E-05   -0.15639E-05 12620   0.684E-03    0.265E-02
RMM:   5    -0.666703126163E+03    0.13012E-04   -0.58269E-06 11817   0.448E-03    0.184E-02
RMM:   6    -0.666703110065E+03    0.16098E-04   -0.23917E-06 10041   0.301E-03    0.125E-02
RMM:   7    -0.666703096151E+03    0.13913E-04   -0.11735E-06  8874   0.263E-03    0.816E-03
RMM:   8    -0.666703088374E+03    0.77770E-05   -0.11197E-07  5843   0.217E-03
  28 F= -.66670309E+03 E0= -.66628458E+03  d E =-.110890E-02  mag=    79.7714
       N       E                     dE             d eps       ncg     rms          rms(c)
DAV:   1    -0.666703525692E+03   -0.42954E-03   -0.29976E-02 27104   0.192E-01    0.820E-02
RMM:   2    -0.666703639429E+03   -0.11374E-03   -0.62045E-04 19307   0.363E-02    0.536E-02
RMM:   3    -0.666703651363E+03   -0.11934E-04   -0.10267E-04 15027   0.150E-02    0.369E-02
RMM:   4    -0.666703649044E+03    0.23190E-05   -0.30022E-05 13460   0.950E-03    0.372E-02
RMM:   5    -0.666703636120E+03    0.12924E-04   -0.11023E-05 12253   0.579E-03    0.221E-02
RMM:   6    -0.666703620041E+03    0.16079E-04   -0.45679E-06 11344   0.372E-03    0.152E-02
RMM:   7    -0.666703606838E+03    0.13202E-04   -0.25665E-06 10847   0.318E-03    0.116E-02
RMM:   8    -0.666703599787E+03    0.70510E-05   -0.70860E-07  7943   0.252E-03
  29 F= -.66670360E+03 E0= -.66628509E+03  d E =-.162032E-02  mag=    79.7704
       N       E                     dE             d eps       ncg     rms          rms(c)
DAV:   1    -0.666704455904E+03   -0.84907E-03   -0.65109E-03 27104   0.901E-02    0.453E-02
RMM:   2    -0.666704500598E+03   -0.44695E-04   -0.13710E-04 15406   0.178E-02    0.373E-02
RMM:   3    -0.666704489779E+03    0.10820E-04   -0.28226E-05 14216   0.866E-03    0.272E-02
RMM:   4    -0.666704486031E+03    0.37481E-05   -0.86478E-06 12052   0.547E-03    0.194E-02
RMM:   5    -0.666704479213E+03    0.68173E-05   -0.29421E-06 10846   0.338E-03    0.134E-02
RMM:   6    -0.666704468768E+03    0.10445E-04   -0.81043E-07  7977   0.244E-03    0.115E-02
RMM:   7    -0.666704459819E+03    0.89486E-05   -0.48340E-07  7117   0.229E-03    0.650E-03
RMM:   8    -0.666704456724E+03    0.30953E-05   -0.36956E-08  5262   0.203E-03
  30 F= -.66670446E+03 E0= -.66628593E+03  d E =-.856937E-03  mag=    79.7695
       N       E                     dE             d eps       ncg     rms          rms(c)
DAV:   1    -0.666706024786E+03   -0.15650E-02   -0.58509E-02 27744   0.270E-01    0.134E-01
RMM:   2    -0.666706321866E+03   -0.29708E-03   -0.11809E-03 22799   0.523E-02    0.109E-01
RMM:   3    -0.666706327886E+03   -0.60196E-05   -0.23471E-04 16518   0.220E-02    0.645E-02
RMM:   4    -0.666706325720E+03    0.21663E-05   -0.68016E-05 14609   0.150E-02    0.612E-02
RMM:   5    -0.666706300603E+03    0.25116E-04   -0.25262E-05 13273   0.897E-03    0.360E-02
RMM:   6    -0.666706274659E+03    0.25944E-04   -0.12484E-05 12920   0.578E-03    0.338E-02
RMM:   7    -0.666706252443E+03    0.22216E-04   -0.78066E-06 12261   0.515E-03    0.155E-02
RMM:   8    -0.666706243827E+03    0.86161E-05   -0.22281E-06 10539   0.311E-03
  31 F= -.66670624E+03 E0= -.66628770E+03  d E =-.264404E-02  mag=    79.7685
       N       E                     dE             d eps       ncg     rms          rms(c)
DAV:   1    -0.666706363798E+03   -0.11135E-03   -0.23326E-01 26832   0.539E-01    0.270E-01
RMM:   2    -0.666707438313E+03   -0.10745E-02   -0.47251E-03 24197   0.104E-01    0.219E-01
RMM:   3    -0.666707528344E+03   -0.90030E-04   -0.95143E-04 21423   0.438E-02    0.122E-01
RMM:   4    -0.666707532900E+03   -0.45565E-05   -0.23347E-04 17202   0.260E-02    0.117E-01
RMM:   5    -0.666707469911E+03    0.62990E-04   -0.10036E-04 14955   0.177E-02    0.762E-02
RMM:   6    -0.666707415429E+03    0.54482E-04   -0.53242E-05 14442   0.115E-02    0.672E-02
RMM:   7    -0.666707361200E+03    0.54229E-04   -0.31203E-05 13775   0.971E-03    0.306E-02
RMM:   8    -0.666707341087E+03    0.20113E-04   -0.10223E-05 12589   0.567E-03
  32 F= -.66670734E+03 E0= -.66628874E+03  d E =-.374130E-02  mag=    79.7674
       N       E                     dE             d eps       ncg     rms          rms(c)
DAV:   1    -0.666707370436E+03   -0.92364E-05   -0.46125E-02 28016   0.240E-01    0.120E-01
RMM:   2    -0.666707471652E+03   -0.10122E-03   -0.93640E-04 21918   0.469E-02    0.102E-01
RMM:   3    -0.666707568077E+03   -0.96425E-04   -0.20067E-04 16114   0.210E-02    0.766E-02
RMM:   4    -0.666707559570E+03    0.85076E-05   -0.62654E-05 14579   0.145E-02    0.538E-02
RMM:   5    -0.666707558799E+03    0.77114E-06   -0.21525E-05 13099   0.797E-03    0.349E-02
RMM:   6    -0.666707573059E+03   -0.14260E-04   -0.10682E-05 12328   0.569E-03    0.295E-02
RMM:   7    -0.666707585533E+03   -0.12474E-04   -0.75767E-06 12121   0.503E-03    0.133E-02
RMM:   8    -0.666707592914E+03   -0.73812E-05   -0.17129E-06  9597   0.285E-03
  33 F= -.66670759E+03 E0= -.66628899E+03  d E =-.399313E-02  mag=    79.7664
       N       E                     dE             d eps       ncg     rms          rms(c)
DAV:   1    -0.666707687248E+03   -0.10172E-03   -0.57355E-03 27504   0.846E-02    0.427E-02
RMM:   2    -0.666707736125E+03   -0.48877E-04   -0.11790E-04 15138   0.166E-02    0.346E-02
RMM:   3    -0.666707730853E+03    0.52713E-05   -0.24928E-05 13729   0.815E-03    0.252E-02
RMM:   4    -0.666707730648E+03    0.20582E-06   -0.79853E-06 11559   0.519E-03    0.167E-02
RMM:   5    -0.666707731336E+03   -0.68871E-06   -0.30248E-06 10033   0.341E-03    0.127E-02
RMM:   6    -0.666707730358E+03    0.97835E-06   -0.11675E-06  7890   0.258E-03    0.745E-03
RMM:   7    -0.666707731728E+03   -0.13700E-05   -0.13806E-07  5532   0.213E-03    0.615E-03
RMM:   8    -0.666707732673E+03   -0.94483E-06   -0.60069E-09  4717   0.200E-03
  34 F= -.66670773E+03 E0= -.66628914E+03  d E =-.413289E-02  mag=    79.7654
       N       E                     dE             d eps       ncg     rms          rms(c)
DAV:   1    -0.666708556942E+03   -0.82521E-03   -0.54711E-03 27152   0.799E-02    0.433E-02
RMM:   2    -0.666708596327E+03   -0.39386E-04   -0.10668E-04 15021   0.160E-02    0.329E-02
RMM:   3    -0.666708592617E+03    0.37104E-05   -0.20669E-05 13956   0.748E-03    0.257E-02
RMM:   4    -0.666708591265E+03    0.13518E-05   -0.69892E-06 11687   0.500E-03    0.194E-02
RMM:   5    -0.666708589574E+03    0.16908E-05   -0.25539E-06 10417   0.312E-03    0.153E-02
RMM:   6    -0.666708583120E+03    0.64545E-05   -0.90105E-07  7964   0.250E-03    0.108E-02
RMM:   7    -0.666708580872E+03    0.22477E-05   -0.32705E-07  6208   0.221E-03    0.565E-03
RMM:   8    -0.666708581615E+03   -0.74273E-06   -0.49720E-09  4662   0.198E-03
  35 F= -.66670858E+03 E0= -.66628998E+03  d E =-.848942E-03  mag=    79.7644
       N       E                     dE             d eps       ncg     rms          rms(c)
DAV:   1    -0.666709627010E+03   -0.10461E-02   -0.49062E-02 26192   0.239E-01    0.128E-01
RMM:   2    -0.666709873425E+03   -0.24642E-03   -0.92858E-04 22146   0.475E-02    0.931E-02
RMM:   3    -0.666709888587E+03   -0.15161E-04   -0.17546E-04 15758   0.198E-02    0.621E-02
RMM:   4    -0.666709880520E+03    0.80671E-05   -0.62935E-05 14550   0.146E-02    0.506E-02
RMM:   5    -0.666709859405E+03    0.21115E-04   -0.27077E-05 12965   0.913E-03    0.397E-02
RMM:   6    -0.666709822734E+03    0.36671E-04   -0.15263E-05 13024   0.640E-03    0.300E-02
RMM:   7    -0.666709809201E+03    0.13533E-04   -0.58368E-06 11954   0.441E-03    0.159E-02
RMM:   8    -0.666709801866E+03    0.73351E-05   -0.14708E-06  9585   0.276E-03
  36 F= -.66670980E+03 E0= -.66629122E+03  d E =-.206919E-02  mag=    79.7634
       N       E                     dE             d eps       ncg     rms          rms(c)
DAV:   1    -0.666709912914E+03   -0.10371E-03   -0.50030E-03 27408   0.764E-02    0.412E-02
RMM:   2    -0.666709944368E+03   -0.31454E-04   -0.99359E-05 14945   0.154E-02    0.320E-02
RMM:   3    -0.666709934265E+03    0.10103E-04   -0.17655E-05 13741   0.677E-03    0.186E-02
RMM:   4    -0.666709931372E+03    0.28936E-05   -0.55883E-06 11621   0.434E-03    0.186E-02
RMM:   5    -0.666709921935E+03    0.94371E-05   -0.22124E-06 10667   0.313E-03    0.123E-02
RMM:   6    -0.666709911400E+03    0.10535E-04   -0.55038E-07  7037   0.227E-03    0.107E-02
RMM:   7    -0.666709905337E+03    0.60634E-05   -0.26062E-07  6010   0.217E-03    0.627E-03
RMM:   8    -0.666709903699E+03    0.16377E-05   -0.19242E-08  4879   0.197E-03
  37 F= -.66670990E+03 E0= -.66629131E+03  d E =-.217103E-02  mag=    79.7623
       N       E                     dE             d eps       ncg     rms          rms(c)
DAV:   1    -0.666709819134E+03    0.86202E-04   -0.20055E-02 26400   0.153E-01    0.818E-02
RMM:   2    -0.666709931747E+03   -0.11261E-03   -0.38651E-04 18176   0.306E-02    0.606E-02
RMM:   3    -0.666709927326E+03    0.44215E-05   -0.74040E-05 14788   0.135E-02    0.420E-02
RMM:   4    -0.666709921928E+03    0.53975E-05   -0.27502E-05 13390   0.952E-03    0.314E-02
RMM:   5    -0.666709908620E+03    0.13309E-04   -0.11294E-05 11917   0.601E-03    0.260E-02
RMM:   6    -0.666709883526E+03    0.25093E-04   -0.66030E-06 11722   0.448E-03    0.181E-02
RMM:   7    -0.666709876832E+03    0.66943E-05   -0.22025E-06 10457   0.307E-03    0.112E-02
RMM:   8    -0.666709872621E+03    0.42114E-05   -0.10960E-07  5666   0.212E-03
  38 F= -.66670987E+03 E0= -.66629129E+03  d E =-.213995E-02  mag=    79.7613
       N       E                     dE             d eps       ncg     rms          rms(c)
DAV:   1    -0.666709890059E+03   -0.13227E-04   -0.72915E-03 26992   0.922E-02    0.496E-02
RMM:   2    -0.666709903380E+03   -0.13322E-04   -0.14101E-04 15396   0.185E-02    0.375E-02
RMM:   3    -0.666709930905E+03   -0.27525E-04   -0.28837E-05 14132   0.889E-03    0.322E-02
RMM:   4    -0.666709932082E+03   -0.11767E-05   -0.98485E-06 11907   0.581E-03    0.193E-02
RMM:   5    -0.666709943459E+03   -0.11377E-04   -0.33928E-06 10888   0.340E-03    0.174E-02
RMM:   6    -0.666709960407E+03   -0.16948E-04   -0.15248E-06  9506   0.277E-03    0.121E-02
RMM:   7    -0.666709973501E+03   -0.13093E-04   -0.75346E-07  7554   0.245E-03    0.625E-03
RMM:   8    -0.666709981160E+03   -0.76592E-05   -0.35191E-08  5194   0.205E-03
  39 F= -.66670998E+03 E0= -.66629138E+03  d E =-.224849E-02  mag=    79.7603
       N       E                     dE             d eps       ncg     rms          rms(c)
DAV:   1    -0.666710993327E+03   -0.10198E-02   -0.52009E-03 26912   0.857E-02    0.333E-02
RMM:   2    -0.666710979291E+03    0.14036E-04   -0.16718E-04 15413   0.166E-02    0.485E-02
RMM:   3    -0.666710994768E+03   -0.15477E-04   -0.27636E-05 13234   0.831E-03    0.190E-02
RMM:   4    -0.666711002117E+03   -0.73491E-05   -0.64150E-06 11676   0.437E-03    0.172E-02
RMM:   5    -0.666711009109E+03   -0.69919E-05   -0.15501E-06  9230   0.277E-03    0.850E-03
RMM:   6    -0.666711015922E+03   -0.68126E-05   -0.19228E-07  5738   0.203E-03    0.644E-03
RMM:   7    -0.666711029699E+03   -0.13778E-04   -0.16758E-07  5398   0.202E-03    0.611E-03
RMM:   8    -0.666711044671E+03   -0.14971E-04   -0.21437E-07  5598   0.205E-03
  40 F= -.66671104E+03 E0= -.66629245E+03  d E =-.106351E-02  mag=    79.7593
       N       E                     dE             d eps       ncg     rms          rms(c)
DAV:   1    -0.666712099391E+03   -0.10697E-02   -0.37360E-02 26128   0.230E-01    0.873E-02
RMM:   2    -0.666712120428E+03   -0.21037E-04   -0.11642E-03 21409   0.443E-02    0.123E-01
RMM:   3    -0.666712147263E+03   -0.26835E-04   -0.18752E-04 15749   0.197E-02    0.493E-02
RMM:   4    -0.666712161549E+03   -0.14286E-04   -0.46923E-05 13621   0.115E-02    0.455E-02
RMM:   5    -0.666712164633E+03   -0.30831E-05   -0.12989E-05 12493   0.639E-03    0.199E-02
RMM:   6    -0.666712173186E+03   -0.85533E-05   -0.43847E-06 11394   0.375E-03    0.152E-02
RMM:   7    -0.666712185964E+03   -0.12778E-04   -0.39126E-06 11281   0.361E-03    0.128E-02
RMM:   8    -0.666712203901E+03   -0.17937E-04   -0.19840E-06  9885   0.286E-03
  41 F= -.66671220E+03 E0= -.66629361E+03  d E =-.222274E-02  mag=    79.7584
       N       E                     dE             d eps       ncg     rms          rms(c)
DAV:   1    -0.666713092612E+03   -0.90665E-03   -0.70258E-03 27488   0.987E-02    0.467E-02
RMM:   2    -0.666713098352E+03   -0.57407E-05   -0.17624E-04 15803   0.202E-02    0.456E-02
RMM:   3    -0.666713124517E+03   -0.26165E-04   -0.35504E-05 14190   0.939E-03    0.221E-02
RMM:   4    -0.666713131775E+03   -0.72583E-05   -0.91552E-06 12065   0.557E-03    0.219E-02
RMM:   5    -0.666713141123E+03   -0.93477E-05   -0.32943E-06 11221   0.361E-03    0.136E-02
RMM:   6    -0.666713156508E+03   -0.15385E-04   -0.84921E-07  7873   0.240E-03    0.111E-02
RMM:   7    -0.666713172731E+03   -0.16223E-04   -0.64496E-07  7199   0.234E-03    0.679E-03
RMM:   8    -0.666713182508E+03   -0.97761E-05   -0.43250E-08  5182   0.206E-03
  42 F= -.66671318E+03 E0= -.66629456E+03  d E =-.978606E-03  mag=    79.7576
       N       E                     dE             d eps       ncg     rms          rms(c)
DAV:   1    -0.666714639175E+03   -0.14664E-02   -0.63275E-02 27312   0.296E-01    0.140E-01
RMM:   2    -0.666714805363E+03   -0.16619E-03   -0.15687E-03 23015   0.601E-02    0.143E-01
RMM:   3    -0.666714912615E+03   -0.10725E-03   -0.31610E-04 17514   0.249E-02    0.703E-02
RMM:   4    -0.666714937100E+03   -0.24485E-04   -0.89988E-05 14779   0.164E-02    0.840E-02
RMM:   5    -0.666714918050E+03    0.19050E-04   -0.30136E-05 13528   0.981E-03    0.345E-02
RMM:   6    -0.666714945765E+03   -0.27714E-04   -0.15306E-05 12663   0.633E-03    0.305E-02
RMM:   7    -0.666714968659E+03   -0.22894E-04   -0.11078E-05 12420   0.602E-03    0.182E-02
RMM:   8    -0.666714983459E+03   -0.14800E-04   -0.38093E-06 11452   0.369E-03
  43 F= -.66671498E+03 E0= -.66629630E+03  d E =-.277956E-02  mag=    79.7568
       N       E                     dE             d eps       ncg     rms          rms(c)
DAV:   1    -0.666715095058E+03   -0.12640E-03   -0.13558E-02 27936   0.137E-01    0.654E-02
RMM:   2    -0.666715114436E+03   -0.19378E-04   -0.34625E-04 17749   0.281E-02    0.666E-02
RMM:   3    -0.666715153098E+03   -0.38662E-04   -0.69927E-05 14797   0.126E-02    0.307E-02
RMM:   4    -0.666715163637E+03   -0.10540E-04   -0.19348E-05 12886   0.785E-03    0.346E-02
RMM:   5    -0.666715170509E+03   -0.68718E-05   -0.63986E-06 11943   0.477E-03    0.177E-02
RMM:   6    -0.666715187697E+03   -0.17188E-04   -0.26982E-06 10629   0.313E-03    0.149E-02
RMM:   7    -0.666715206367E+03   -0.18670E-04   -0.21000E-06 10436   0.301E-03    0.884E-03
RMM:   8    -0.666715216759E+03   -0.10392E-04   -0.27240E-07  6482   0.225E-03
  44 F= -.66671522E+03 E0= -.66629650E+03  d E =-.301286E-02  mag=    79.7560
       N       E                     dE             d eps       ncg     rms          rms(c)
DAV:   1    -0.666716101969E+03   -0.89560E-03   -0.12676E-02 26928   0.127E-01    0.635E-02
RMM:   2    -0.666716166211E+03   -0.64242E-04   -0.25303E-04 16851   0.248E-02    0.405E-02
RMM:   3    -0.666716185646E+03   -0.19435E-04   -0.40714E-05 14554   0.111E-02    0.354E-02
RMM:   4    -0.666716186488E+03   -0.84238E-06   -0.13510E-05 12594   0.682E-03    0.261E-02
RMM:   5    -0.666716197047E+03   -0.10559E-04   -0.51862E-06 11631   0.392E-03    0.173E-02
RMM:   6    -0.666716208366E+03   -0.11318E-04   -0.27091E-06 10971   0.321E-03    0.115E-02
RMM:   7    -0.666716220981E+03   -0.12615E-04   -0.99260E-07  8759   0.260E-03    0.569E-03
RMM:   8    -0.666716230688E+03   -0.97072E-05   -0.43367E-08  5538   0.205E-03
  45 F= -.66671623E+03 E0= -.66629750E+03  d E =-.101393E-02  mag=    79.7553
       N       E                     dE             d eps       ncg     rms          rms(c)
DAV:   1    -0.666716673040E+03   -0.45206E-03   -0.41778E-02 27728   0.231E-01    0.115E-01
RMM:   2    -0.666716858965E+03   -0.18592E-03   -0.82301E-04 21315   0.447E-02    0.698E-02
RMM:   3    -0.666716908014E+03   -0.49050E-04   -0.12825E-04 15428   0.180E-02    0.479E-02
RMM:   4    -0.666716913311E+03   -0.52964E-05   -0.46473E-05 14312   0.126E-02    0.509E-02
RMM:   5    -0.666716918411E+03   -0.50999E-05   -0.17441E-05 12916   0.704E-03    0.266E-02
RMM:   6    -0.666716931281E+03   -0.12870E-04   -0.86984E-06 12310   0.478E-03    0.225E-02
RMM:   7    -0.666716944117E+03   -0.12835E-04   -0.38584E-06 11728   0.389E-03    0.112E-02
RMM:   8    -0.666716954760E+03   -0.10644E-04   -0.99050E-07  8552   0.258E-03
  46 F= -.66671695E+03 E0= -.66629820E+03  d E =-.173800E-02  mag=    79.7547
       N       E                     dE             d eps       ncg     rms          rms(c)
DAV:   1    -0.666717512196E+03   -0.56808E-03   -0.69993E-03 27280   0.964E-02    0.456E-02
RMM:   2    -0.666717554863E+03   -0.42667E-04   -0.15392E-04 15701   0.198E-02    0.275E-02
RMM:   3    -0.666717572915E+03   -0.18053E-04   -0.23275E-05 13724   0.859E-03    0.224E-02
RMM:   4    -0.666717574953E+03   -0.20373E-05   -0.64699E-06 11945   0.488E-03    0.156E-02
RMM:   5    -0.666717584919E+03   -0.99665E-05   -0.20154E-06  9914   0.288E-03    0.109E-02
RMM:   6    -0.666717595496E+03   -0.10577E-04   -0.60225E-07  7452   0.237E-03    0.594E-03
RMM:   7    -0.666717609600E+03   -0.14104E-04   -0.28733E-07  6167   0.224E-03    0.475E-03
RMM:   8    -0.666717617257E+03   -0.76569E-05   -0.62438E-08  5272   0.208E-03
  47 F= -.66671762E+03 E0= -.66629887E+03  d E =-.662497E-03  mag=    79.7541
       N       E                     dE             d eps       ncg     rms          rms(c)
DAV:   1    -0.666718072086E+03   -0.46249E-03   -0.53596E-02 27232   0.266E-01    0.126E-01
RMM:   2    -0.666718316528E+03   -0.24444E-03   -0.11600E-03 22070   0.547E-02    0.787E-02
RMM:   3    -0.666718412529E+03   -0.96000E-04   -0.19325E-04 16286   0.223E-02    0.751E-02
RMM:   4    -0.666718394469E+03    0.18060E-04   -0.63792E-05 14375   0.149E-02    0.422E-02
RMM:   5    -0.666718403147E+03   -0.86785E-05   -0.20548E-05 13065   0.724E-03    0.293E-02
RMM:   6    -0.666718413289E+03   -0.10142E-04   -0.96714E-06 12256   0.547E-03    0.178E-02
RMM:   7    -0.666718430744E+03   -0.17455E-04   -0.60019E-06 12081   0.433E-03    0.140E-02
RMM:   8    -0.666718442127E+03   -0.11383E-04   -0.20560E-06 10574   0.313E-03
  48 F= -.66671844E+03 E0= -.66629972E+03  d E =-.148737E-02  mag=    79.7537
       N       E                     dE             d eps       ncg     rms          rms(c)
DAV:   1    -0.666718940475E+03   -0.50973E-03   -0.54658E-03 27776   0.833E-02    0.450E-02
RMM:   2    -0.666718974239E+03   -0.33763E-04   -0.11768E-04 15346   0.175E-02    0.320E-02
RMM:   3    -0.666718999617E+03   -0.25379E-04   -0.22784E-05 13557   0.839E-03    0.285E-02
RMM:   4    -0.666719002959E+03   -0.33416E-05   -0.84616E-06 11791   0.550E-03    0.147E-02
RMM:   5    -0.666719015031E+03   -0.12072E-04   -0.23898E-06 10152   0.318E-03    0.102E-02
RMM:   6    -0.666719034980E+03   -0.19949E-04   -0.56119E-07  7363   0.237E-03    0.768E-03
RMM:   7    -0.666719047850E+03   -0.12870E-04   -0.20865E-07  6018   0.220E-03    0.511E-03
RMM:   8    -0.666719056743E+03   -0.88932E-05   -0.82134E-08  5297   0.212E-03
  49 F= -.66671906E+03 E0= -.66630035E+03  d E =-.614616E-03  mag=    79.7533
       N       E                     dE             d eps       ncg     rms          rms(c)
DAV:   1    -0.666719953078E+03   -0.90523E-03   -0.49206E-02 27584   0.250E-01    0.134E-01
RMM:   2    -0.666720197598E+03   -0.24452E-03   -0.10285E-03 22104   0.522E-02    0.974E-02
RMM:   3    -0.666720318958E+03   -0.12136E-03   -0.20266E-04 16514   0.230E-02    0.944E-02
RMM:   4    -0.666720291656E+03    0.27302E-04   -0.77385E-05 14551   0.165E-02    0.451E-02
RMM:   5    -0.666720305945E+03   -0.14289E-04   -0.23142E-05 13099   0.803E-03    0.318E-02
RMM:   6    -0.666720329427E+03   -0.23482E-04   -0.10932E-05 12603   0.583E-03    0.244E-02
RMM:   7    -0.666720348998E+03   -0.19571E-04   -0.73864E-06 12311   0.476E-03    0.131E-02
RMM:   8    -0.666720361035E+03   -0.12037E-04   -0.21158E-06 10504   0.306E-03
  50 F= -.66672036E+03 E0= -.66630166E+03  d E =-.191891E-02  mag=    79.7531
       N       E                     dE             d eps       ncg     rms          rms(c)
DAV:   1    -0.666719854723E+03    0.49427E-03   -0.19676E-01 27072   0.499E-01    0.269E-01
RMM:   2    -0.666720845731E+03   -0.99101E-03   -0.40959E-03 23948   0.104E-01    0.193E-01
RMM:   3    -0.666721220449E+03   -0.37472E-03   -0.80119E-04 21549   0.456E-02    0.180E-01
RMM:   4    -0.666721106162E+03    0.11429E-03   -0.27390E-04 17786   0.294E-02    0.878E-02
RMM:   5    -0.666721119471E+03   -0.13309E-04   -0.93082E-05 14756   0.157E-02    0.667E-02
RMM:   6    -0.666721128306E+03   -0.88345E-05   -0.44485E-05 14254   0.112E-02    0.503E-02
RMM:   7    -0.666721134788E+03   -0.64825E-05   -0.30646E-05 13649   0.892E-03    0.257E-02
RMM:   8    -0.666721145642E+03   -0.10854E-04   -0.95191E-06 12609   0.551E-03
  51 F= -.66672115E+03 E0= -.66630245E+03  d E =-.270352E-02  mag=    79.7532
       N       E                     dE             d eps       ncg     rms          rms(c)
DAV:   1    -0.666721511340E+03   -0.37655E-03   -0.82950E-03 26944   0.995E-02    0.603E-02
RMM:   2    -0.666721567097E+03   -0.55757E-04   -0.16930E-04 16137   0.209E-02    0.412E-02
RMM:   3    -0.666721590554E+03   -0.23458E-04   -0.35237E-05 14250   0.111E-02    0.383E-02
RMM:   4    -0.666721589423E+03    0.11316E-05   -0.13062E-05 12341   0.697E-03    0.148E-02
RMM:   5    -0.666721599180E+03   -0.97575E-05   -0.34927E-06 11220   0.354E-03    0.127E-02
RMM:   6    -0.666721608452E+03   -0.92713E-05   -0.18451E-06 10353   0.294E-03    0.919E-03
RMM:   7    -0.666721616183E+03   -0.77318E-05   -0.47075E-07  7144   0.237E-03    0.484E-03
RMM:   8    -0.666721621286E+03   -0.51027E-05   -0.53876E-08  5320   0.212E-03
  52 F= -.66672162E+03 E0= -.66630295E+03  d E =-.475644E-03  mag=    79.7534
       N       E                     dE             d eps       ncg     rms          rms(c)
DAV:   1    -0.666721969095E+03   -0.35291E-03   -0.74765E-02 27952   0.297E-01    0.178E-01
RMM:   2    -0.666722359901E+03   -0.39081E-03   -0.14190E-03 23113   0.605E-02    0.109E-01
RMM:   3    -0.666722507635E+03   -0.14773E-03   -0.23022E-04 17014   0.262E-02    0.993E-02
RMM:   4    -0.666722471696E+03    0.35939E-04   -0.89309E-05 14781   0.178E-02    0.486E-02
RMM:   5    -0.666722471676E+03    0.20489E-07   -0.30726E-05 13969   0.908E-03    0.425E-02
RMM:   6    -0.666722462229E+03    0.94469E-05   -0.16656E-05 13139   0.719E-03    0.255E-02
RMM:   7    -0.666722459210E+03    0.30189E-05   -0.97771E-06 12676   0.532E-03    0.136E-02
RMM:   8    -0.666722459005E+03    0.20536E-06   -0.26936E-06 11261   0.339E-03
  53 F= -.66672246E+03 E0= -.66630381E+03  d E =-.131336E-02  mag=    79.7538
       N       E                     dE             d eps       ncg     rms          rms(c)
DAV:   1    -0.666720237080E+03    0.22221E-02   -0.29900E-01 27424   0.595E-01    0.356E-01
RMM:   2    -0.666721811302E+03   -0.15742E-02   -0.56722E-03 24076   0.121E-01    0.219E-01
RMM:   3    -0.666722315478E+03   -0.50418E-03   -0.92308E-04 22213   0.530E-02    0.188E-01
RMM:   4    -0.666722190509E+03    0.12497E-03   -0.34862E-04 18855   0.331E-02    0.965E-02
RMM:   5    -0.666722178006E+03    0.12503E-04   -0.12431E-04 15349   0.176E-02    0.926E-02
RMM:   6    -0.666722121471E+03    0.56535E-04   -0.65580E-05 14518   0.139E-02    0.513E-02
RMM:   7    -0.666722090496E+03    0.30975E-04   -0.39804E-05 14295   0.996E-03    0.285E-02
RMM:   8    -0.666722076360E+03    0.14136E-04   -0.11871E-05 12852   0.643E-03
  54 F= -.66672208E+03 E0= -.66630347E+03  d E =-.930718E-03  mag=    79.7544
       N       E                     dE             d eps       ncg     rms          rms(c)
DAV:   1    -0.666721861769E+03    0.22873E-03   -0.10619E-01 27968   0.355E-01    0.212E-01
RMM:   2    -0.666722396804E+03   -0.53504E-03   -0.19992E-03 23596   0.722E-02    0.134E-01
RMM:   3    -0.666722630884E+03   -0.23408E-03   -0.33920E-04 18691   0.318E-02    0.128E-01
RMM:   4    -0.666722561071E+03    0.69813E-04   -0.12499E-04 15410   0.207E-02    0.580E-02
RMM:   5    -0.666722579154E+03   -0.18083E-04   -0.45108E-05 14192   0.109E-02    0.531E-02
RMM:   6    -0.666722582404E+03   -0.32499E-05   -0.25392E-05 13471   0.881E-03    0.305E-02
RMM:   7    -0.666722599094E+03   -0.16691E-04   -0.14634E-05 13035   0.627E-03    0.159E-02
RMM:   8    -0.666722610895E+03   -0.11800E-04   -0.37484E-06 11673   0.384E-03
  55 F= -.66672261E+03 E0= -.66630400E+03  d E =-.146525E-02  mag=    79.7549
       N       E                     dE             d eps       ncg     rms          rms(c)
DAV:   1    -0.666723481900E+03   -0.88281E-03   -0.12945E-02 27408   0.129E-01    0.703E-02
RMM:   2    -0.666723549373E+03   -0.67473E-04   -0.28155E-04 17463   0.264E-02    0.459E-02
RMM:   3    -0.666723579860E+03   -0.30487E-04   -0.45000E-05 14350   0.118E-02    0.343E-02
RMM:   4    -0.666723582642E+03   -0.27819E-05   -0.14633E-05 12602   0.727E-03    0.208E-02
RMM:   5    -0.666723590873E+03   -0.82315E-05   -0.54688E-06 11725   0.424E-03    0.162E-02
RMM:   6    -0.666723601414E+03   -0.10541E-04   -0.26622E-06 11018   0.312E-03    0.130E-02
RMM:   7    -0.666723606425E+03   -0.50110E-05   -0.10898E-06  9062   0.264E-03    0.684E-03
RMM:   8    -0.666723608658E+03   -0.22324E-05   -0.12460E-07  5703   0.216E-03
  56 F= -.66672361E+03 E0= -.66630498E+03  d E =-.997763E-03  mag=    79.7554
       N       E                     dE             d eps       ncg     rms          rms(c)
DAV:   1    -0.666724340971E+03   -0.73455E-03   -0.11643E-01 27712   0.388E-01    0.212E-01
RMM:   2    -0.666724892269E+03   -0.55130E-03   -0.25275E-03 23712   0.787E-02    0.138E-01
RMM:   3    -0.666725059436E+03   -0.16717E-03   -0.38894E-04 19363   0.318E-02    0.857E-02
RMM:   4    -0.666725055512E+03    0.39237E-05   -0.11924E-04 15297   0.198E-02    0.651E-02
RMM:   5    -0.666725052117E+03    0.33947E-05   -0.54586E-05 14254   0.132E-02    0.472E-02
RMM:   6    -0.666725052852E+03   -0.73481E-06   -0.26917E-05 13965   0.827E-03    0.378E-02
RMM:   7    -0.666725044393E+03    0.84587E-05   -0.12309E-05 13087   0.619E-03    0.225E-02
RMM:   8    -0.666725039754E+03    0.46398E-05   -0.43776E-06 11855   0.396E-03
  57 F= -.66672504E+03 E0= -.66630640E+03  d E =-.242886E-02  mag=    79.7559
       N       E                     dE             d eps       ncg     rms          rms(c)
DAV:   1    -0.666725053670E+03   -0.92764E-05   -0.54819E-03 27648   0.845E-02    0.464E-02
RMM:   2    -0.666725071460E+03   -0.17790E-04   -0.12712E-04 15387   0.173E-02    0.337E-02
RMM:   3    -0.666725079745E+03   -0.82846E-05   -0.21706E-05 13750   0.851E-03    0.239E-02
RMM:   4    -0.666725076645E+03    0.30999E-05   -0.67936E-06 11973   0.505E-03    0.164E-02
RMM:   5    -0.666725074352E+03    0.22929E-05   -0.19785E-06 10523   0.292E-03    0.124E-02
RMM:   6    -0.666725070770E+03    0.35819E-05   -0.72407E-07  8060   0.246E-03    0.778E-03
RMM:   7    -0.666725067634E+03    0.31362E-05   -0.19793E-07  5848   0.220E-03    0.460E-03
RMM:   8    -0.666725065464E+03    0.21695E-05   -0.45248E-08  4983   0.208E-03
  58 F= -.66672507E+03 E0= -.66630639E+03  d E =-.245457E-02  mag=    79.7564
       N       E                     dE             d eps       ncg     rms          rms(c)
DAV:   1    -0.666726154484E+03   -0.10869E-02   -0.35606E-02 27264   0.220E-01    0.113E-01
RMM:   2    -0.666726322118E+03   -0.16763E-03   -0.80058E-04 22062   0.454E-02    0.709E-02
RMM:   3    -0.666726370195E+03   -0.48077E-04   -0.11674E-04 15266   0.179E-02    0.462E-02
RMM:   4    -0.666726364584E+03    0.56112E-05   -0.41242E-05 14157   0.123E-02    0.343E-02
RMM:   5    -0.666726358230E+03    0.63539E-05   -0.14682E-05 12796   0.685E-03    0.248E-02
RMM:   6    -0.666726352350E+03    0.58794E-05   -0.80324E-06 12471   0.493E-03    0.190E-02
RMM:   7    -0.666726348036E+03    0.43139E-05   -0.40479E-06 11972   0.378E-03    0.122E-02
RMM:   8    -0.666726344748E+03    0.32885E-05   -0.61542E-07  7848   0.245E-03
  59 F= -.66672634E+03 E0= -.66630764E+03  d E =-.127928E-02  mag=    79.7570
       N       E                     dE             d eps       ncg     rms          rms(c)
DAV:   1    -0.666725188209E+03    0.11598E-02   -0.31527E-01 25136   0.655E-01    0.336E-01
RMM:   2    -0.666726731047E+03   -0.15428E-02   -0.70575E-03 24158   0.135E-01    0.212E-01
RMM:   3    -0.666727104483E+03   -0.37344E-03   -0.10243E-03 22698   0.528E-02    0.131E-01
RMM:   4    -0.666727078950E+03    0.25534E-04   -0.32498E-04 19131   0.314E-02    0.105E-01
RMM:   5    -0.666727058009E+03    0.20940E-04   -0.12545E-04 15475   0.191E-02    0.850E-02
RMM:   6    -0.666727028010E+03    0.29999E-04   -0.66003E-05 14583   0.133E-02    0.566E-02
RMM:   7    -0.666727004977E+03    0.23033E-04   -0.37274E-05 14420   0.101E-02    0.304E-02
RMM:   8    -0.666726993827E+03    0.11150E-04   -0.12626E-05 13311   0.661E-03
  60 F= -.66672699E+03 E0= -.66630820E+03  d E =-.192836E-02  mag=    79.7576
       N       E                     dE             d eps       ncg     rms          rms(c)
DAV:   1    -0.666727118805E+03   -0.11383E-03   -0.41547E-02 27440   0.238E-01    0.122E-01
RMM:   2    -0.666727304702E+03   -0.18590E-03   -0.92241E-04 22375   0.489E-02    0.801E-02
RMM:   3    -0.666727368752E+03   -0.64050E-04   -0.13967E-04 15500   0.195E-02    0.690E-02
RMM:   4    -0.666727351689E+03    0.17063E-04   -0.44963E-05 14318   0.129E-02    0.394E-02
RMM:   5    -0.666727348045E+03    0.36443E-05   -0.17628E-05 13227   0.686E-03    0.332E-02
RMM:   6    -0.666727345594E+03    0.24512E-05   -0.10071E-05 12582   0.579E-03    0.172E-02
RMM:   7    -0.666727350105E+03   -0.45113E-05   -0.61417E-06 12483   0.433E-03    0.122E-02
RMM:   8    -0.666727353459E+03   -0.33537E-05   -0.17846E-06 10624   0.301E-03
  61 F= -.66672735E+03 E0= -.66630858E+03  d E =-.228799E-02  mag=    79.7582
       N       E                     dE             d eps       ncg     rms          rms(c)
DAV:   1    -0.666727910677E+03   -0.56057E-03   -0.32579E-02 27488   0.218E-01    0.105E-01
RMM:   2    -0.666728065777E+03   -0.15510E-03   -0.76334E-04 22499   0.438E-02    0.786E-02
RMM:   3    -0.666728101700E+03   -0.35923E-04   -0.12433E-04 15116   0.179E-02    0.505E-02
RMM:   4    -0.666728096507E+03    0.51931E-05   -0.36076E-05 14266   0.117E-02    0.385E-02
RMM:   5    -0.666728087248E+03    0.92587E-05   -0.11820E-05 12883   0.617E-03    0.246E-02
RMM:   6    -0.666728079973E+03    0.72750E-05   -0.58765E-06 12124   0.435E-03    0.194E-02
RMM:   7    -0.666728073659E+03    0.63139E-05   -0.42614E-06 12159   0.386E-03    0.102E-02
RMM:   8    -0.666728071556E+03    0.21029E-05   -0.10853E-06  9108   0.261E-03
  62 F= -.66672807E+03 E0= -.66630929E+03  d E =-.718097E-03  mag=    79.7587
       N       E                     dE             d eps       ncg     rms          rms(c)
DAV:   1    -0.666728105015E+03   -0.31356E-04   -0.63759E-03 27328   0.967E-02    0.469E-02
RMM:   2    -0.666728135658E+03   -0.30643E-04   -0.15809E-04 15577   0.197E-02    0.355E-02
RMM:   3    -0.666728141143E+03   -0.54846E-05   -0.26445E-05 14331   0.926E-03    0.218E-02
RMM:   4    -0.666728139125E+03    0.20177E-05   -0.66644E-06 12127   0.508E-03    0.161E-02
RMM:   5    -0.666728136273E+03    0.28526E-05   -0.23471E-06 11053   0.319E-03    0.111E-02
RMM:   6    -0.666728133655E+03    0.26175E-05   -0.31447E-07  6581   0.227E-03    0.881E-03
RMM:   7    -0.666728131143E+03    0.25122E-05   -0.22632E-07  5793   0.225E-03    0.512E-03
RMM:   8    -0.666728130557E+03    0.58580E-06   -0.97942E-08  5186   0.218E-03
  63 F= -.66672813E+03 E0= -.66630935E+03  d E =-.777098E-03  mag=    79.7593
       N       E                     dE             d eps       ncg     rms          rms(c)
DAV:   1    -0.666728613737E+03   -0.48259E-03   -0.13819E-02 26480   0.139E-01    0.733E-02
RMM:   2    -0.666728678998E+03   -0.65261E-04   -0.31128E-04 17956   0.292E-02    0.470E-02
RMM:   3    -0.666728696273E+03   -0.17276E-04   -0.48506E-05 14506   0.128E-02    0.349E-02
RMM:   4    -0.666728692741E+03    0.35325E-05   -0.17093E-05 13774   0.808E-03    0.229E-02
RMM:   5    -0.666728689856E+03    0.28843E-05   -0.56755E-06 11992   0.438E-03    0.187E-02
RMM:   6    -0.666728688214E+03    0.16419E-05   -0.29513E-06 11464   0.335E-03    0.133E-02
RMM:   7    -0.666728687522E+03    0.69197E-06   -0.15247E-06 10105   0.276E-03    0.652E-03
RMM:   8    -0.666728688664E+03   -0.11418E-05   -0.50944E-08  5382   0.210E-03
  64 F= -.66672869E+03 E0= -.66630993E+03  d E =-.558107E-03  mag=    79.7598
       N       E                     dE             d eps       ncg     rms          rms(c)
DAV:   1    -0.666728747992E+03   -0.60469E-04   -0.56788E-02 25872   0.282E-01    0.149E-01
RMM:   2    -0.666729025304E+03   -0.27731E-03   -0.12560E-03 23727   0.587E-02    0.941E-02
RMM:   3    -0.666729098107E+03   -0.72803E-04   -0.19309E-04 16227   0.233E-02    0.667E-02
RMM:   4    -0.666729089058E+03    0.90487E-05   -0.64984E-05 14555   0.158E-02    0.500E-02
RMM:   5    -0.666729078324E+03    0.10735E-04   -0.24271E-05 14153   0.850E-03    0.371E-02
RMM:   6    -0.666729070765E+03    0.75586E-05   -0.12882E-05 13733   0.620E-03    0.252E-02
RMM:   7    -0.666729066218E+03    0.45472E-05   -0.74837E-06 12521   0.492E-03    0.136E-02
RMM:   8    -0.666729066011E+03    0.20722E-06   -0.25110E-06 11600   0.332E-03
  65 F= -.66672907E+03 E0= -.66631036E+03  d E =-.935453E-03  mag=    79.7604
       N       E                     dE             d eps       ncg     rms          rms(c)
DAV:   1    -0.666729374919E+03   -0.30870E-03   -0.57209E-03 27440   0.892E-02    0.474E-02
RMM:   2    -0.666729401223E+03   -0.26304E-04   -0.13260E-04 15413   0.191E-02    0.315E-02
RMM:   3    -0.666729412861E+03   -0.11638E-04   -0.21176E-05 14370   0.874E-03    0.326E-02
RMM:   4    -0.666729406153E+03    0.67079E-05   -0.61380E-06 12355   0.495E-03    0.140E-02
RMM:   5    -0.666729406378E+03   -0.22538E-06   -0.19361E-06 10361   0.292E-03    0.126E-02
RMM:   6    -0.666729405509E+03    0.86892E-06   -0.11845E-06  9532   0.273E-03    0.673E-03
RMM:   7    -0.666729406279E+03   -0.76927E-06   -0.16198E-07  5987   0.225E-03    0.379E-03
RMM:   8    -0.666729407506E+03   -0.12275E-05   -0.54358E-08  5129   0.206E-03
  66 F= -.66672941E+03 E0= -.66631070E+03  d E =-.341495E-03  mag=    79.7609
       N       E                     dE             d eps       ncg     rms          rms(c)
DAV:   1    -0.666729533614E+03   -0.12734E-03   -0.50139E-02 26976   0.264E-01    0.139E-01
RMM:   2    -0.666729771075E+03   -0.23746E-03   -0.11021E-03 23466   0.556E-02    0.838E-02
RMM:   3    -0.666729838664E+03   -0.67589E-04   -0.16544E-04 15799   0.216E-02    0.582E-02
RMM:   4    -0.666729828921E+03    0.97435E-05   -0.56262E-05 14473   0.148E-02    0.419E-02
RMM:   5    -0.666729821941E+03    0.69793E-05   -0.20343E-05 13958   0.797E-03    0.289E-02
RMM:   6    -0.666729817249E+03    0.46920E-05   -0.10759E-05 13409   0.561E-03    0.261E-02
RMM:   7    -0.666729814142E+03    0.31074E-05   -0.55661E-06 12327   0.431E-03    0.139E-02
RMM:   8    -0.666729814089E+03    0.52620E-07   -0.16283E-06 10743   0.283E-03
  67 F= -.66672981E+03 E0= -.66631111E+03  d E =-.748079E-03  mag=    79.7613
       N       E                     dE             d eps       ncg     rms          rms(c)
DAV:   1    -0.666730022183E+03   -0.20804E-03   -0.16528E-03 26768   0.511E-02    0.229E-02
RMM:   2    -0.666730029161E+03   -0.69779E-05   -0.44026E-05 14555   0.110E-02    0.188E-02
RMM:   3    -0.666730031457E+03   -0.22966E-05   -0.89845E-06 13293   0.576E-03    0.172E-02
RMM:   4    -0.666730030734E+03    0.72317E-06   -0.25268E-06 10519   0.337E-03    0.748E-03
RMM:   5    -0.666730031448E+03   -0.71386E-06   -0.16414E-07  5801   0.205E-03    0.466E-03
RMM:   6    -0.666730033027E+03   -0.15795E-05   -0.32112E-08  5350   0.196E-03    0.484E-03
RMM:   7    -0.666730034673E+03   -0.16452E-05   -0.25483E-08  5191   0.200E-03    0.376E-03
RMM:   8    -0.666730036301E+03   -0.16284E-05   -0.50797E-08  5337   0.204E-03
  68 F= -.66673004E+03 E0= -.66631132E+03  d E =-.222212E-03  mag=    79.7618
       N       E                     dE             d eps       ncg     rms          rms(c)
DAV:   1    -0.666730320028E+03   -0.28536E-03   -0.14928E-02 27200   0.153E-01    0.671E-02
RMM:   2    -0.666730376277E+03   -0.56249E-04   -0.37113E-04 18614   0.318E-02    0.487E-02
RMM:   3    -0.666730395870E+03   -0.19593E-04   -0.64212E-05 14711   0.146E-02    0.465E-02
RMM:   4    -0.666730386060E+03    0.98096E-05   -0.20676E-05 14117   0.884E-03    0.238E-02
RMM:   5    -0.666730384739E+03    0.13215E-05   -0.59667E-06 12131   0.422E-03    0.154E-02
RMM:   6    -0.666730383383E+03    0.13560E-05   -0.30066E-06 11505   0.342E-03    0.142E-02
RMM:   7    -0.666730383780E+03   -0.39721E-06   -0.17897E-06 10818   0.295E-03    0.679E-03
RMM:   8    -0.666730385471E+03   -0.16908E-05   -0.81616E-08  5736   0.208E-03
  69 F= -.66673039E+03 E0= -.66631165E+03  d E =-.571381E-03  mag=    79.7622
       N       E                     dE             d eps       ncg     rms          rms(c)
DAV:   1    -0.666730401715E+03   -0.17935E-04   -0.13541E-03 26560   0.462E-02    0.205E-02
RMM:   2    -0.666730407754E+03   -0.60392E-05   -0.36306E-05 14481   0.100E-02    0.161E-02
RMM:   3    -0.666730410509E+03   -0.27553E-05   -0.62163E-06 12779   0.497E-03    0.150E-02
RMM:   4    -0.666730410101E+03    0.40838E-06   -0.16154E-06  9925   0.294E-03    0.809E-03
RMM:   5    -0.666730411614E+03   -0.15129E-05   -0.45788E-08  4845   0.192E-03    0.490E-03
RMM:   6    -0.666730414171E+03   -0.25574E-05   -0.19906E-08  4887   0.199E-03    0.528E-03
RMM:   7    -0.666730417717E+03   -0.35455E-05   -0.96434E-09  4767   0.192E-03    0.306E-03
RMM:   8    -0.666730420941E+03   -0.32238E-05   -0.31851E-08  4865   0.203E-03
  70 F= -.66673042E+03 E0= -.66631168E+03  d E =-.606851E-03  mag=    79.7626
       N       E                     dE             d eps       ncg     rms          rms(c)
DAV:   1    -0.666730613216E+03   -0.19550E-03   -0.20123E-03 26512   0.549E-02    0.266E-02
RMM:   2    -0.666730625299E+03   -0.12083E-04   -0.48706E-05 14482   0.119E-02    0.179E-02
RMM:   3    -0.666730628923E+03   -0.36238E-05   -0.78635E-06 13610   0.543E-03    0.170E-02
RMM:   4    -0.666730628033E+03    0.88988E-06   -0.25872E-06 11183   0.338E-03    0.904E-03
RMM:   5    -0.666730630158E+03   -0.21248E-05   -0.31035E-07  6069   0.216E-03    0.739E-03
[...]
RMM:   8    -0.666734321234E+03   -0.37611E-05   -0.29038E-08  5034   0.203E-03
  92 F= -.66673432E+03 E0= -.66631574E+03  d E =-.102979E-03  mag=    79.7675
       N       E                     dE             d eps       ncg     rms          rms(c)
DAV:   1    -0.666734332541E+03   -0.15068E-04   -0.12031E-03 26720   0.444E-02    0.193E-02
RMM:   2    -0.666734341796E+03   -0.92550E-05   -0.39314E-05 14558   0.936E-03    0.185E-02
RMM:   3    -0.666734345572E+03   -0.37760E-05   -0.57774E-06 13050   0.429E-03    0.107E-02
RMM:   4    -0.666734348434E+03   -0.28624E-05   -0.11853E-06  9089   0.269E-03    0.897E-03
RMM:   5    -0.666734351812E+03   -0.33779E-05   -0.11367E-07  5590   0.207E-03    0.631E-03
RMM:   6    -0.666734356249E+03   -0.44364E-05   -0.33590E-08  5034   0.201E-03    0.608E-03
RMM:   7    -0.666734361300E+03   -0.50515E-05   -0.28812E-08  4947   0.195E-03    0.304E-03
RMM:   8    -0.666734364714E+03   -0.34142E-05   -0.14420E-08  4806   0.201E-03
  93 F= -.66673436E+03 E0= -.66631576E+03  d E =-.146459E-03  mag=    79.7678
       N       E                     dE             d eps       ncg     rms          rms(c)
DAV:   1    -0.666734417401E+03   -0.56101E-04   -0.20430E-03 26816   0.570E-02    0.252E-02
RMM:   2    -0.666734429514E+03   -0.12113E-04   -0.63503E-05 14671   0.118E-02    0.175E-02
RMM:   3    -0.666734435561E+03   -0.60471E-05   -0.83783E-06 13801   0.542E-03    0.155E-02
RMM:   4    -0.666734437429E+03   -0.18682E-05   -0.23353E-06 11298   0.326E-03    0.923E-03
RMM:   5    -0.666734443128E+03   -0.56992E-05   -0.18199E-07  6069   0.214E-03    0.605E-03
RMM:   6    -0.666734448550E+03   -0.54217E-05   -0.57560E-08  5157   0.198E-03    0.679E-03
RMM:   7    -0.666734452405E+03   -0.38557E-05   -0.16242E-08  4864   0.196E-03    0.392E-03
RMM:   8    -0.666734455613E+03   -0.32079E-05   -0.58284E-08  5067   0.207E-03
  94 F= -.66673446E+03 E0= -.66631585E+03  d E =-.908989E-04  mag=    79.7680
       N       E                     dE             d eps       ncg     rms          rms(c)
DAV:   1    -0.666734471689E+03   -0.19283E-04   -0.27110E-03 26656   0.658E-02    0.292E-02
RMM:   2    -0.666734486122E+03   -0.14433E-04   -0.83999E-05 14810   0.134E-02    0.193E-02
RMM:   3    -0.666734493151E+03   -0.70287E-05   -0.10591E-05 13984   0.596E-03    0.164E-02
RMM:   4    -0.666734495024E+03   -0.18734E-05   -0.28536E-06 11718   0.348E-03    0.108E-02
RMM:   5    -0.666734500675E+03   -0.56508E-05   -0.39586E-07  7010   0.234E-03    0.766E-03
RMM:   6    -0.666734505224E+03   -0.45486E-05   -0.70791E-08  5241   0.214E-03    0.842E-03
RMM:   7    -0.666734509205E+03   -0.39814E-05   -0.38556E-08  5027   0.206E-03    0.356E-03
RMM:   8    -0.666734512605E+03   -0.33998E-05   -0.35218E-08  4967   0.212E-03
  95 F= -.66673451E+03 E0= -.66631591E+03  d E =-.147890E-03  mag=    79.7682
       N       E                     dE             d eps       ncg     rms          rms(c)
DAV:   1    -0.666734579429E+03   -0.70225E-04   -0.22837E-03 26848   0.604E-02    0.268E-02
RMM:   2    -0.666734591421E+03   -0.11991E-04   -0.76600E-05 14783   0.129E-02    0.188E-02
RMM:   3    -0.666734596636E+03   -0.52154E-05   -0.10258E-05 13904   0.603E-03    0.175E-02
RMM:   4    -0.666734597802E+03   -0.11656E-05   -0.27977E-06 11587   0.354E-03    0.101E-02
RMM:   5    -0.666734601801E+03   -0.39991E-05   -0.29585E-07  6344   0.223E-03    0.845E-03
RMM:   6    -0.666734605316E+03   -0.35148E-05   -0.11957E-07  5548   0.212E-03    0.804E-03
RMM:   7    -0.666734608665E+03   -0.33495E-05   -0.27181E-08  4934   0.199E-03    0.319E-03
RMM:   8    -0.666734611451E+03   -0.27861E-05   -0.35341E-08  4879   0.208E-03
  96 F= -.66673461E+03 E0= -.66631601E+03  d E =-.988464E-04  mag=    79.7684
       N       E                     dE             d eps       ncg     rms          rms(c)
DAV:   1    -0.666734630265E+03   -0.21600E-04   -0.40246E-03 26480   0.802E-02    0.356E-02
RMM:   2    -0.666734647735E+03   -0.17470E-04   -0.13549E-04 15092   0.171E-02    0.250E-02
RMM:   3    -0.666734654532E+03   -0.67973E-05   -0.18174E-05 14178   0.792E-03    0.232E-02
RMM:   4    -0.666734654767E+03   -0.23423E-06   -0.51458E-06 12401   0.462E-03    0.132E-02
RMM:   5    -0.666734658403E+03   -0.36363E-05   -0.17604E-06 10238   0.283E-03    0.110E-02
RMM:   6    -0.666734661683E+03   -0.32806E-05   -0.58794E-07  7235   0.243E-03    0.968E-03
RMM:   7    -0.666734663966E+03   -0.22822E-05   -0.86597E-08  5426   0.222E-03    0.539E-03
RMM:   8    -0.666734665963E+03   -0.19972E-05   -0.23484E-08  4837   0.213E-03
  97 F= -.66673467E+03 E0= -.66631607E+03  d E =-.153358E-03  mag=    79.7685
       N       E                     dE             d eps       ncg     rms          rms(c)
DAV:   1    -0.666734730052E+03   -0.66087E-04   -0.31779E-03 27040   0.716E-02    0.310E-02
RMM:   2    -0.666734743653E+03   -0.13601E-04   -0.11310E-04 14964   0.150E-02    0.240E-02
RMM:   3    -0.666734748613E+03   -0.49602E-05   -0.15432E-05 14103   0.742E-03    0.228E-02
RMM:   4    -0.666734748391E+03    0.22259E-06   -0.44431E-06 12039   0.439E-03    0.120E-02
RMM:   5    -0.666734750995E+03   -0.26049E-05   -0.12285E-06  8919   0.268E-03    0.940E-03
RMM:   6    -0.666734753544E+03   -0.25481E-05   -0.58265E-07  7043   0.245E-03    0.829E-03
RMM:   7    -0.666734755426E+03   -0.18827E-05   -0.10847E-07  5481   0.220E-03    0.527E-03
RMM:   8    -0.666734756802E+03   -0.13760E-05   -0.21005E-08  4759   0.210E-03
  98 F= -.66673476E+03 E0= -.66631617E+03  d E =-.908393E-04  mag=    79.7687
       N       E                     dE             d eps       ncg     rms          rms(c)
DAV:   1    -0.666734767660E+03   -0.12234E-04   -0.20786E-03 27376   0.580E-02    0.251E-02
RMM:   2    -0.666734776914E+03   -0.92536E-05   -0.74708E-05 14721   0.121E-02    0.194E-02
RMM:   3    -0.666734780441E+03   -0.35265E-05   -0.99523E-06 13923   0.591E-03    0.184E-02
RMM:   4    -0.666734780497E+03   -0.56811E-07   -0.27102E-06 11454   0.352E-03    0.977E-03
RMM:   5    -0.666734782570E+03   -0.20722E-05   -0.24082E-07  6254   0.224E-03    0.792E-03
RMM:   6    -0.666734784700E+03   -0.21299E-05   -0.13035E-07  5540   0.211E-03    0.828E-03
RMM:   7    -0.666734786111E+03   -0.14114E-05   -0.21716E-08  4825   0.194E-03    0.368E-03
RMM:   8    -0.666734787741E+03   -0.16298E-05   -0.30387E-08  4919   0.207E-03
  99 F= -.66673479E+03 E0= -.66631620E+03  d E =-.121778E-03  mag=    79.7689
       N       E                     dE             d eps       ncg     rms          rms(c)
DAV:   1    -0.666734857069E+03   -0.70958E-04   -0.31075E-03 26560   0.703E-02    0.300E-02
RMM:   2    -0.666734871501E+03   -0.14431E-04   -0.11875E-04 15008   0.146E-02    0.231E-02
RMM:   3    -0.666734875812E+03   -0.43111E-05   -0.14920E-05 14149   0.694E-03    0.219E-02
RMM:   4    -0.666734875678E+03    0.13364E-06   -0.40087E-06 12014   0.418E-03    0.122E-02
RMM:   5    -0.666734878017E+03   -0.23390E-05   -0.11919E-06  9186   0.265E-03    0.902E-03
RMM:   6    -0.666734880863E+03   -0.28461E-05   -0.32857E-07  6348   0.231E-03    0.817E-03
RMM:   7    -0.666734882650E+03   -0.17867E-05   -0.87785E-08  5410   0.216E-03    0.573E-03
RMM:   8    -0.666734883923E+03   -0.12727E-05   -0.19767E-08  4780   0.207E-03
 100 F= -.66673488E+03 E0= -.66631629E+03  d E =-.961819E-04  mag=    79.7691
       N       E                     dE             d eps       ncg     rms          rms(c)
DAV:   1    -0.666734896649E+03   -0.13999E-04   -0.22245E-03 27216   0.595E-02    0.255E-02
RMM:   2    -0.666734908205E+03   -0.11555E-04   -0.86880E-05 14874   0.125E-02    0.220E-02
RMM:   3    -0.666734911446E+03   -0.32410E-05   -0.11524E-05 14030   0.624E-03    0.198E-02
RMM:   4    -0.666734911598E+03   -0.15274E-06   -0.32039E-06 11607   0.378E-03    0.108E-02
RMM:   5    -0.666734913849E+03   -0.22505E-05   -0.52255E-07  7283   0.236E-03    0.728E-03
RMM:   6    -0.666734916714E+03   -0.28647E-05   -0.23922E-07  5958   0.216E-03    0.668E-03
RMM:   7    -0.666734918627E+03   -0.19134E-05   -0.53457E-08  5123   0.205E-03    0.435E-03
RMM:   8    -0.666734919855E+03   -0.12284E-05   -0.13937E-08  4713   0.205E-03
 101 F= -.66673492E+03 E0= -.66631631E+03  d E =-.132115E-03  mag=    79.7693
       N       E                     dE             d eps       ncg     rms          rms(c)
DAV:   1    -0.666734984605E+03   -0.65978E-04   -0.18373E-03 26768   0.523E-02    0.244E-02
RMM:   2    -0.666734994399E+03   -0.97943E-05   -0.77874E-05 14848   0.113E-02    0.203E-02
RMM:   3    -0.666734997441E+03   -0.30417E-05   -0.10506E-05 13807   0.584E-03    0.206E-02
RMM:   4    -0.666734997067E+03    0.37439E-06   -0.29770E-06 11466   0.369E-03    0.976E-03
RMM:   5    -0.666734999192E+03   -0.21257E-05   -0.46918E-07  6649   0.228E-03    0.799E-03
RMM:   6    -0.666735001242E+03   -0.20494E-05   -0.42716E-07  6554   0.215E-03    0.639E-03
RMM:   7    -0.666735002805E+03   -0.15628E-05   -0.10964E-07  5425   0.199E-03    0.251E-03
RMM:   8    -0.666735003948E+03   -0.11432E-05   -0.12906E-08  4599   0.189E-03
 102 F= -.66673500E+03 E0= -.66631639E+03  d E =-.840924E-04  mag=    79.7695
       N       E                     dE             d eps       ncg     rms          rms(c)
DAV:   1    -0.666735007947E+03   -0.51423E-05   -0.13765E-02 25632   0.143E-01    0.666E-02
RMM:   2    -0.666735063868E+03   -0.55921E-04   -0.57039E-04 17293   0.304E-02    0.536E-02
RMM:   3    -0.666735079099E+03   -0.15232E-04   -0.76046E-05 14856   0.150E-02    0.529E-02
RMM:   4    -0.666735070580E+03    0.85193E-05   -0.24113E-05 14322   0.974E-03    0.277E-02
RMM:   5    -0.666735073069E+03   -0.24890E-05   -0.85039E-06 12801   0.522E-03    0.217E-02
RMM:   6    -0.666735074065E+03   -0.99558E-06   -0.59581E-06 12313   0.442E-03    0.160E-02
RMM:   7    -0.666735074631E+03   -0.56624E-06   -0.33621E-06 11497   0.366E-03    0.109E-02
RMM:   8    -0.666735074921E+03   -0.28964E-06   -0.57286E-07  7306   0.240E-03
 103 F= -.66673507E+03 E0= -.66631643E+03  d E =-.155065E-03  mag=    79.7697
       N       E                     dE             d eps       ncg     rms          rms(c)
DAV:   1    -0.666735117196E+03   -0.42565E-04   -0.86981E-04 27712   0.343E-02    0.176E-02
RMM:   2    -0.666735121560E+03   -0.43646E-05   -0.40727E-05 14544   0.770E-03    0.154E-02
RMM:   3    -0.666735123006E+03   -0.14459E-05   -0.51507E-06 12645   0.416E-03    0.158E-02
RMM:   4    -0.666735122714E+03    0.29244E-06   -0.12608E-06  9877   0.274E-03    0.794E-03
RMM:   5    -0.666735123670E+03   -0.95600E-06   -0.41588E-08  4822   0.183E-03    0.760E-03
RMM:   6    -0.666735124502E+03   -0.83214E-06   -0.13090E-08  4683   0.180E-03    0.575E-03
RMM:   7    -0.666735125402E+03   -0.89966E-06   -0.13000E-08  4719   0.168E-03    0.302E-03
RMM:   8    -0.666735126072E+03   -0.67055E-06   -0.42115E-09  4646   0.176E-03
 104 F= -.66673513E+03 E0= -.66631649E+03  d E =-.511515E-04  mag=    79.7699
       N       E                     dE             d eps       ncg     rms          rms(c)
DAV:   1    -0.666735188774E+03   -0.63372E-04   -0.79169E-03 25888   0.103E-01    0.528E-02
RMM:   2    -0.666735219935E+03   -0.31161E-04   -0.35161E-04 15850   0.225E-02    0.436E-02
RMM:   3    -0.666735229221E+03   -0.92858E-05   -0.47611E-05 14634   0.119E-02    0.435E-02
RMM:   4    -0.666735222979E+03    0.62413E-05   -0.14676E-05 13927   0.762E-03    0.213E-02
RMM:   5    -0.666735224787E+03   -0.18077E-05   -0.48530E-06 12089   0.393E-03    0.165E-02
RMM:   6    -0.666735225511E+03   -0.72410E-06   -0.31396E-06 11531   0.331E-03    0.134E-02
RMM:   7    -0.666735225528E+03   -0.16764E-07   -0.12868E-06  9223   0.269E-03    0.104E-02
RMM:   8    -0.666735225250E+03    0.27753E-06   -0.90404E-08  5098   0.203E-03
 105 F= -.66673523E+03 E0= -.66631659E+03  d E =-.150330E-03  mag=    79.7701
       N       E                     dE             d eps       ncg     rms          rms(c)
DAV:   1    -0.666735030597E+03    0.19493E-03   -0.31705E-02 25376   0.205E-01    0.106E-01
RMM:   2    -0.666735153690E+03   -0.12309E-03   -0.13998E-03 21585   0.450E-02    0.861E-02
RMM:   3    -0.666735188863E+03   -0.35173E-04   -0.18620E-04 15437   0.222E-02    0.885E-02
RMM:   4    -0.666735161918E+03    0.26945E-04   -0.65537E-05 14697   0.160E-02    0.449E-02
RMM:   5    -0.666735168972E+03   -0.70543E-05   -0.21526E-05 14266   0.764E-03    0.381E-02
RMM:   6    -0.666735171361E+03   -0.23893E-05   -0.14456E-05 13833   0.638E-03    0.388E-02
RMM:   7    -0.666735163752E+03    0.76098E-05   -0.82179E-06 12826   0.511E-03    0.205E-02
RMM:   8    -0.666735162455E+03    0.12964E-05   -0.28482E-06 11732   0.331E-03
 106 F= -.66673516E+03 E0= -.66631652E+03  d E =-.875345E-04  mag=    79.7704
       N       E                     dE             d eps       ncg     rms          rms(c)
DAV:   1    -0.666735180021E+03   -0.16269E-04   -0.13222E-02 26144   0.132E-01    0.686E-02
RMM:   2    -0.666735232001E+03   -0.51980E-04   -0.57367E-04 16890   0.289E-02    0.578E-02
RMM:   3    -0.666735248026E+03   -0.16025E-04   -0.79751E-05 14862   0.154E-02    0.596E-02
RMM:   4    -0.666735233837E+03    0.14189E-04   -0.25302E-05 14342   0.100E-02    0.293E-02
RMM:   5    -0.666735238801E+03   -0.49644E-05   -0.82897E-06 12796   0.489E-03    0.293E-02
RMM:   6    -0.666735236835E+03    0.19660E-05   -0.53141E-06 12209   0.416E-03    0.230E-02
RMM:   7    -0.666735235444E+03    0.13909E-05   -0.31170E-06 11758   0.337E-03    0.120E-02
RMM:   8    -0.666735235567E+03   -0.12293E-06   -0.45733E-07  7103   0.234E-03
 107 F= -.66673524E+03 E0= -.66631658E+03  d E =-.160647E-03  mag=    79.7706
       N       E                     dE             d eps       ncg     rms          rms(c)
DAV:   1    -0.666735301557E+03   -0.66112E-04   -0.54521E-04 26016   0.315E-02    0.907E-03
RMM:   2    -0.666735303481E+03   -0.19241E-05   -0.16770E-05 13977   0.639E-03    0.982E-03
RMM:   3    -0.666735304001E+03   -0.52061E-06   -0.20344E-06 11561   0.320E-03    0.757E-03
RMM:   4    -0.666735304011E+03   -0.97789E-08   -0.54985E-08  5083   0.193E-03    0.366E-03
RMM:   5    -0.666735304501E+03   -0.48988E-06   -0.38190E-09  4461   0.173E-03    0.430E-03
RMM:   6    -0.666735304735E+03   -0.23423E-06   -0.25658E-09  4588   0.167E-03    0.326E-03
RMM:   7    -0.666735305227E+03   -0.49220E-06   -0.32639E-09  4627   0.179E-03    0.157E-03
RMM:   8    -0.666735305625E+03   -0.39767E-06   -0.14701E-09  4553   0.183E-03
 108 F= -.66673531E+03 E0= -.66631666E+03  d E =-.700578E-04  mag=    79.7708
       N       E                     dE             d eps       ncg     rms          rms(c)
DAV:   1    -0.666735355833E+03   -0.50606E-04   -0.28569E-03 27200   0.721E-02    0.198E-02
RMM:   2    -0.666735363184E+03   -0.73505E-05   -0.82693E-05 14675   0.139E-02    0.179E-02
RMM:   3    -0.666735366005E+03   -0.28210E-05   -0.11063E-05 13760   0.661E-03    0.169E-02
RMM:   4    -0.666735365480E+03    0.52433E-06   -0.26951E-06 11933   0.346E-03    0.919E-03
RMM:   5    -0.666735365924E+03   -0.44378E-06   -0.22401E-07  5944   0.214E-03    0.891E-03
RMM:   6    -0.666735366180E+03   -0.25611E-06   -0.50248E-08  5351   0.210E-03    0.670E-03
RMM:   7    -0.666735366232E+03   -0.52154E-07   -0.29855E-08  4942   0.198E-03    0.324E-03
RMM:   8    -0.666735366649E+03   -0.41630E-06   -0.24860E-08  4884   0.208E-03
 109 F= -.66673537E+03 E0= -.66631673E+03  d E =-.131081E-03  mag=    79.7710
       N       E                     dE             d eps       ncg     rms          rms(c)
DAV:   1    -0.666735423499E+03   -0.57267E-04   -0.88690E-04 26160   0.396E-02    0.132E-02
RMM:   2    -0.666735427039E+03   -0.35404E-05   -0.28427E-05 14254   0.802E-03    0.129E-02
RMM:   3    -0.666735428440E+03   -0.14012E-05   -0.39303E-06 12607   0.397E-03    0.113E-02
RMM:   4    -0.666735428576E+03   -0.13597E-06   -0.61666E-07  7420   0.238E-03    0.514E-03
RMM:   5    -0.666735429348E+03   -0.77207E-06   -0.27013E-08  4856   0.195E-03    0.525E-03
RMM:   6    -0.666735430127E+03   -0.77812E-06   -0.21900E-09  4636   0.187E-03    0.394E-03
RMM:   7    -0.666735430739E+03   -0.61281E-06   -0.92158E-09  4713   0.186E-03    0.260E-03
RMM:   8    -0.666735431300E+03   -0.56112E-06   -0.22836E-09  4609   0.191E-03
 110 F= -.66673543E+03 E0= -.66631681E+03  d E =-.646519E-04  mag=    79.7712
       N       E                     dE             d eps       ncg     rms          rms(c)
DAV:   1    -0.666735449740E+03   -0.19000E-04   -0.13768E-03 26688   0.492E-02    0.161E-02
RMM:   2    -0.666735454675E+03   -0.49351E-05   -0.42879E-05 14391   0.996E-03    0.144E-02
RMM:   3    -0.666735456908E+03   -0.22333E-05   -0.59823E-06 13112   0.477E-03    0.137E-02
RMM:   4    -0.666735456808E+03    0.10058E-06   -0.13773E-06 10081   0.278E-03    0.656E-03
RMM:   5    -0.666735457702E+03   -0.89407E-06   -0.31545E-08  4917   0.191E-03    0.654E-03
RMM:   6    -0.666735458474E+03   -0.77207E-06   -0.82122E-09  4767   0.188E-03    0.528E-03
RMM:   7    -0.666735459100E+03   -0.62678E-06   -0.41740E-09  4752   0.180E-03    0.247E-03
RMM:   8    -0.666735459927E+03   -0.82608E-06   -0.69353E-09  4771   0.190E-03
 111 F= -.66673546E+03 E0= -.66631685E+03  d E =-.932780E-04  mag=    79.7713
       N       E                     dE             d eps       ncg     rms          rms(c)
DAV:   1    -0.666735515309E+03   -0.56209E-04   -0.10857E-03 26688   0.422E-02    0.171E-02
RMM:   2    -0.666735519229E+03   -0.39195E-05   -0.36997E-05 14347   0.876E-03    0.143E-02
RMM:   3    -0.666735521695E+03   -0.24657E-05   -0.52914E-06 12928   0.432E-03    0.143E-02
RMM:   4    -0.666735521391E+03    0.30408E-06   -0.12335E-06  9218   0.277E-03    0.631E-03
RMM:   5    -0.666735522539E+03   -0.11483E-05   -0.11079E-07  5280   0.203E-03    0.562E-03
RMM:   6    -0.666735523602E+03   -0.10631E-05   -0.57706E-08  4972   0.186E-03    0.484E-03
RMM:   7    -0.666735524738E+03   -0.11362E-05   -0.12068E-08  4768   0.184E-03    0.331E-03
RMM:   8    -0.666735525523E+03   -0.78464E-06   -0.10278E-08  4713   0.190E-03
 112 F= -.66673553E+03 E0= -.66631692E+03  d E =-.655963E-04  mag=    79.7715
       N       E                     dE             d eps       ncg     rms          rms(c)
DAV:   1    -0.666735550848E+03   -0.26110E-04   -0.26719E-03 27360   0.662E-02    0.268E-02
RMM:   2    -0.666735560026E+03   -0.91782E-05   -0.89646E-05 14879   0.137E-02    0.232E-02
RMM:   3    -0.666735565331E+03   -0.53053E-05   -0.13902E-05 13884   0.690E-03    0.231E-02
RMM:   4    -0.666735563951E+03    0.13807E-05   -0.40361E-06 12082   0.418E-03    0.103E-02
RMM:   5    -0.666735565527E+03   -0.15767E-05   -0.84328E-07  7472   0.244E-03    0.886E-03
RMM:   6    -0.666735566900E+03   -0.13723E-05   -0.40416E-07  6452   0.227E-03    0.644E-03
RMM:   7    -0.666735568531E+03   -0.16312E-05   -0.10111E-07  5455   0.211E-03    0.500E-03
RMM:   8    -0.666735569433E+03   -0.90199E-06   -0.12357E-08  4766   0.204E-03
 113 F= -.66673557E+03 E0= -.66631696E+03  d E =-.109506E-03  mag=    79.7716
       N       E                     dE             d eps       ncg     rms          rms(c)
DAV:   1    -0.666735627976E+03   -0.59445E-04   -0.18995E-03 27552   0.568E-02    0.221E-02
RMM:   2    -0.666735634488E+03   -0.65123E-05   -0.62967E-05 14677   0.119E-02    0.190E-02
RMM:   3    -0.666735638220E+03   -0.37318E-05   -0.93870E-06 13711   0.578E-03    0.176E-02
RMM:   4    -0.666735637847E+03    0.37299E-06   -0.25096E-06 11560   0.341E-03    0.874E-03
RMM:   5    -0.666735638959E+03   -0.11125E-05   -0.97264E-08  5427   0.206E-03    0.782E-03
RMM:   6    -0.666735639910E+03   -0.95088E-06   -0.19293E-08  4897   0.199E-03    0.708E-03
RMM:   7    -0.666735641085E+03   -0.11749E-05   -0.15945E-08  4916   0.187E-03    0.317E-03
RMM:   8    -0.666735642422E+03   -0.13374E-05   -0.25747E-08  4923   0.204E-03
 114 F= -.66673564E+03 E0= -.66631704E+03  d E =-.729896E-04  mag=    79.7717
