       N       E                     dE             d eps       ncg     rms          rms(c)
DAV:   1     0.901806555158E+04    0.90181E+04   -0.34265E+05 24880   0.112E+03
DAV:   2     0.777750095468E+03   -0.82403E+04   -0.74272E+04 31104   0.304E+02
DAV:   3    -0.911469354494E+03   -0.16892E+04   -0.16670E+04 29600   0.149E+02
DAV:   4    -0.995886623103E+03   -0.84417E+02   -0.83837E+02 33520   0.409E+01
DAV:   5    -0.999237098801E+03   -0.33505E+01   -0.33413E+01 39824   0.647E+00    0.176E+02
RMM:   6    -0.944458617978E+03    0.54778E+02   -0.27768E+03 27045   0.918E+01    0.354E+02
RMM:   7    -0.730738082521E+03    0.21372E+03   -0.33222E+02 24335   0.305E+01    0.211E+02
RMM:   8    -0.906749529054E+03   -0.17601E+03   -0.31068E+02 24393   0.278E+01    0.215E+02
RMM:   9    -0.661745089619E+03    0.24500E+03   -0.16191E+02 24329   0.205E+01    0.145E+02
RMM:  10    -0.556686066483E+03    0.10506E+03   -0.78505E+01 24361   0.151E+01    0.834E+01
RMM:  11    -0.533925404956E+03    0.22761E+02   -0.28867E+01 24383   0.834E+00    0.804E+01
RMM:  12    -0.529349172023E+03    0.45762E+01   -0.15480E+01 24586   0.645E+00    0.742E+01
RMM:  13    -0.522680068641E+03    0.66691E+01   -0.16374E+01 24548   0.648E+00    0.632E+01
RMM:  14    -0.514022144836E+03    0.86579E+01   -0.13193E+01 24691   0.599E+00    0.528E+01
RMM:  15    -0.499221183429E+03    0.14801E+02   -0.93072E+00 24344   0.487E+00    0.453E+01
RMM:  16    -0.489623594354E+03    0.95976E+01   -0.44964E+00 24554   0.339E+00    0.385E+01
RMM:  17    -0.481411293144E+03    0.82123E+01   -0.28520E+00 25107   0.252E+00    0.364E+01
RMM:  18    -0.472084428987E+03    0.93269E+01   -0.26167E+00 25093   0.250E+00    0.345E+01
RMM:  19    -0.464152466980E+03    0.79320E+01   -0.20798E+00 25078   0.228E+00    0.318E+01
RMM:  20    -0.457645415150E+03    0.65071E+01   -0.17391E+00 25430   0.191E+00    0.301E+01
RMM:  21    -0.454520993344E+03    0.31244E+01   -0.11450E+00 25259   0.171E+00    0.293E+01
RMM:  22    -0.452494020570E+03    0.20270E+01   -0.11706E+00 25873   0.168E+00    0.279E+01
RMM:  23    -0.457416599038E+03   -0.49226E+01   -0.14604E+00 27412   0.183E+00    0.275E+01
RMM:  24    -0.463983677171E+03   -0.65671E+01   -0.13649E+00 26739   0.178E+00    0.268E+01
RMM:  25    -0.474944640573E+03   -0.10961E+02   -0.20480E+00 28312   0.205E+00    0.261E+01
RMM:  26    -0.492149868765E+03   -0.17205E+02   -0.31137E+00 28662   0.238E+00    0.256E+01
RMM:  27    -0.511712878245E+03   -0.19563E+02   -0.48702E+00 31049   0.292E+00    0.253E+01
RMM:  28    -0.537700335664E+03   -0.25987E+02   -0.93359E+00 33445   0.376E+00    0.243E+01
RMM:  29    -0.560215042386E+03   -0.22515E+02   -0.10012E+01 33398   0.374E+00    0.237E+01
RMM:  30    -0.574564678207E+03   -0.14350E+02   -0.52501E+00 31980   0.282E+00    0.230E+01
RMM:  31    -0.587327610109E+03   -0.12763E+02   -0.38078E+00 31649   0.248E+00    0.225E+01
RMM:  32    -0.601879797898E+03   -0.14552E+02   -0.60769E+00 33290   0.312E+00    0.221E+01
RMM:  33    -0.613876048692E+03   -0.11996E+02   -0.65520E+00 34006   0.312E+00    0.211E+01
RMM:  34    -0.621392026982E+03   -0.75160E+01   -0.49282E+00 34118   0.280E+00    0.192E+01
RMM:  35    -0.623452310679E+03   -0.20603E+01   -0.10958E+00 29477   0.147E+00    0.178E+01
RMM:  36    -0.625166845815E+03   -0.17145E+01   -0.64141E-01 27584   0.119E+00    0.171E+01
RMM:  37    -0.627424744411E+03   -0.22579E+01   -0.56967E-01 27831   0.109E+00    0.161E+01
RMM:  38    -0.629777008742E+03   -0.23523E+01   -0.47836E-01 28301   0.992E-01    0.149E+01
RMM:  39    -0.633978625725E+03   -0.42016E+01   -0.59109E-01 29807   0.104E+00    0.138E+01
RMM:  40    -0.639763350057E+03   -0.57847E+01   -0.10077E+00 31785   0.130E+00    0.136E+01
RMM:  41    -0.643644854341E+03   -0.38815E+01   -0.13861E+00 32621   0.140E+00    0.139E+01
RMM:  42    -0.646475295913E+03   -0.28304E+01   -0.12395E+00 31912   0.128E+00    0.145E+01
RMM:  43    -0.647946304698E+03   -0.14710E+01   -0.56758E-01 29574   0.907E-01    0.140E+01
RMM:  44    -0.649604665528E+03   -0.16584E+01   -0.40957E-01 29180   0.782E-01    0.139E+01
RMM:  45    -0.651753170116E+03   -0.21485E+01   -0.70735E-01 31050   0.988E-01    0.142E+01
RMM:  46    -0.654265419623E+03   -0.25122E+01   -0.11882E+00 32543   0.121E+00    0.154E+01
RMM:  47    -0.656984907013E+03   -0.27195E+01   -0.10514E+00 32367   0.116E+00    0.154E+01
RMM:  48    -0.659114206069E+03   -0.21293E+01   -0.49742E-01 29777   0.844E-01    0.140E+01
RMM:  49    -0.660876216364E+03   -0.17620E+01   -0.31760E-01 29075   0.690E-01    0.128E+01
RMM:  50    -0.662630041034E+03   -0.17538E+01   -0.44101E-01 30451   0.757E-01    0.114E+01
RMM:  51    -0.662984097795E+03   -0.35406E+00   -0.12944E+00 36521   0.148E+00    0.727E+00
RMM:  52    -0.665325944167E+03   -0.23418E+01   -0.37660E-01 31439   0.763E-01    0.679E+00
RMM:  53    -0.666502378885E+03   -0.11764E+01   -0.44729E-01 31345   0.754E-01    0.603E+00
RMM:  54    -0.668469458550E+03   -0.19671E+01   -0.44850E-01 30587   0.642E-01    0.472E+00
RMM:  55    -0.669598615239E+03   -0.11292E+01   -0.90841E-02 26526   0.393E-01    0.398E+00
RMM:  56    -0.670051326748E+03   -0.45271E+00   -0.22743E-01 29690   0.496E-01    0.372E+00
RMM:  57    -0.670012447251E+03    0.38879E-01   -0.59755E-02 26510   0.322E-01    0.313E+00
RMM:  58    -0.669877473520E+03    0.13497E+00   -0.59067E-02 26728   0.319E-01    0.286E+00
RMM:  59    -0.669847170625E+03    0.30303E-01   -0.48509E-02 27354   0.307E-01    0.280E+00
RMM:  60    -0.669645512804E+03    0.20166E+00   -0.27426E-02 25471   0.255E-01    0.237E+00
RMM:  61    -0.669834101442E+03   -0.18859E+00   -0.38295E-02 27359   0.283E-01    0.226E+00
RMM:  62    -0.669796753281E+03    0.37348E-01   -0.23315E-02 26328   0.215E-01    0.171E+00
RMM:  63    -0.670047064350E+03   -0.25031E+00   -0.15744E-02 25610   0.159E-01    0.151E+00
RMM:  64    -0.670076659505E+03   -0.29595E-01   -0.81263E-03 24416   0.139E-01    0.134E+00
RMM:  65    -0.670220829810E+03   -0.14417E+00   -0.93452E-03 25839   0.116E-01    0.124E+00
RMM:  66    -0.670260295830E+03   -0.39466E-01   -0.45230E-03 24256   0.932E-02    0.117E+00
RMM:  67    -0.670294660698E+03   -0.34365E-01   -0.26421E-03 23418   0.727E-02    0.111E+00
RMM:  68    -0.670376754826E+03   -0.82094E-01   -0.33012E-03 24940   0.664E-02    0.109E+00
RMM:  69    -0.670468167671E+03   -0.91413E-01   -0.29465E-03 25022   0.649E-02    0.106E+00
RMM:  70    -0.670494345643E+03   -0.26178E-01   -0.37594E-03 26462   0.666E-02    0.102E+00
RMM:  71    -0.670415973701E+03    0.78372E-01   -0.43425E-03 27682   0.675E-02    0.977E-01
RMM:  72    -0.670277828405E+03    0.13815E+00   -0.42716E-03 26895   0.654E-02    0.944E-01
RMM:  73    -0.670387800487E+03   -0.10997E+00   -0.40868E-03 26772   0.666E-02    0.889E-01
RMM:  74    -0.670456691660E+03   -0.68891E-01   -0.37180E-03 27977   0.726E-02    0.838E-01
RMM:  75    -0.670442777353E+03    0.13914E-01   -0.32770E-03 27875   0.723E-02    0.767E-01
RMM:  76    -0.670413702969E+03    0.29074E-01   -0.25112E-03 26428   0.645E-02    0.715E-01
RMM:  77    -0.670431739853E+03   -0.18037E-01   -0.37325E-03 27439   0.753E-02    0.633E-01
RMM:  78    -0.670476696330E+03   -0.44956E-01   -0.39446E-03 28000   0.772E-02    0.504E-01
RMM:  79    -0.670528049664E+03   -0.51353E-01   -0.45699E-03 29013   0.749E-02    0.395E-01
RMM:  80    -0.670583646575E+03   -0.55597E-01   -0.34353E-03 26853   0.608E-02
   1 F= -.67058365E+03 E0= -.67017293E+03  d E =-.670584E+03  mag=    80.3292
       N       E                     dE             d eps       ncg     rms          rms(c)
DAV:   1    -0.669994966778E+03    0.53308E+00   -0.14174E+02 27808   0.112E+01    0.361E+00
RMM:   2    -0.670441701715E+03   -0.44673E+00   -0.40279E+00 24321   0.185E+00    0.237E+00
RMM:   3    -0.670635744922E+03   -0.19404E+00   -0.53908E-01 24327   0.748E-01    0.187E+00
RMM:   4    -0.670667927782E+03   -0.32183E-01   -0.84355E-02 24871   0.407E-01    0.153E+00
RMM:   5    -0.670706942121E+03   -0.39014E-01   -0.34195E-02 23837   0.257E-01    0.114E+00
RMM:   6    -0.670748156909E+03   -0.41215E-01   -0.18414E-02 23690   0.170E-01    0.104E+00
RMM:   7    -0.670776250590E+03   -0.28094E-01   -0.83852E-03 23588   0.132E-01    0.670E-01
RMM:   8    -0.670793475646E+03   -0.17225E-01   -0.35144E-03 23731   0.797E-02    0.283E-01
RMM:   9    -0.670812333423E+03   -0.18858E-01   -0.13352E-03 23916   0.463E-02    0.213E-01
RMM:  10    -0.670822601087E+03   -0.10268E-01   -0.56853E-04 21490   0.296E-02    0.144E-01
RMM:  11    -0.670844156589E+03   -0.21556E-01   -0.28263E-04 18537   0.200E-02    0.121E-01
RMM:  12    -0.670866289640E+03   -0.22133E-01   -0.20012E-04 16871   0.174E-02    0.115E-01
RMM:  13    -0.670894787020E+03   -0.28497E-01   -0.18930E-04 16314   0.173E-02    0.102E-01
RMM:  14    -0.670911183995E+03   -0.16397E-01   -0.92520E-05 14823   0.119E-02    0.917E-02
RMM:  15    -0.670932745503E+03   -0.21562E-01   -0.11232E-04 15603   0.114E-02    0.851E-02
RMM:  16    -0.670949524139E+03   -0.16779E-01   -0.11355E-04 15157   0.112E-02    0.845E-02
RMM:  17    -0.670960155040E+03   -0.10631E-01   -0.14459E-04 15890   0.120E-02    0.769E-02
RMM:  18    -0.670968077657E+03   -0.79226E-02   -0.79045E-05 14290   0.998E-03    0.724E-02
RMM:  19    -0.670975249579E+03   -0.71719E-02   -0.42485E-05 13757   0.757E-03    0.697E-02
RMM:  20    -0.670984190111E+03   -0.89405E-02   -0.30657E-05 13572   0.661E-03    0.678E-02
RMM:  21    -0.671000422825E+03   -0.16233E-01   -0.40488E-05 13786   0.723E-03    0.656E-02
RMM:  22    -0.671016471165E+03   -0.16048E-01   -0.36338E-05 13715   0.735E-03    0.626E-02
RMM:  23    -0.671036884008E+03   -0.20413E-01   -0.37446E-05 13662   0.760E-03    0.589E-02
RMM:  24    -0.671058634029E+03   -0.21750E-01   -0.48218E-05 13726   0.773E-03    0.550E-02
RMM:  25    -0.671082126454E+03   -0.23492E-01   -0.39313E-05 13304   0.711E-03    0.510E-02
RMM:  26    -0.671099998134E+03   -0.17872E-01   -0.23121E-05 12783   0.628E-03    0.458E-02
RMM:  27    -0.671115127554E+03   -0.15129E-01   -0.17407E-05 12267   0.498E-03    0.424E-02
RMM:  28    -0.671128384918E+03   -0.13257E-01   -0.15820E-05 12440   0.496E-03    0.400E-02
RMM:  29    -0.671147155883E+03   -0.18771E-01   -0.25527E-05 13406   0.572E-03    0.358E-02
RMM:  30    -0.671162727705E+03   -0.15572E-01   -0.20908E-05 12906   0.537E-03    0.329E-02
RMM:  31    -0.671173119568E+03   -0.10392E-01   -0.12105E-05 12267   0.434E-03    0.302E-02
RMM:  32    -0.671184372660E+03   -0.11253E-01   -0.11404E-05 12727   0.438E-03    0.285E-02
RMM:  33    -0.671194661397E+03   -0.10289E-01   -0.12035E-05 12487   0.443E-03    0.257E-02
RMM:  34    -0.671203289873E+03   -0.86285E-02   -0.12899E-05 12559   0.434E-03    0.238E-02
RMM:  35    -0.671208661288E+03   -0.53714E-02   -0.88397E-06 11546   0.386E-03    0.206E-02
RMM:  36    -0.671212767527E+03   -0.41062E-02   -0.84181E-06 11357   0.358E-03    0.192E-02
RMM:  37    -0.671216710371E+03   -0.39428E-02   -0.10829E-05 11996   0.380E-03    0.176E-02
RMM:  38    -0.671218804623E+03   -0.20943E-02   -0.83108E-06 11501   0.364E-03    0.153E-02
RMM:  39    -0.671219598755E+03   -0.79413E-03   -0.54784E-06 10163   0.323E-03    0.142E-02
RMM:  40    -0.671219482465E+03    0.11629E-03   -0.37045E-06  9727   0.295E-03    0.129E-02
RMM:  41    -0.671219902839E+03   -0.42037E-03   -0.30391E-06  9735   0.284E-03    0.121E-02
RMM:  42    -0.671221038028E+03   -0.11352E-02   -0.40414E-06 10723   0.300E-03    0.108E-02
RMM:  43    -0.671222438177E+03   -0.14001E-02   -0.27018E-06  9515   0.271E-03    0.978E-03
RMM:  44    -0.671223774450E+03   -0.13363E-02   -0.19860E-06  8860   0.258E-03    0.847E-03
RMM:  45    -0.671225407955E+03   -0.16335E-02   -0.34927E-06  9421   0.267E-03    0.800E-03
RMM:  46    -0.671226567362E+03   -0.11594E-02   -0.46003E-06  9535   0.273E-03    0.644E-03
RMM:  47    -0.671227165046E+03   -0.59768E-03   -0.32522E-06  8932   0.262E-03    0.556E-03
RMM:  48    -0.671227422944E+03   -0.25790E-03   -0.18596E-06  7867   0.245E-03    0.439E-03
RMM:  49    -0.671227586485E+03   -0.16354E-03   -0.17829E-06  7643   0.237E-03    0.377E-03
RMM:  50    -0.671227672418E+03   -0.85933E-04   -0.22863E-06  8134   0.243E-03
   2 F= -.67122767E+03 E0= -.67081575E+03  d E =-.644026E+00  mag=    79.9800
       N       E                     dE             d eps       ncg     rms          rms(c)
DAV:   1    -0.671264387310E+03   -0.36801E-01   -0.17136E+00 26640   0.116E+00    0.387E-01
RMM:   2    -0.671267136324E+03   -0.27490E-02   -0.35423E-02 23235   0.193E-01    0.244E-01
RMM:   3    -0.671268552609E+03   -0.14163E-02   -0.51571E-03 21849   0.789E-02    0.188E-01
RMM:   4    -0.671268686005E+03   -0.13340E-03   -0.12910E-03 20024   0.466E-02    0.180E-01
RMM:   5    -0.671268672852E+03    0.13153E-04   -0.39767E-04 17075   0.293E-02    0.906E-02
RMM:   6    -0.671268764199E+03   -0.91347E-04   -0.19730E-04 15393   0.161E-02    0.684E-02
RMM:   7    -0.671268838152E+03   -0.73953E-04   -0.80420E-05 13841   0.143E-02    0.611E-02
RMM:   8    -0.671268859052E+03   -0.20900E-04   -0.30483E-05 12786   0.851E-03
   3 F= -.67126886E+03 E0= -.67085710E+03  d E =-.685212E+00  mag=    79.9793
       N       E                     dE             d eps       ncg     rms          rms(c)
DAV:   1    -0.671341799602E+03   -0.72961E-01   -0.17339E+01 25888   0.372E+00    0.125E+00
RMM:   2    -0.671369117317E+03   -0.27318E-01   -0.37728E-01 24091   0.628E-01    0.813E-01
RMM:   3    -0.671387759314E+03   -0.18642E-01   -0.58496E-02 23678   0.252E-01    0.595E-01
RMM:   4    -0.671389322408E+03   -0.15631E-02   -0.11453E-02 23425   0.143E-01    0.619E-01
RMM:   5    -0.671389218760E+03    0.10365E-03   -0.36260E-03 22404   0.881E-02    0.372E-01
RMM:   6    -0.671389792866E+03   -0.57411E-03   -0.17582E-03 22232   0.529E-02    0.337E-01
RMM:   7    -0.671389874429E+03   -0.81563E-04   -0.82764E-04 20695   0.427E-02    0.175E-01
RMM:   8    -0.671390016115E+03   -0.14169E-03   -0.32782E-04 17746   0.257E-02    0.844E-02
RMM:   9    -0.671390181052E+03   -0.16494E-03   -0.13066E-04 14731   0.164E-02    0.595E-02
RMM:  10    -0.671390268821E+03   -0.87769E-04   -0.50039E-05 13139   0.106E-02
   4 F= -.67139027E+03 E0= -.67097905E+03  d E =-.806622E+00  mag=    79.9786
       N       E                     dE             d eps       ncg     rms          rms(c)
DAV:   1    -0.671438680125E+03   -0.48499E-01   -0.10489E+01 25888   0.297E+00    0.100E+00
RMM:   2    -0.671454748425E+03   -0.16068E-01   -0.24003E-01 24042   0.496E-01    0.681E-01
RMM:   3    -0.671465580520E+03   -0.10832E-01   -0.35274E-02 23263   0.199E-01    0.489E-01
RMM:   4    -0.671466322948E+03   -0.74243E-03   -0.67323E-03 22970   0.111E-01    0.477E-01
RMM:   5    -0.671466603483E+03   -0.28053E-03   -0.23686E-03 21831   0.708E-02    0.306E-01
RMM:   6    -0.671467245956E+03   -0.64247E-03   -0.11902E-03 21535   0.433E-02    0.267E-01
RMM:   7    -0.671467377543E+03   -0.13159E-03   -0.56104E-04 19960   0.348E-02    0.159E-01
RMM:   8    -0.671467518501E+03   -0.14096E-03   -0.21307E-04 16375   0.216E-02    0.627E-02
RMM:   9    -0.671467717438E+03   -0.19894E-03   -0.79588E-05 13778   0.129E-02    0.511E-02
RMM:  10    -0.671467816283E+03   -0.98845E-04   -0.34892E-05 12792   0.912E-03
   5 F= -.67146782E+03 E0= -.67105702E+03  d E =-.884170E+00  mag=    79.9780
       N       E                     dE             d eps       ncg     rms          rms(c)
DAV:   1    -0.671421664965E+03    0.46052E-01   -0.16366E+01 25600   0.358E+00    0.133E+00
RMM:   2    -0.671452368322E+03   -0.30703E-01   -0.40749E-01 24152   0.622E-01    0.950E-01
RMM:   3    -0.671468000150E+03   -0.15632E-01   -0.66513E-02 23491   0.252E-01    0.733E-01
RMM:   4    -0.671468146833E+03   -0.14668E-03   -0.11038E-02 22759   0.150E-01    0.706E-01
RMM:   5    -0.671468084870E+03    0.61963E-04   -0.53702E-03 21817   0.985E-02    0.328E-01
RMM:   6    -0.671468529627E+03   -0.44476E-03   -0.23985E-03 21367   0.616E-02    0.232E-01
RMM:   7    -0.671468867608E+03   -0.33798E-03   -0.76715E-04 20155   0.353E-02    0.167E-01
RMM:   8    -0.671469029989E+03   -0.16238E-03   -0.30995E-04 17723   0.234E-02    0.118E-01
RMM:   9    -0.671469237785E+03   -0.20780E-03   -0.10170E-04 14607   0.137E-02    0.536E-02
RMM:  10    -0.671469443034E+03   -0.20525E-03   -0.38723E-05 13187   0.947E-03    0.393E-02
RMM:  11    -0.671469747083E+03   -0.30405E-03   -0.23874E-05 12708   0.758E-03    0.299E-02
RMM:  12    -0.671470026033E+03   -0.27895E-03   -0.16901E-05 12545   0.583E-03    0.206E-02
RMM:  13    -0.671470199208E+03   -0.17317E-03   -0.93699E-06 11887   0.510E-03    0.167E-02
RMM:  14    -0.671470274700E+03   -0.75492E-04   -0.41884E-06 10779   0.360E-03
   6 F= -.67147027E+03 E0= -.67105836E+03  d E =-.245842E-02  mag=    79.9778
       N       E                     dE             d eps       ncg     rms          rms(c)
DAV:   1    -0.671475731099E+03   -0.55319E-02   -0.48371E-01 26496   0.598E-01    0.227E-01
RMM:   2    -0.671476875041E+03   -0.11439E-02   -0.11347E-02 22122   0.106E-01    0.157E-01
RMM:   3    -0.671477487198E+03   -0.61216E-03   -0.17451E-03 19236   0.427E-02    0.119E-01
RMM:   4    -0.671477617114E+03   -0.12992E-03   -0.39312E-04 16585   0.265E-02    0.120E-01
RMM:   5    -0.671477733534E+03   -0.11642E-03   -0.14464E-04 14648   0.178E-02    0.601E-02
RMM:   6    -0.671477821866E+03   -0.88332E-04   -0.62037E-05 13389   0.108E-02    0.489E-02
RMM:   7    -0.671477878174E+03   -0.56308E-04   -0.23320E-05 12740   0.755E-03    0.445E-02
RMM:   8    -0.671477901998E+03   -0.23824E-04   -0.10059E-05 11971   0.525E-03
   7 F= -.67147790E+03 E0= -.67106619E+03  d E =-.100857E-01  mag=    79.9776
       N       E                     dE             d eps       ncg     rms          rms(c)
DAV:   1    -0.671485180608E+03   -0.73024E-02   -0.42163E-01 25984   0.562E-01    0.212E-01
RMM:   2    -0.671485938528E+03   -0.75792E-03   -0.96654E-03 21994   0.996E-02    0.148E-01
RMM:   3    -0.671486393926E+03   -0.45540E-03   -0.15825E-03 19037   0.404E-02    0.112E-01
RMM:   4    -0.671486459892E+03   -0.65967E-04   -0.35465E-04 16461   0.251E-02    0.116E-01
RMM:   5    -0.671486510823E+03   -0.50931E-04   -0.12760E-04 14593   0.168E-02    0.618E-02
RMM:   6    -0.671486569367E+03   -0.58544E-04   -0.57133E-05 13426   0.106E-02    0.578E-02
RMM:   7    -0.671486606544E+03   -0.37177E-04   -0.23944E-05 12724   0.781E-03    0.335E-02
RMM:   8    -0.671486631244E+03   -0.24700E-04   -0.95889E-06 11621   0.499E-03
   8 F= -.67148663E+03 E0= -.67107509E+03  d E =-.188150E-01  mag=    79.9774
       N       E                     dE             d eps       ncg     rms          rms(c)
DAV:   1    -0.671492980681E+03   -0.63741E-02   -0.18313E+00 26032   0.118E+00    0.448E-01
RMM:   2    -0.671495434210E+03   -0.24535E-02   -0.42662E-02 23141   0.210E-01    0.319E-01
RMM:   3    -0.671497113643E+03   -0.16794E-02   -0.75317E-03 21852   0.851E-02    0.244E-01
RMM:   4    -0.671497152005E+03   -0.38362E-04   -0.12917E-03 20251   0.514E-02    0.241E-01
RMM:   5    -0.671497200749E+03   -0.48744E-04   -0.57403E-04 18376   0.343E-02    0.131E-01
RMM:   6    -0.671497318373E+03   -0.11762E-03   -0.25071E-04 16433   0.203E-02    0.115E-01
RMM:   7    -0.671497351928E+03   -0.33556E-04   -0.11213E-04 14668   0.159E-02    0.834E-02
RMM:   8    -0.671497396966E+03   -0.45037E-04   -0.45046E-05 13296   0.106E-02
   9 F= -.67149740E+03 E0= -.67108624E+03  d E =-.295807E-01  mag=    79.9771
       N       E                     dE             d eps       ncg     rms          rms(c)
DAV:   1    -0.671541945567E+03   -0.44594E-01   -0.29350E+00 26240   0.176E+00    0.486E-01
RMM:   2    -0.671548020945E+03   -0.60754E-02   -0.63861E-02 23865   0.310E-01    0.311E-01
RMM:   3    -0.671550533290E+03   -0.25123E-02   -0.97343E-03 23088   0.131E-01    0.380E-01
RMM:   4    -0.671550276956E+03    0.25633E-03   -0.19706E-03 21625   0.697E-02    0.182E-01
RMM:   5    -0.671550463461E+03   -0.18650E-03   -0.63051E-04 19938   0.347E-02    0.169E-01
RMM:   6    -0.671550437638E+03    0.25823E-04   -0.25912E-04 17405   0.240E-02    0.120E-01
RMM:   7    -0.671550491494E+03   -0.53856E-04   -0.15505E-04 15492   0.175E-02    0.748E-02
RMM:   8    -0.671550514120E+03   -0.22626E-04   -0.56518E-05 13545   0.122E-02
  10 F= -.67155051E+03 E0= -.67113934E+03  d E =-.531172E-01  mag=    79.9769
       N       E                     dE             d eps       ncg     rms          rms(c)
DAV:   1    -0.671552613461E+03   -0.21220E-02   -0.53113E-02 26208   0.238E-01    0.688E-02
RMM:   2    -0.671552754941E+03   -0.14148E-03   -0.11562E-03 19143   0.426E-02    0.574E-02
RMM:   3    -0.671552822405E+03   -0.67464E-04   -0.17647E-04 14827   0.191E-02    0.575E-02
RMM:   4    -0.671552826056E+03   -0.36508E-05   -0.41409E-05 13231   0.110E-02    0.320E-02
RMM:   5    -0.671552838467E+03   -0.12411E-04   -0.11264E-05 12220   0.564E-03    0.245E-02
RMM:   6    -0.671552848195E+03   -0.97281E-05   -0.51828E-06 11473   0.410E-03    0.155E-02
RMM:   7    -0.671552859085E+03   -0.10889E-04   -0.29105E-06  9586   0.305E-03    0.997E-03
RMM:   8    -0.671552867612E+03   -0.85277E-05   -0.63280E-07  7196   0.234E-03
  11 F= -.67155287E+03 E0= -.67114165E+03  d E =-.554706E-01  mag=    79.9766
       N       E                     dE             d eps       ncg     rms          rms(c)
DAV:   1    -0.671547948484E+03    0.49106E-02   -0.21557E+00 25456   0.137E+00    0.434E-01
RMM:   2    -0.671551872931E+03   -0.39244E-02   -0.44857E-02 23925   0.220E-01    0.266E-01
RMM:   3    -0.671553558881E+03   -0.16859E-02   -0.60286E-03 22134   0.894E-02    0.237E-01
RMM:   4    -0.671553456551E+03    0.10233E-03   -0.10728E-03 20477   0.480E-02    0.174E-01
RMM:   5    -0.671553475949E+03   -0.19398E-04   -0.38982E-04 17749   0.287E-02    0.115E-01
RMM:   6    -0.671553550193E+03   -0.74244E-04   -0.19485E-04 15805   0.181E-02    0.109E-01
RMM:   7    -0.671553556373E+03   -0.61807E-05   -0.10617E-04 14648   0.159E-02    0.830E-02
RMM:   8    -0.671553561702E+03   -0.53290E-05   -0.44245E-05 13237   0.108E-02
  12 F= -.67155356E+03 E0= -.67114267E+03  d E =-.694090E-03  mag=    79.9763
       N       E                     dE             d eps       ncg     rms          rms(c)
DAV:   1    -0.671565569858E+03   -0.12013E-01   -0.55750E-01 25280   0.694E-01    0.219E-01
RMM:   2    -0.671566709714E+03   -0.11399E-02   -0.11415E-02 22523   0.112E-01    0.141E-01
RMM:   3    -0.671567135626E+03   -0.42591E-03   -0.15051E-03 20188   0.469E-02    0.131E-01
RMM:   4    -0.671567115941E+03    0.19685E-04   -0.28569E-04 16561   0.252E-02    0.945E-02
RMM:   5    -0.671567118255E+03   -0.23143E-05   -0.10307E-04 14257   0.150E-02    0.688E-02
RMM:   6    -0.671567119991E+03   -0.17360E-05   -0.47258E-05 13244   0.102E-02    0.508E-02
RMM:   7    -0.671567124831E+03   -0.48401E-05   -0.32085E-05 12668   0.900E-03    0.383E-02
RMM:   8    -0.671567124970E+03   -0.13830E-06   -0.10559E-05 11787   0.563E-03
  13 F= -.67156712E+03 E0= -.67115608E+03  d E =-.142574E-01  mag=    79.9760
       N       E                     dE             d eps       ncg     rms          rms(c)
DAV:   1    -0.671569619274E+03   -0.24944E-02   -0.67140E-01 25488   0.881E-01    0.254E-01
RMM:   2    -0.671570786482E+03   -0.11672E-02   -0.15517E-02 23714   0.168E-01    0.191E-01
RMM:   3    -0.671571409610E+03   -0.62313E-03   -0.26312E-03 21705   0.687E-02    0.201E-01
RMM:   4    -0.671571258308E+03    0.15130E-03   -0.60882E-04 19213   0.389E-02    0.109E-01
RMM:   5    -0.671571279925E+03   -0.21616E-04   -0.24301E-04 16364   0.218E-02    0.777E-02
RMM:   6    -0.671571280042E+03   -0.11735E-06   -0.79280E-05 14027   0.125E-02    0.579E-02
RMM:   7    -0.671571300966E+03   -0.20924E-04   -0.41691E-05 13368   0.101E-02    0.566E-02
RMM:   8    -0.671571309171E+03   -0.82054E-05   -0.17650E-05 12841   0.712E-03
  14 F= -.67157131E+03 E0= -.67116052E+03  d E =-.418420E-02  mag=    79.9755
       N       E                     dE             d eps       ncg     rms          rms(c)
DAV:   1    -0.671575758711E+03   -0.44577E-02   -0.11666E-01 27120   0.368E-01    0.109E-01
RMM:   2    -0.671576009208E+03   -0.25050E-03   -0.27453E-03 21568   0.712E-02    0.869E-02
RMM:   3    -0.671576204657E+03   -0.19545E-03   -0.46393E-04 17713   0.297E-02    0.880E-02
RMM:   4    -0.671576215125E+03   -0.10468E-04   -0.11193E-04 14481   0.175E-02    0.466E-02
RMM:   5    -0.671576240913E+03   -0.25789E-04   -0.40134E-05 12951   0.962E-03    0.344E-02
RMM:   6    -0.671576238165E+03    0.27483E-05   -0.11982E-05 12147   0.556E-03    0.222E-02
RMM:   7    -0.671576238950E+03   -0.78464E-06   -0.74155E-06 11779   0.448E-03    0.243E-02
RMM:   8    -0.671576234246E+03    0.47041E-05   -0.27406E-06 10151   0.326E-03
  15 F= -.67157623E+03 E0= -.67116534E+03  d E =-.910928E-02  mag=    79.9752
       N       E                     dE             d eps       ncg     rms          rms(c)
DAV:   1    -0.671579564146E+03   -0.33252E-02   -0.98394E-02 26544   0.340E-01    0.101E-01
RMM:   2    -0.671579708369E+03   -0.14422E-03   -0.21153E-03 22073   0.585E-02    0.581E-02
RMM:   3    -0.671579806026E+03   -0.97657E-04   -0.27735E-04 16397   0.239E-02    0.488E-02
RMM:   4    -0.671579808505E+03   -0.24796E-05   -0.66321E-05 13900   0.136E-02    0.399E-02
RMM:   5    -0.671579808672E+03   -0.16717E-06   -0.20474E-05 12658   0.764E-03    0.224E-02
RMM:   6    -0.671579813516E+03   -0.48433E-05   -0.89772E-06 11634   0.454E-03    0.183E-02
RMM:   7    -0.671579816765E+03   -0.32489E-05   -0.50820E-06 11256   0.402E-03    0.164E-02
RMM:   8    -0.671579816540E+03    0.22445E-06   -0.18929E-06  9421   0.294E-03
  16 F= -.67157982E+03 E0= -.67116897E+03  d E =-.358229E-02  mag=    79.9747
       N       E                     dE             d eps       ncg     rms          rms(c)
DAV:   1    -0.671579847970E+03   -0.31205E-04   -0.11506E-03 24960   0.371E-02    0.119E-02
RMM:   2    -0.671579846951E+03    0.10189E-05   -0.26838E-05 13530   0.692E-03    0.163E-02
RMM:   3    -0.671579847663E+03   -0.71153E-06   -0.44033E-06 11236   0.398E-03    0.113E-02
RMM:   4    -0.671579846119E+03    0.15437E-05   -0.44057E-07  6324   0.220E-03    0.506E-03
RMM:   5    -0.671579845523E+03    0.59605E-06   -0.69295E-08  5025   0.198E-03    0.427E-03
RMM:   6    -0.671579845087E+03    0.43632E-06   -0.22228E-08  4870   0.190E-03    0.258E-03
RMM:   7    -0.671579845205E+03   -0.11828E-06   -0.41125E-08  4958   0.198E-03    0.218E-03
RMM:   8    -0.671579845496E+03   -0.29150E-06   -0.23701E-08  4861   0.198E-03
  17 F= -.67157985E+03 E0= -.67116899E+03  d E =-.361125E-02  mag=    79.9743
       N       E                     dE             d eps       ncg     rms          rms(c)
DAV:   1    -0.671582809254E+03   -0.29640E-02   -0.52637E-02 25936   0.249E-01    0.717E-02
RMM:   2    -0.671582879515E+03   -0.70261E-04   -0.10567E-03 19429   0.412E-02    0.477E-02
RMM:   3    -0.671582960901E+03   -0.81386E-04   -0.16429E-04 15579   0.183E-02    0.567E-02
RMM:   4    -0.671582953232E+03    0.76690E-05   -0.43488E-05 13368   0.110E-02    0.315E-02
RMM:   5    -0.671582958711E+03   -0.54794E-05   -0.13988E-05 12315   0.582E-03    0.243E-02
RMM:   6    -0.671582959134E+03   -0.42282E-06   -0.56743E-06 11305   0.417E-03    0.154E-02
RMM:   7    -0.671582962428E+03   -0.32936E-05   -0.37893E-06 10370   0.341E-03    0.114E-02
RMM:   8    -0.671582965118E+03   -0.26901E-05   -0.12366E-06  8089   0.261E-03
  18 F= -.67158297E+03 E0= -.67117211E+03  d E =-.311962E-02  mag=    79.9739
       N       E                     dE             d eps       ncg     rms          rms(c)
DAV:   1    -0.671583651911E+03   -0.68948E-03   -0.88635E-02 25632   0.323E-01    0.921E-02
RMM:   2    -0.671583773040E+03   -0.12113E-03   -0.17940E-03 20862   0.535E-02    0.607E-02
RMM:   3    -0.671583888728E+03   -0.11569E-03   -0.27505E-04 16561   0.234E-02    0.677E-02
RMM:   4    -0.671583876628E+03    0.12100E-04   -0.73490E-05 14037   0.142E-02    0.376E-02
RMM:   5    -0.671583882433E+03   -0.58049E-05   -0.23999E-05 12712   0.762E-03    0.281E-02
RMM:   6    -0.671583881404E+03    0.10286E-05   -0.98593E-06 12047   0.512E-03    0.220E-02
RMM:   7    -0.671583882991E+03   -0.15865E-05   -0.61477E-06 11476   0.415E-03    0.168E-02
RMM:   8    -0.671583884641E+03   -0.16498E-05   -0.23249E-06  9269   0.302E-03
  19 F= -.67158388E+03 E0= -.67117303E+03  d E =-.403914E-02  mag=    79.9735
       N       E                     dE             d eps       ncg     rms          rms(c)
DAV:   1    -0.671584002828E+03   -0.11984E-03   -0.65389E-03 27168   0.879E-02    0.254E-02
RMM:   2    -0.671584010203E+03   -0.73747E-05   -0.13399E-04 15015   0.147E-02    0.231E-02
RMM:   3    -0.671584024675E+03   -0.14472E-04   -0.21957E-05 12880   0.756E-03    0.249E-02
RMM:   4    -0.671584024137E+03    0.53784E-06   -0.47343E-06 10880   0.410E-03    0.107E-02
RMM:   5    -0.671584026231E+03   -0.20941E-05   -0.81430E-07  6899   0.230E-03    0.832E-03
RMM:   6    -0.671584028020E+03   -0.17891E-05   -0.33044E-07  6326   0.213E-03    0.567E-03
RMM:   7    -0.671584029269E+03   -0.12494E-05   -0.11658E-07  5384   0.199E-03    0.326E-03
RMM:   8    -0.671584030448E+03   -0.11781E-05   -0.58823E-08  5179   0.201E-03
  20 F= -.67158403E+03 E0= -.67117318E+03  d E =-.418495E-02  mag=    79.9730
       N       E                     dE             d eps       ncg     rms          rms(c)
DAV:   1    -0.671586500340E+03   -0.24711E-02   -0.25043E-02 25984   0.171E-01    0.539E-02
RMM:   2    -0.671586534304E+03   -0.33963E-04   -0.57655E-04 17888   0.305E-02    0.419E-02
RMM:   3    -0.671586559090E+03   -0.24787E-04   -0.89376E-05 14670   0.135E-02    0.428E-02
RMM:   4    -0.671586549662E+03    0.94287E-05   -0.23682E-05 12836   0.817E-03    0.263E-02
RMM:   5    -0.671586547817E+03    0.18445E-05   -0.94338E-06 11749   0.472E-03    0.216E-02
RMM:   6    -0.671586549698E+03   -0.18813E-05   -0.37936E-06 10494   0.351E-03    0.125E-02
RMM:   7    -0.671586556438E+03   -0.67400E-05   -0.22163E-06  9287   0.295E-03    0.828E-03
RMM:   8    -0.671586565298E+03   -0.88601E-05   -0.44594E-07  6578   0.225E-03
  21 F= -.67158657E+03 E0= -.67117574E+03  d E =-.253485E-02  mag=    79.9727
       N       E                     dE             d eps       ncg     rms          rms(c)
DAV:   1    -0.671588272209E+03   -0.17158E-02   -0.21879E-01 25168   0.506E-01    0.158E-01
RMM:   2    -0.671588689012E+03   -0.41680E-03   -0.50516E-03 23348   0.905E-02    0.124E-01
RMM:   3    -0.671588860990E+03   -0.17198E-03   -0.79227E-04 19397   0.382E-02    0.120E-01
RMM:   4    -0.671588805166E+03    0.55823E-04   -0.20281E-04 16162   0.229E-02    0.760E-02
RMM:   5    -0.671588800470E+03    0.46962E-05   -0.88547E-05 14206   0.136E-02    0.641E-02
RMM:   6    -0.671588794173E+03    0.62971E-05   -0.33508E-05 13449   0.931E-03    0.388E-02
RMM:   7    -0.671588809082E+03   -0.14910E-04   -0.22362E-05 12634   0.754E-03    0.254E-02
RMM:   8    -0.671588830912E+03   -0.21829E-04   -0.73159E-06 11744   0.482E-03
  22 F= -.67158883E+03 E0= -.67117807E+03  d E =-.480046E-02  mag=    79.9723
       N       E                     dE             d eps       ncg     rms          rms(c)
DAV:   1    -0.671589029067E+03   -0.21998E-03   -0.12872E-02 26912   0.123E-01    0.391E-02
RMM:   2    -0.671589076404E+03   -0.47337E-04   -0.29859E-04 16342   0.221E-02    0.358E-02
RMM:   3    -0.671589107362E+03   -0.30958E-04   -0.47495E-05 14053   0.103E-02    0.379E-02
RMM:   4    -0.671589113718E+03   -0.63563E-05   -0.10847E-05 12522   0.581E-03    0.183E-02
RMM:   5    -0.671589126654E+03   -0.12935E-04   -0.40809E-06 10393   0.338E-03    0.147E-02
RMM:   6    -0.671589140154E+03   -0.13500E-04   -0.21513E-06  9535   0.301E-03    0.991E-03
RMM:   7    -0.671589145382E+03   -0.52280E-05   -0.96382E-07  7939   0.246E-03    0.463E-03
RMM:   8    -0.671589149177E+03   -0.37951E-05   -0.83589E-08  5558   0.201E-03
  23 F= -.67158915E+03 E0= -.67117838E+03  d E =-.511873E-02  mag=    79.9720
       N       E                     dE             d eps       ncg     rms          rms(c)
DAV:   1    -0.671591369382E+03   -0.22240E-02   -0.77213E-03 26352   0.947E-02    0.324E-02
RMM:   2    -0.671591377115E+03   -0.77332E-05   -0.16039E-04 15384   0.167E-02    0.221E-02
RMM:   3    -0.671591387707E+03   -0.10592E-04   -0.22067E-05 13557   0.752E-03    0.225E-02
RMM:   4    -0.671591385173E+03    0.25337E-05   -0.53267E-06 11491   0.418E-03    0.158E-02
RMM:   5    -0.671591384765E+03    0.40792E-06   -0.17686E-06  8531   0.269E-03    0.109E-02
RMM:   6    -0.671591386985E+03   -0.22198E-05   -0.55495E-07  6728   0.233E-03    0.547E-03
RMM:   7    -0.671591390979E+03   -0.39935E-05   -0.34118E-07  6015   0.219E-03    0.416E-03
RMM:   8    -0.671591394629E+03   -0.36508E-05   -0.55230E-08  5009   0.206E-03
  24 F= -.67159139E+03 E0= -.67118064E+03  d E =-.224545E-02  mag=    79.9717
       N       E                     dE             d eps       ncg     rms          rms(c)
DAV:   1    -0.671595312598E+03   -0.39216E-02   -0.69159E-02 25168   0.283E-01    0.972E-02
RMM:   2    -0.671595410033E+03   -0.97435E-04   -0.14205E-03 21033   0.500E-02    0.646E-02
RMM:   3    -0.671595480263E+03   -0.70230E-04   -0.20958E-04 15975   0.212E-02    0.654E-02
RMM:   4    -0.671595467174E+03    0.13088E-04   -0.61512E-05 14440   0.135E-02    0.450E-02
RMM:   5    -0.671595464850E+03    0.23241E-05   -0.22534E-05 13075   0.736E-03    0.345E-02
RMM:   6    -0.671595465206E+03   -0.35530E-06   -0.88743E-06 12251   0.517E-03    0.176E-02
RMM:   7    -0.671595475343E+03   -0.10137E-04   -0.60348E-06 11395   0.416E-03    0.148E-02
RMM:   8    -0.671595484148E+03   -0.88052E-05   -0.21563E-06  9644   0.309E-03
  25 F= -.67159548E+03 E0= -.67118476E+03  d E =-.633497E-02  mag=    79.9714
       N       E                     dE             d eps       ncg     rms          rms(c)
DAV:   1    -0.671596037162E+03   -0.56182E-03   -0.12446E-02 26112   0.120E-01    0.414E-02
RMM:   2    -0.671596052950E+03   -0.15788E-04   -0.25707E-04 16104   0.214E-02    0.284E-02
RMM:   3    -0.671596069813E+03   -0.16863E-04   -0.38428E-05 14327   0.995E-03    0.272E-02
RMM:   4    -0.671596068419E+03    0.13947E-05   -0.11723E-05 12006   0.594E-03    0.170E-02
RMM:   5    -0.671596070696E+03   -0.22775E-05   -0.37828E-06 10180   0.351E-03    0.105E-02
RMM:   6    -0.671596076222E+03   -0.55255E-05   -0.13728E-06  7530   0.255E-03    0.672E-03
RMM:   7    -0.671596082589E+03   -0.63675E-05   -0.72665E-07  6812   0.239E-03    0.624E-03
RMM:   8    -0.671596086429E+03   -0.38394E-05   -0.13315E-07  5414   0.209E-03
  26 F= -.67159609E+03 E0= -.67118538E+03  d E =-.693725E-02  mag=    79.9711
       N       E                     dE             d eps       ncg     rms          rms(c)
DAV:   1    -0.671596233655E+03   -0.15107E-03   -0.49845E-02 24848   0.240E-01    0.828E-02
RMM:   2    -0.671596303347E+03   -0.69691E-04   -0.10268E-03 19935   0.427E-02    0.579E-02
RMM:   3    -0.671596365701E+03   -0.62354E-04   -0.15659E-04 15524   0.187E-02    0.676E-02
RMM:   4    -0.671596347135E+03    0.18566E-04   -0.45065E-05 14053   0.117E-02    0.358E-02
RMM:   5    -0.671596348749E+03   -0.16140E-05   -0.16491E-05 12771   0.609E-03    0.288E-02
RMM:   6    -0.671596351359E+03   -0.26105E-05   -0.73241E-06 11871   0.480E-03    0.150E-02
RMM:   7    -0.671596359902E+03   -0.85426E-05   -0.46488E-06 10888   0.380E-03    0.127E-02
RMM:   8    -0.671596367854E+03   -0.79526E-05   -0.16011E-06  8901   0.285E-03
  27 F= -.67159637E+03 E0= -.67118569E+03  d E =-.721868E-02  mag=    79.9709
       N       E                     dE             d eps       ncg     rms          rms(c)
DAV:   1    -0.671600816681E+03   -0.44568E-02   -0.33149E-02 25232   0.199E-01    0.588E-02
RMM:   2    -0.671600873252E+03   -0.56571E-04   -0.75870E-04 18676   0.353E-02    0.401E-02
RMM:   3    -0.671600922856E+03   -0.49605E-04   -0.10320E-04 15052   0.146E-02    0.306E-02
RMM:   4    -0.671600925666E+03   -0.28093E-05   -0.25076E-05 13396   0.850E-03    0.279E-02
RMM:   5    -0.671600929185E+03   -0.35195E-05   -0.95013E-06 12301   0.546E-03    0.166E-02
RMM:   6    -0.671600932571E+03   -0.33858E-05   -0.44277E-06 10838   0.370E-03    0.118E-02
RMM:   7    -0.671600935942E+03   -0.33705E-05   -0.13181E-06  8601   0.271E-03    0.906E-03
RMM:   8    -0.671600937260E+03   -0.13183E-05   -0.22527E-07  6116   0.222E-03
  28 F= -.67160094E+03 E0= -.67119024E+03  d E =-.456941E-02  mag=    79.9706
       N       E                     dE             d eps       ncg     rms          rms(c)
DAV:   1    -0.671603617013E+03   -0.26811E-02   -0.72907E-02 25760   0.295E-01    0.872E-02
RMM:   2    -0.671603713258E+03   -0.96244E-04   -0.16611E-03 21414   0.521E-02    0.581E-02
RMM:   3    -0.671603796425E+03   -0.83168E-04   -0.22857E-04 15933   0.208E-02    0.541E-02
RMM:   4    -0.671603795876E+03    0.54948E-06   -0.54113E-05 14586   0.122E-02    0.511E-02
RMM:   5    -0.671603790726E+03    0.51502E-05   -0.19607E-05 13247   0.714E-03    0.274E-02
RMM:   6    -0.671603792438E+03   -0.17127E-05   -0.10358E-05 12409   0.536E-03    0.195E-02
RMM:   7    -0.671603798269E+03   -0.58305E-05   -0.52167E-06 11801   0.421E-03    0.133E-02
RMM:   8    -0.671603802973E+03   -0.47041E-05   -0.19793E-06  9737   0.298E-03
  29 F= -.67160380E+03 E0= -.67119307E+03  d E =-.743512E-02  mag=    79.9704
       N       E                     dE             d eps       ncg     rms          rms(c)
DAV:   1    -0.671606389732E+03   -0.25915E-02   -0.19509E-02 26784   0.148E-01    0.491E-02
RMM:   2    -0.671606424553E+03   -0.34821E-04   -0.47015E-04 16743   0.270E-02    0.318E-02
RMM:   3    -0.671606445243E+03   -0.20690E-04   -0.57119E-05 14767   0.119E-02    0.336E-02
RMM:   4    -0.671606442130E+03    0.31125E-05   -0.15857E-05 12753   0.694E-03    0.210E-02
RMM:   5    -0.671606440173E+03    0.19572E-05   -0.49880E-06 11343   0.407E-03    0.148E-02
RMM:   6    -0.671606438706E+03    0.14668E-05   -0.18105E-06  9275   0.282E-03    0.114E-02
RMM:   7    -0.671606438127E+03    0.57928E-06   -0.89775E-07  7959   0.252E-03    0.865E-03
RMM:   8    -0.671606438007E+03    0.11967E-06   -0.73819E-08  5462   0.211E-03
  30 F= -.67160644E+03 E0= -.67119571E+03  d E =-.263503E-02  mag=    79.9701
       N       E                     dE             d eps       ncg     rms          rms(c)
DAV:   1    -0.671608783771E+03   -0.23456E-02   -0.16873E-01 25952   0.434E-01    0.144E-01
RMM:   2    -0.671609083757E+03   -0.29999E-03   -0.39987E-03 23868   0.786E-02    0.927E-02
RMM:   3    -0.671609233484E+03   -0.14973E-03   -0.50082E-04 18020   0.319E-02    0.106E-01
RMM:   4    -0.671609201604E+03    0.31881E-04   -0.12929E-04 15354   0.197E-02    0.669E-02
RMM:   5    -0.671609191872E+03    0.97314E-05   -0.45606E-05 14193   0.108E-02    0.504E-02
RMM:   6    -0.671609175335E+03    0.16537E-04   -0.22677E-05 13339   0.803E-03    0.319E-02
RMM:   7    -0.671609166793E+03    0.85426E-05   -0.15145E-05 12501   0.635E-03    0.223E-02
RMM:   8    -0.671609161560E+03    0.52326E-05   -0.49263E-06 11344   0.424E-03
  31 F= -.67160916E+03 E0= -.67119845E+03  d E =-.535859E-02  mag=    79.9696
       N       E                     dE             d eps       ncg     rms          rms(c)
DAV:   1    -0.671611533811E+03   -0.23670E-02   -0.42465E-02 26400   0.222E-01    0.707E-02
RMM:   2    -0.671611598245E+03   -0.64434E-04   -0.11149E-03 19416   0.409E-02    0.435E-02
RMM:   3    -0.671611654002E+03   -0.55757E-04   -0.13999E-04 15251   0.175E-02    0.555E-02
RMM:   4    -0.671611642781E+03    0.11221E-04   -0.36888E-05 14223   0.107E-02    0.296E-02
RMM:   5    -0.671611639387E+03    0.33942E-05   -0.95042E-06 12540   0.522E-03    0.251E-02
RMM:   6    -0.671611634922E+03    0.44643E-05   -0.48936E-06 11845   0.418E-03    0.140E-02
RMM:   7    -0.671611637030E+03   -0.21080E-05   -0.26233E-06 10203   0.302E-03    0.861E-03
RMM:   8    -0.671611640001E+03   -0.29709E-05   -0.51722E-07  7178   0.237E-03
  32 F= -.67161164E+03 E0= -.67120089E+03  d E =-.247844E-02  mag=    79.9692
       N       E                     dE             d eps       ncg     rms          rms(c)
DAV:   1    -0.671613359726E+03   -0.17227E-02   -0.30416E-01 25680   0.593E-01    0.187E-01
RMM:   2    -0.671613975445E+03   -0.61572E-03   -0.79280E-03 24102   0.109E-01    0.111E-01
RMM:   3    -0.671614304957E+03   -0.32951E-03   -0.96685E-04 20584   0.431E-02    0.139E-01
RMM:   4    -0.671614231447E+03    0.73510E-04   -0.22842E-04 16487   0.242E-02    0.858E-02
RMM:   5    -0.671614195967E+03    0.35480E-04   -0.68308E-05 14743   0.140E-02    0.565E-02
RMM:   6    -0.671614178995E+03    0.16972E-04   -0.37855E-05 14111   0.106E-02    0.373E-02
RMM:   7    -0.671614182754E+03   -0.37597E-05   -0.22596E-05 13535   0.746E-03    0.230E-02
RMM:   8    -0.671614192305E+03   -0.95507E-05   -0.78962E-06 12339   0.511E-03
  33 F= -.67161419E+03 E0= -.67120336E+03  d E =-.503075E-02  mag=    79.9687
       N       E                     dE             d eps       ncg     rms          rms(c)
DAV:   1    -0.671615954329E+03   -0.17716E-02   -0.17348E-02 26816   0.130E-01    0.482E-02
RMM:   2    -0.671615996395E+03   -0.42066E-04   -0.48352E-04 16399   0.252E-02    0.332E-02
RMM:   3    -0.671616017815E+03   -0.21420E-04   -0.62590E-05 14701   0.119E-02    0.401E-02
RMM:   4    -0.671616011946E+03    0.58683E-05   -0.17112E-05 12933   0.718E-03    0.204E-02
RMM:   5    -0.671616012138E+03   -0.19139E-06   -0.40555E-06 11159   0.365E-03    0.188E-02
RMM:   6    -0.671616013360E+03   -0.12219E-05   -0.20236E-06 10217   0.303E-03    0.942E-03
RMM:   7    -0.671616022464E+03   -0.91041E-05   -0.65334E-07  6988   0.233E-03    0.583E-03
RMM:   8    -0.671616029612E+03   -0.71479E-05   -0.65901E-08  5677   0.211E-03
  34 F= -.67161603E+03 E0= -.67120517E+03  d E =-.183731E-02  mag=    79.9683
       N       E                     dE             d eps       ncg     rms          rms(c)
DAV:   1    -0.671621103933E+03   -0.50815E-02   -0.15677E-01 26256   0.390E-01    0.144E-01
RMM:   2    -0.671621459671E+03   -0.35574E-03   -0.42509E-03 23359   0.738E-02    0.891E-02
RMM:   3    -0.671621627714E+03   -0.16804E-03   -0.52032E-04 17484   0.296E-02    0.113E-01
RMM:   4    -0.671621569137E+03    0.58577E-04   -0.13194E-04 15147   0.187E-02    0.678E-02
RMM:   5    -0.671621543988E+03    0.25149E-04   -0.43967E-05 14333   0.108E-02    0.458E-02
RMM:   6    -0.671621533359E+03    0.10629E-04   -0.21778E-05 13489   0.836E-03    0.277E-02
RMM:   7    -0.671621542965E+03   -0.96052E-05   -0.13275E-05 12691   0.593E-03    0.197E-02
RMM:   8    -0.671621553614E+03   -0.10649E-04   -0.45367E-06 11797   0.411E-03
  35 F= -.67162155E+03 E0= -.67121062E+03  d E =-.736131E-02  mag=    79.9679
       N       E                     dE             d eps       ncg     rms          rms(c)
DAV:   1    -0.671628260031E+03   -0.67171E-02   -0.62610E-01 25568   0.780E-01    0.288E-01
RMM:   2    -0.671629805767E+03   -0.15457E-02   -0.16886E-02 24320   0.148E-01    0.179E-01
RMM:   3    -0.671630421077E+03   -0.61531E-03   -0.21301E-03 23013   0.598E-02    0.227E-01
RMM:   4    -0.671630195321E+03    0.22576E-03   -0.45578E-04 19433   0.344E-02    0.133E-01
RMM:   5    -0.671630124314E+03    0.71007E-04   -0.16281E-04 15914   0.199E-02    0.941E-02
RMM:   6    -0.671630091529E+03    0.32784E-04   -0.90608E-05 14819   0.166E-02    0.563E-02
RMM:   7    -0.671630118355E+03   -0.26826E-04   -0.54829E-05 14546   0.116E-02    0.375E-02
RMM:   8    -0.671630140350E+03   -0.21995E-04   -0.17753E-05 13279   0.750E-03
  36 F= -.67163014E+03 E0= -.67121904E+03  d E =-.159480E-01  mag=    79.9676
       N       E                     dE             d eps       ncg     rms          rms(c)
DAV:   1    -0.671632257974E+03   -0.21396E-02   -0.25004E+00 25120   0.156E+00    0.585E-01
RMM:   2    -0.671638662705E+03   -0.64047E-02   -0.66113E-02 24320   0.292E-01    0.359E-01
RMM:   3    -0.671640957432E+03   -0.22947E-02   -0.84589E-03 24345   0.118E-01    0.451E-01
RMM:   4    -0.671640188347E+03    0.76909E-03   -0.17625E-03 23178   0.672E-02    0.281E-01
RMM:   5    -0.671639944601E+03    0.24375E-03   -0.65644E-04 21038   0.382E-02    0.191E-01
RMM:   6    -0.671639831503E+03    0.11310E-03   -0.32338E-04 19021   0.302E-02    0.110E-01
RMM:   7    -0.671639930809E+03   -0.99306E-04   -0.21308E-04 16657   0.224E-02    0.748E-02
RMM:   8    -0.671639980451E+03   -0.49641E-04   -0.67052E-05 14721   0.144E-02
  37 F= -.67163998E+03 E0= -.67122855E+03  d E =-.257881E-01  mag=    79.9674
       N       E                     dE             d eps       ncg     rms          rms(c)
DAV:   1    -0.671637599471E+03    0.23313E-02   -0.33421E-01 26656   0.565E-01    0.225E-01
RMM:   2    -0.671638468479E+03   -0.86901E-03   -0.89832E-03 24246   0.107E-01    0.142E-01
RMM:   3    -0.671638929750E+03   -0.46127E-03   -0.11693E-03 20943   0.445E-02    0.169E-01
RMM:   4    -0.671638899956E+03    0.29794E-04   -0.27620E-04 17268   0.279E-02    0.114E-01
RMM:   5    -0.671638955364E+03   -0.55408E-04   -0.10467E-04 15188   0.158E-02    0.761E-02
RMM:   6    -0.671638982810E+03   -0.27446E-04   -0.53002E-05 14275   0.125E-02    0.470E-02
RMM:   7    -0.671639020423E+03   -0.37613E-04   -0.31944E-05 13505   0.933E-03    0.310E-02
RMM:   8    -0.671639036936E+03   -0.16512E-04   -0.96003E-06 12479   0.570E-03
  38 F= -.67163904E+03 E0= -.67122772E+03  d E =-.248446E-01  mag=    79.9672
       N       E                     dE             d eps       ncg     rms          rms(c)
DAV:   1    -0.671640108185E+03   -0.10878E-02   -0.15865E-01 27376   0.391E-01    0.153E-01
RMM:   2    -0.671640478778E+03   -0.37059E-03   -0.42458E-03 23344   0.734E-02    0.970E-02
RMM:   3    -0.671640669794E+03   -0.19102E-03   -0.52929E-04 17652   0.299E-02    0.128E-01
RMM:   4    -0.671640592772E+03    0.77022E-04   -0.14461E-04 15175   0.191E-02    0.755E-02
RMM:   5    -0.671640562892E+03    0.29880E-04   -0.51832E-05 14344   0.115E-02    0.490E-02
RMM:   6    -0.671640553263E+03    0.96299E-05   -0.26435E-05 13364   0.901E-03    0.298E-02
RMM:   7    -0.671640566193E+03   -0.12930E-04   -0.14857E-05 12719   0.620E-03    0.210E-02
RMM:   8    -0.671640580788E+03   -0.14595E-04   -0.46464E-06 11424   0.413E-03
  39 F= -.67164058E+03 E0= -.67122919E+03  d E =-.263885E-01  mag=    79.9670
       N       E                     dE             d eps       ncg     rms          rms(c)
DAV:   1    -0.671641814619E+03   -0.12484E-02   -0.66565E-03 27344   0.799E-02    0.331E-02
RMM:   2    -0.671641845346E+03   -0.30727E-04   -0.17376E-04 15160   0.150E-02    0.246E-02
RMM:   3    -0.671641860524E+03   -0.15178E-04   -0.24824E-05 13996   0.782E-03    0.316E-02
RMM:   4    -0.671641860688E+03   -0.16391E-06   -0.64524E-06 11934   0.464E-03    0.149E-02
RMM:   5    -0.671641867168E+03   -0.64801E-05   -0.14597E-06  8902   0.270E-03    0.137E-02
RMM:   6    -0.671641875130E+03   -0.79623E-05   -0.67254E-07  7699   0.238E-03    0.531E-03
RMM:   7    -0.671641887523E+03   -0.12393E-04   -0.15186E-07  5572   0.196E-03    0.453E-03
RMM:   8    -0.671641896035E+03   -0.85118E-05   -0.26712E-08  5107   0.191E-03
  40 F= -.67164190E+03 E0= -.67123048E+03  d E =-.131525E-02  mag=    79.9668
       N       E                     dE             d eps       ncg     rms          rms(c)
DAV:   1    -0.671644436174E+03   -0.25487E-02   -0.60170E-02 26208   0.239E-01    0.961E-02
RMM:   2    -0.671644566536E+03   -0.13036E-03   -0.15232E-03 20235   0.436E-02    0.575E-02
RMM:   3    -0.671644634808E+03   -0.68272E-04   -0.18459E-04 15368   0.184E-02    0.704E-02
RMM:   4    -0.671644618034E+03    0.16774E-04   -0.51685E-05 14547   0.121E-02    0.471E-02
RMM:   5    -0.671644607106E+03    0.10929E-04   -0.16904E-05 13279   0.674E-03    0.319E-02
RMM:   6    -0.671644604261E+03    0.28452E-05   -0.89321E-06 12368   0.551E-03    0.192E-02
RMM:   7    -0.671644612968E+03   -0.87069E-05   -0.48737E-06 11795   0.395E-03    0.114E-02
RMM:   8    -0.671644622414E+03   -0.94469E-05   -0.11970E-06  8956   0.267E-03
  41 F= -.67164462E+03 E0= -.67123317E+03  d E =-.404163E-02  mag=    79.9667
       N       E                     dE             d eps       ncg     rms          rms(c)
DAV:   1    -0.671647216634E+03   -0.26037E-02   -0.24098E-01 25312   0.477E-01    0.188E-01
RMM:   2    -0.671647738455E+03   -0.52182E-03   -0.59716E-03 23747   0.868E-02    0.112E-01
RMM:   3    -0.671647983202E+03   -0.24475E-03   -0.73011E-04 19074   0.358E-02    0.140E-01
RMM:   4    -0.671647913586E+03    0.69616E-04   -0.19386E-04 15884   0.230E-02    0.900E-02
RMM:   5    -0.671647875384E+03    0.38202E-04   -0.64826E-05 14765   0.132E-02    0.600E-02
RMM:   6    -0.671647861589E+03    0.13795E-04   -0.35387E-05 14141   0.104E-02    0.370E-02
RMM:   7    -0.671647873181E+03   -0.11592E-04   -0.18815E-05 13212   0.721E-03    0.217E-02
RMM:   8    -0.671647886879E+03   -0.13698E-04   -0.62641E-06 12201   0.467E-03
  42 F= -.67164789E+03 E0= -.67123635E+03  d E =-.730609E-02  mag=    79.9665
       N       E                     dE             d eps       ncg     rms          rms(c)
DAV:   1    -0.671652078105E+03   -0.42049E-02   -0.41264E-03 26864   0.712E-02    0.196E-02
RMM:   2    -0.671652106503E+03   -0.28398E-04   -0.96473E-05 14784   0.127E-02    0.203E-02
RMM:   3    -0.671652116418E+03   -0.99144E-05   -0.14222E-05 13112   0.636E-03    0.149E-02
RMM:   4    -0.671652124991E+03   -0.85733E-05   -0.26389E-06 10777   0.327E-03    0.893E-03
RMM:   5    -0.671652134456E+03   -0.94646E-05   -0.45935E-07  6204   0.215E-03    0.756E-03
RMM:   6    -0.671652145086E+03   -0.10630E-04   -0.25092E-07  6020   0.214E-03    0.629E-03
RMM:   7    -0.671652154715E+03   -0.96289E-05   -0.10266E-07  5429   0.202E-03    0.289E-03
RMM:   8    -0.671652163169E+03   -0.84545E-05   -0.45421E-08  5152   0.205E-03
  43 F= -.67165216E+03 E0= -.67124063E+03  d E =-.427629E-02  mag=    79.9664
       N       E                     dE             d eps       ncg     rms          rms(c)
DAV:   1    -0.671663707869E+03   -0.11553E-01   -0.37086E-02 26416   0.212E-01    0.561E-02
RMM:   2    -0.671663793691E+03   -0.85822E-04   -0.84000E-04 18948   0.370E-02    0.404E-02
RMM:   3    -0.671663830808E+03   -0.37117E-04   -0.12620E-04 15112   0.164E-02    0.471E-02
RMM:   4    -0.671663829434E+03    0.13737E-05   -0.29043E-05 13461   0.943E-03    0.217E-02
RMM:   5    -0.671663838409E+03   -0.89752E-05   -0.94792E-06 12119   0.486E-03    0.173E-02
RMM:   6    -0.671663845249E+03   -0.68392E-05   -0.45332E-06 10233   0.355E-03    0.111E-02
RMM:   7    -0.671663852260E+03   -0.70110E-05   -0.23220E-06  9683   0.306E-03    0.122E-02
RMM:   8    -0.671663855777E+03   -0.35171E-05   -0.67131E-07  7369   0.245E-03
  44 F= -.67166386E+03 E0= -.67125236E+03  d E =-.159689E-01  mag=    79.9662
       N       E                     dE             d eps       ncg     rms          rms(c)
DAV:   1    -0.671683526665E+03   -0.19674E-01   -0.14855E-01 26320   0.424E-01    0.112E-01
RMM:   2    -0.671683777913E+03   -0.25125E-03   -0.33432E-03 23723   0.740E-02    0.807E-02
RMM:   3    -0.671683882841E+03   -0.10493E-03   -0.51255E-04 18053   0.316E-02    0.939E-02
RMM:   4    -0.671683853797E+03    0.29044E-04   -0.11335E-04 15200   0.184E-02    0.449E-02
RMM:   5    -0.671683865429E+03   -0.11632E-04   -0.38067E-05 13545   0.935E-03    0.392E-02
RMM:   6    -0.671683872532E+03   -0.71027E-05   -0.17704E-05 12989   0.647E-03    0.299E-02
RMM:   7    -0.671683879144E+03   -0.66124E-05   -0.11875E-05 12513   0.557E-03    0.249E-02
RMM:   8    -0.671683884293E+03   -0.51493E-05   -0.49254E-06 11417   0.409E-03
  45 F= -.67168388E+03 E0= -.67127244E+03  d E =-.359974E-01  mag=    79.9659
       N       E                     dE             d eps       ncg     rms          rms(c)
DAV:   1    -0.671710125138E+03   -0.26246E-01   -0.59432E-01 26144   0.850E-01    0.225E-01
RMM:   2    -0.671711072499E+03   -0.94736E-03   -0.13379E-02 24182   0.148E-01    0.161E-01
RMM:   3    -0.671711425027E+03   -0.35253E-03   -0.20439E-03 22652   0.628E-02    0.179E-01
RMM:   4    -0.671711304939E+03    0.12009E-03   -0.43477E-04 18724   0.340E-02    0.841E-02
RMM:   5    -0.671711331816E+03   -0.26877E-04   -0.16570E-04 15978   0.185E-02    0.649E-02
RMM:   6    -0.671711347464E+03   -0.15647E-04   -0.80566E-05 14595   0.127E-02    0.475E-02
RMM:   7    -0.671711369889E+03   -0.22426E-04   -0.42567E-05 13808   0.107E-02    0.512E-02
RMM:   8    -0.671711371735E+03   -0.18454E-05   -0.17042E-05 12969   0.697E-03
  46 F= -.67171137E+03 E0= -.67130004E+03  d E =-.634849E-01  mag=    79.9654
       N       E                     dE             d eps       ncg     rms          rms(c)
DAV:   1    -0.671674962181E+03    0.36408E-01   -0.23759E+00 25536   0.171E+00    0.452E-01
RMM:   2    -0.671678853600E+03   -0.38914E-02   -0.53978E-02 24320   0.296E-01    0.327E-01
RMM:   3    -0.671680413049E+03   -0.15594E-02   -0.82548E-03 24242   0.125E-01    0.354E-01
RMM:   4    -0.671679971106E+03    0.44194E-03   -0.16835E-03 22850   0.670E-02    0.172E-01
RMM:   5    -0.671680072242E+03   -0.10114E-03   -0.68161E-04 21128   0.347E-02    0.135E-01
RMM:   6    -0.671680125983E+03   -0.53741E-04   -0.32444E-04 18369   0.232E-02    0.124E-01
RMM:   7    -0.671680152539E+03   -0.26555E-04   -0.17542E-04 16388   0.195E-02    0.103E-01
RMM:   8    -0.671680132362E+03    0.20177E-04   -0.63250E-05 14707   0.125E-02
  47 F= -.67168013E+03 E0= -.67126905E+03  d E =-.322455E-01  mag=    79.9646
       N       E                     dE             d eps       ncg     rms          rms(c)
DAV:   1    -0.671712354996E+03   -0.32202E-01   -0.12936E+00 26528   0.126E+00    0.337E-01
RMM:   2    -0.671715014999E+03   -0.26600E-02   -0.29413E-02 24311   0.219E-01    0.250E-01
RMM:   3    -0.671716022147E+03   -0.10071E-02   -0.45058E-03 23762   0.937E-02    0.268E-01
RMM:   4    -0.671715868623E+03    0.15352E-03   -0.91000E-04 21154   0.502E-02    0.125E-01
RMM:   5    -0.671715983780E+03   -0.11516E-03   -0.34228E-04 18156   0.262E-02    0.962E-02
RMM:   6    -0.671716038655E+03   -0.54875E-04   -0.17537E-04 15993   0.175E-02    0.615E-02
RMM:   7    -0.671716094696E+03   -0.56041E-04   -0.80170E-05 14743   0.142E-02    0.712E-02
RMM:   8    -0.671716098260E+03   -0.35637E-05   -0.33653E-05 13577   0.996E-03
  48 F= -.67171610E+03 E0= -.67130487E+03  d E =-.682114E-01  mag=    79.9640
       N       E                     dE             d eps       ncg     rms          rms(c)
DAV:   1    -0.671731567614E+03   -0.15473E-01   -0.15465E-01 26960   0.407E-01    0.108E-01
RMM:   2    -0.671731859180E+03   -0.29157E-03   -0.30851E-03 22509   0.668E-02    0.835E-02
RMM:   3    -0.671731966933E+03   -0.10775E-03   -0.41823E-04 17370   0.279E-02    0.955E-02
RMM:   4    -0.671731938564E+03    0.28369E-04   -0.94950E-05 14711   0.161E-02    0.553E-02
RMM:   5    -0.671731936996E+03    0.15683E-05   -0.33637E-05 13293   0.869E-03    0.354E-02
RMM:   6    -0.671731944369E+03   -0.73733E-05   -0.16351E-05 12493   0.650E-03    0.238E-02
RMM:   7    -0.671731953140E+03   -0.87712E-05   -0.10607E-05 12014   0.552E-03    0.200E-02
RMM:   8    -0.671731957707E+03   -0.45667E-05   -0.38383E-06 10865   0.393E-03
  49 F= -.67173196E+03 E0= -.67132078E+03  d E =-.158594E-01  mag=    79.9634
       N       E                     dE             d eps       ncg     rms          rms(c)
DAV:   1    -0.671736644594E+03   -0.46915E-02   -0.80917E-02 26336   0.294E-01    0.786E-02
RMM:   2    -0.671736785293E+03   -0.14070E-03   -0.16348E-03 20607   0.487E-02    0.591E-02
RMM:   3    -0.671736837067E+03   -0.51774E-04   -0.22829E-04 15951   0.209E-02    0.621E-02
RMM:   4    -0.671736824590E+03    0.12477E-04   -0.56797E-05 13785   0.126E-02    0.318E-02
RMM:   5    -0.671736828149E+03   -0.35590E-05   -0.19579E-05 12503   0.681E-03    0.243E-02
RMM:   6    -0.671736831443E+03   -0.32941E-05   -0.90010E-06 11688   0.473E-03    0.165E-02
RMM:   7    -0.671736836396E+03   -0.49532E-05   -0.50420E-06 11222   0.402E-03    0.184E-02
RMM:   8    -0.671736837472E+03   -0.10761E-05   -0.17770E-06  9282   0.295E-03
  50 F= -.67173684E+03 E0= -.67132570E+03  d E =-.207392E-01  mag=    79.9627
       N       E                     dE             d eps       ncg     rms          rms(c)
DAV:   1    -0.671737386836E+03   -0.55044E-03   -0.14484E-02 26960   0.125E-01    0.333E-02
RMM:   2    -0.671737409094E+03   -0.22258E-04   -0.29768E-04 15906   0.206E-02    0.264E-02
RMM:   3    -0.671737420151E+03   -0.11058E-04   -0.39708E-05 13700   0.934E-03    0.271E-02
RMM:   4    -0.671737417433E+03    0.27185E-05   -0.92919E-06 11925   0.527E-03    0.154E-02
RMM:   5    -0.671737419836E+03   -0.24028E-05   -0.30586E-06  9577   0.310E-03    0.127E-02
RMM:   6    -0.671737421818E+03   -0.19823E-05   -0.12103E-06  7737   0.255E-03    0.886E-03
RMM:   7    -0.671737424388E+03   -0.25695E-05   -0.69179E-07  6813   0.232E-03    0.583E-03
RMM:   8    -0.671737426465E+03   -0.20778E-05   -0.98498E-08  5237   0.213E-03
  51 F= -.67173743E+03 E0= -.67132632E+03  d E =-.213282E-01  mag=    79.9621
       N       E                     dE             d eps       ncg     rms          rms(c)
DAV:   1    -0.671750212823E+03   -0.12788E-01   -0.87070E-02 25472   0.324E-01    0.113E-01
RMM:   2    -0.671750333649E+03   -0.12083E-03   -0.22335E-03 22056   0.601E-02    0.782E-02
RMM:   3    -0.671750438800E+03   -0.10515E-03   -0.35165E-04 17088   0.272E-02    0.961E-02
RMM:   4    -0.671750416523E+03    0.22277E-04   -0.90935E-05 14251   0.164E-02    0.350E-02
RMM:   5    -0.671750441706E+03   -0.25183E-04   -0.26710E-05 13166   0.787E-03    0.358E-02
RMM:   6    -0.671750448528E+03   -0.68219E-05   -0.11185E-05 12416   0.572E-03    0.262E-02
RMM:   7    -0.671750457320E+03   -0.87922E-05   -0.65224E-06 11815   0.420E-03    0.165E-02
RMM:   8    -0.671750464106E+03   -0.67856E-05   -0.25553E-06  9939   0.306E-03
  52 F= -.67175046E+03 E0= -.67133935E+03  d E =-.130376E-01  mag=    79.9616
       N       E                     dE             d eps       ncg     rms          rms(c)
DAV:   1    -0.671755368907E+03   -0.49116E-02   -0.16582E-01 25744   0.446E-01    0.154E-01
RMM:   2    -0.671755538986E+03   -0.17008E-03   -0.42014E-03 22982   0.826E-02    0.107E-01
RMM:   3    -0.671755699787E+03   -0.16080E-03   -0.66059E-04 19212   0.371E-02    0.126E-01
RMM:   4    -0.671755656029E+03    0.43759E-04   -0.16501E-04 15548   0.216E-02    0.469E-02
RMM:   5    -0.671755689227E+03   -0.33198E-04   -0.50677E-05 13731   0.108E-02    0.456E-02
RMM:   6    -0.671755698677E+03   -0.94506E-05   -0.20908E-05 12944   0.743E-03    0.365E-02
RMM:   7    -0.671755709690E+03   -0.11013E-04   -0.12358E-05 12585   0.569E-03    0.241E-02
RMM:   8    -0.671755719881E+03   -0.10191E-04   -0.54613E-06 11648   0.399E-03
  53 F= -.67175572E+03 E0= -.67134460E+03  d E =-.182934E-01  mag=    79.9612
       N       E                     dE             d eps       ncg     rms          rms(c)
DAV:   1    -0.671755938633E+03   -0.22894E-03   -0.46585E-03 26352   0.754E-02    0.285E-02
RMM:   2    -0.671755967828E+03   -0.29195E-04   -0.12780E-04 14804   0.148E-02    0.315E-02
RMM:   3    -0.671755982956E+03   -0.15128E-04   -0.24218E-05 13081   0.834E-03    0.273E-02
RMM:   4    -0.671755990629E+03   -0.76727E-05   -0.48801E-06 11276   0.415E-03    0.107E-02
RMM:   5    -0.671756000827E+03   -0.10198E-04   -0.85708E-07  7375   0.237E-03    0.878E-03
RMM:   6    -0.671756013418E+03   -0.12591E-04   -0.37004E-07  6458   0.215E-03    0.604E-03
RMM:   7    -0.671756021562E+03   -0.81440E-05   -0.10724E-07  5408   0.197E-03    0.360E-03
RMM:   8    -0.671756027614E+03   -0.60522E-05   -0.11384E-07  5426   0.204E-03
  54 F= -.67175603E+03 E0= -.67134492E+03  d E =-.186011E-01  mag=    79.9608
       N       E                     dE             d eps       ncg     rms          rms(c)
DAV:   1    -0.671758576410E+03   -0.25548E-02   -0.17343E-02 26320   0.154E-01    0.466E-02
RMM:   2    -0.671758617528E+03   -0.41117E-04   -0.34989E-04 17288   0.273E-02    0.291E-02
RMM:   3    -0.671758643114E+03   -0.25586E-04   -0.53088E-05 14357   0.122E-02    0.283E-02
RMM:   4    -0.671758645032E+03   -0.19176E-05   -0.12936E-05 12782   0.675E-03    0.172E-02
RMM:   5    -0.671758653258E+03   -0.82268E-05   -0.39824E-06 11514   0.366E-03    0.131E-02
RMM:   6    -0.671758659245E+03   -0.59865E-05   -0.14952E-06  9170   0.272E-03    0.948E-03
RMM:   7    -0.671758668126E+03   -0.88811E-05   -0.91806E-07  7980   0.247E-03    0.595E-03
RMM:   8    -0.671758673010E+03   -0.48839E-05   -0.34116E-08  5141   0.209E-03
  55 F= -.67175867E+03 E0= -.67134758E+03  d E =-.264540E-02  mag=    79.9605
       N       E                     dE             d eps       ncg     rms          rms(c)
DAV:   1    -0.671760353262E+03   -0.16851E-02   -0.63873E-02 26304   0.296E-01    0.894E-02
RMM:   2    -0.671760505530E+03   -0.15227E-03   -0.12802E-03 22240   0.524E-02    0.542E-02
RMM:   3    -0.671760578848E+03   -0.73318E-04   -0.20149E-04 16028   0.215E-02    0.510E-02
RMM:   4    -0.671760580419E+03   -0.15711E-05   -0.49426E-05 14102   0.130E-02    0.341E-02
RMM:   5    -0.671760591965E+03   -0.11546E-04   -0.14890E-05 12963   0.654E-03    0.241E-02
RMM:   6    -0.671760600852E+03   -0.88876E-05   -0.74697E-06 12204   0.471E-03    0.195E-02
RMM:   7    -0.671760613966E+03   -0.13113E-04   -0.53410E-06 12176   0.403E-03    0.122E-02
RMM:   8    -0.671760620700E+03   -0.67344E-05   -0.14871E-06  9566   0.279E-03
  56 F= -.67176062E+03 E0= -.67134955E+03  d E =-.459309E-02  mag=    79.9603
       N       E                     dE             d eps       ncg     rms          rms(c)
DAV:   1    -0.671762464772E+03   -0.18508E-02   -0.21439E-02 26960   0.168E-01    0.749E-02
RMM:   2    -0.671762547981E+03   -0.83210E-04   -0.44149E-04 18682   0.322E-02    0.509E-02
RMM:   3    -0.671762585443E+03   -0.37462E-04   -0.74355E-05 14836   0.144E-02    0.450E-02
RMM:   4    -0.671762582782E+03    0.26613E-05   -0.24500E-05 13606   0.922E-03    0.253E-02
RMM:   5    -0.671762590994E+03   -0.82124E-05   -0.87206E-06 12355   0.485E-03    0.221E-02
RMM:   6    -0.671762596073E+03   -0.50785E-05   -0.38778E-06 11505   0.369E-03    0.136E-02
RMM:   7    -0.671762602138E+03   -0.60652E-05   -0.23937E-06 10476   0.304E-03    0.766E-03
RMM:   8    -0.671762607551E+03   -0.54133E-05   -0.25442E-07  6476   0.226E-03
  57 F= -.67176261E+03 E0= -.67135158E+03  d E =-.198685E-02  mag=    79.9601
       N       E                     dE             d eps       ncg     rms          rms(c)
DAV:   1    -0.671763248207E+03   -0.64607E-03   -0.30896E-02 26960   0.201E-01    0.895E-02
RMM:   2    -0.671763364186E+03   -0.11598E-03   -0.63649E-04 20394   0.386E-02    0.591E-02
RMM:   3    -0.671763411056E+03   -0.46870E-04   -0.10606E-04 15119   0.166E-02    0.479E-02
RMM:   4    -0.671763407116E+03    0.39400E-05   -0.35232E-05 13894   0.111E-02    0.285E-02
RMM:   5    -0.671763411559E+03   -0.44429E-05   -0.12601E-05 12658   0.591E-03    0.205E-02
RMM:   6    -0.671763414602E+03   -0.30431E-05   -0.60017E-06 12125   0.426E-03    0.149E-02
RMM:   7    -0.671763416471E+03   -0.18692E-05   -0.27255E-06 10918   0.326E-03    0.126E-02
RMM:   8    -0.671763418315E+03   -0.18440E-05   -0.38415E-07  7030   0.237E-03
  58 F= -.67176342E+03 E0= -.67135244E+03  d E =-.279761E-02  mag=    79.9600
       N       E                     dE             d eps       ncg     rms          rms(c)
DAV:   1    -0.671765111948E+03   -0.16955E-02   -0.33099E-02 27360   0.209E-01    0.969E-02
RMM:   2    -0.671765242742E+03   -0.13079E-03   -0.72194E-04 21011   0.424E-02    0.714E-02
RMM:   3    -0.671765289894E+03   -0.47152E-04   -0.13115E-04 15469   0.183E-02    0.643E-02
RMM:   4    -0.671765275394E+03    0.14500E-04   -0.43623E-05 14280   0.125E-02    0.323E-02
RMM:   5    -0.671765274310E+03    0.10836E-05   -0.14866E-05 12843   0.613E-03    0.268E-02
RMM:   6    -0.671765267615E+03    0.66957E-05   -0.64576E-06 12231   0.457E-03    0.186E-02
RMM:   7    -0.671765262901E+03    0.47139E-05   -0.44496E-06 11696   0.369E-03    0.101E-02
RMM:   8    -0.671765260842E+03    0.20592E-05   -0.94298E-07  8344   0.259E-03
  59 F= -.67176526E+03 E0= -.67135436E+03  d E =-.184253E-02  mag=    79.9600
       N       E                     dE             d eps       ncg     rms          rms(c)
DAV:   1    -0.671765761395E+03   -0.49849E-03   -0.31174E-02 26880   0.203E-01    0.941E-02
RMM:   2    -0.671765885639E+03   -0.12424E-03   -0.68266E-04 20775   0.412E-02    0.679E-02
RMM:   3    -0.671765926281E+03   -0.40642E-04   -0.12324E-04 15368   0.176E-02    0.574E-02
RMM:   4    -0.671765912980E+03    0.13300E-04   -0.40815E-05 13948   0.119E-02    0.287E-02
RMM:   5    -0.671765910083E+03    0.28973E-05   -0.14299E-05 12579   0.617E-03    0.209E-02
RMM:   6    -0.671765902225E+03    0.78580E-05   -0.66180E-06 12166   0.446E-03    0.115E-02
RMM:   7    -0.671765899020E+03    0.32051E-05   -0.30454E-06 11093   0.331E-03    0.142E-02
RMM:   8    -0.671765896791E+03    0.22287E-05   -0.76895E-07  8221   0.256E-03
  60 F= -.67176590E+03 E0= -.67135506E+03  d E =-.247848E-02  mag=    79.9599
       N       E                     dE             d eps       ncg     rms          rms(c)
DAV:   1    -0.671766683691E+03   -0.78467E-03   -0.21396E-02 27840   0.177E-01    0.749E-02
RMM:   2    -0.671766761354E+03   -0.77663E-04   -0.48986E-04 19657   0.354E-02    0.519E-02
RMM:   3    -0.671766801105E+03   -0.39751E-04   -0.85244E-05 14837   0.156E-02    0.484E-02
RMM:   4    -0.671766795410E+03    0.56946E-05   -0.28056E-05 13884   0.102E-02    0.230E-02
RMM:   5    -0.671766798642E+03   -0.32312E-05   -0.89685E-06 12461   0.511E-03    0.175E-02
RMM:   6    -0.671766799147E+03   -0.50571E-06   -0.43693E-06 11741   0.383E-03    0.115E-02
RMM:   7    -0.671766799756E+03   -0.60862E-06   -0.21015E-06 10250   0.305E-03    0.109E-02
RMM:   8    -0.671766799365E+03    0.39069E-06   -0.25668E-07  6467   0.231E-03
  61 F= -.67176680E+03 E0= -.67135603E+03  d E =-.902574E-03  mag=    79.9599
       N       E                     dE             d eps       ncg     rms          rms(c)
DAV:   1    -0.671766845358E+03   -0.45602E-04   -0.23408E-03 27104   0.587E-02    0.249E-02
RMM:   2    -0.671766854878E+03   -0.95200E-05   -0.56840E-05 14565   0.120E-02    0.190E-02
RMM:   3    -0.671766860832E+03   -0.59539E-05   -0.95359E-06 13261   0.578E-03    0.197E-02
RMM:   4    -0.671766860144E+03    0.68778E-06   -0.25643E-06 10926   0.340E-03    0.936E-03
RMM:   5    -0.671766861203E+03   -0.10594E-05   -0.16238E-07  5464   0.209E-03    0.751E-03
RMM:   6    -0.671766862674E+03   -0.14706E-05   -0.87740E-08  5185   0.204E-03    0.460E-03
RMM:   7    -0.671766864419E+03   -0.17453E-05   -0.28041E-08  4711   0.199E-03    0.237E-03
RMM:   8    -0.671766865741E+03   -0.13225E-05   -0.56029E-08  4793   0.208E-03
  62 F= -.67176687E+03 E0= -.67135613E+03  d E =-.968950E-03  mag=    79.9598
       N       E                     dE             d eps       ncg     rms          rms(c)
DAV:   1    -0.671767356113E+03   -0.49169E-03   -0.15929E-02 26512   0.152E-01    0.721E-02
RMM:   2    -0.671767422899E+03   -0.66786E-04   -0.35814E-04 18488   0.311E-02    0.467E-02
RMM:   3    -0.671767449206E+03   -0.26307E-04   -0.61742E-05 14642   0.142E-02    0.423E-02
RMM:   4    -0.671767444305E+03    0.49016E-05   -0.20989E-05 13878   0.898E-03    0.196E-02
RMM:   5    -0.671767443910E+03    0.39442E-06   -0.63178E-06 12322   0.444E-03    0.132E-02
RMM:   6    -0.671767444647E+03   -0.73714E-06   -0.31025E-06 11531   0.336E-03    0.960E-03
RMM:   7    -0.671767446697E+03   -0.20498E-05   -0.10121E-06  8852   0.263E-03    0.818E-03
RMM:   8    -0.671767447441E+03   -0.74413E-06   -0.57871E-08  5499   0.216E-03
  63 F= -.67176745E+03 E0= -.67135677E+03  d E =-.581700E-03  mag=    79.9598
       N       E                     dE             d eps       ncg     rms          rms(c)
DAV:   1    -0.671767539065E+03   -0.92368E-04   -0.11141E-02 27136   0.127E-01    0.606E-02
RMM:   2    -0.671767586412E+03   -0.47347E-04   -0.25601E-04 17074   0.262E-02    0.397E-02
RMM:   3    -0.671767605769E+03   -0.19357E-04   -0.43459E-05 14561   0.122E-02    0.367E-02
RMM:   4    -0.671767601871E+03    0.38981E-05   -0.14257E-05 13541   0.732E-03    0.168E-02
RMM:   5    -0.671767602983E+03   -0.11120E-05   -0.43890E-06 11929   0.379E-03    0.158E-02
RMM:   6    -0.671767603465E+03   -0.48243E-06   -0.19263E-06 10340   0.300E-03    0.107E-02
RMM:   7    -0.671767605749E+03   -0.22836E-05   -0.66910E-07  7771   0.249E-03    0.601E-03
RMM:   8    -0.671767607684E+03   -0.19353E-05   -0.19266E-08  5068   0.212E-03
  64 F= -.67176761E+03 E0= -.67135697E+03  d E =-.741943E-03  mag=    79.9599
       N       E                     dE             d eps       ncg     rms          rms(c)
DAV:   1    -0.671768074180E+03   -0.46843E-03   -0.13437E-02 27216   0.138E-01    0.691E-02
RMM:   2    -0.671768137670E+03   -0.63490E-04   -0.30439E-04 17891   0.286E-02    0.469E-02
RMM:   3    -0.671768166986E+03   -0.29317E-04   -0.54014E-05 14622   0.135E-02    0.462E-02
RMM:   4    -0.671768161825E+03    0.51609E-05   -0.18717E-05 14154   0.858E-03    0.232E-02
RMM:   5    -0.671768164145E+03   -0.23199E-05   -0.60024E-06 12444   0.416E-03    0.205E-02
RMM:   6    -0.671768164174E+03   -0.28405E-07   -0.30473E-06 11602   0.348E-03    0.112E-02
RMM:   7    -0.671768166177E+03   -0.20028E-05   -0.15446E-06  9856   0.278E-03    0.644E-03
RMM:   8    -0.671768167705E+03   -0.15288E-05   -0.83607E-08  5674   0.215E-03
  65 F= -.67176817E+03 E0= -.67135758E+03  d E =-.560021E-03  mag=    79.9599
       N       E                     dE             d eps       ncg     rms          rms(c)
DAV:   1    -0.671768279776E+03   -0.11360E-03   -0.35763E-02 26464   0.226E-01    0.112E-01
RMM:   2    -0.671768438693E+03   -0.15892E-03   -0.79582E-04 22540   0.464E-02    0.743E-02
RMM:   3    -0.671768507962E+03   -0.69269E-04   -0.14031E-04 15444   0.203E-02    0.714E-02
RMM:   4    -0.671768494124E+03    0.13839E-04   -0.51049E-05 14542   0.143E-02    0.380E-02
RMM:   5    -0.671768496744E+03   -0.26203E-05   -0.16687E-05 13839   0.657E-03    0.316E-02
RMM:   6    -0.671768492832E+03    0.39120E-05   -0.84811E-06 12973   0.532E-03    0.193E-02
RMM:   7    -0.671768493061E+03   -0.22957E-06   -0.50607E-06 12276   0.409E-03    0.120E-02
RMM:   8    -0.671768493772E+03   -0.71013E-06   -0.14966E-06 10141   0.285E-03
  66 F= -.67176849E+03 E0= -.67135799E+03  d E =-.886087E-03  mag=    79.9599
       N       E                     dE             d eps       ncg     rms          rms(c)
DAV:   1    -0.671768872899E+03   -0.37984E-03   -0.10754E-02 27712   0.124E-01    0.630E-02
RMM:   2    -0.671768922564E+03   -0.49665E-04   -0.24452E-04 17063   0.254E-02    0.416E-02
RMM:   3    -0.671768948337E+03   -0.25773E-04   -0.42055E-05 14567   0.119E-02    0.365E-02
RMM:   4    -0.671768946244E+03    0.20927E-05   -0.14398E-05 13809   0.754E-03    0.187E-02
RMM:   5    -0.671768949833E+03   -0.35889E-05   -0.48662E-06 12197   0.403E-03    0.130E-02
RMM:   6    -0.671768952603E+03   -0.27693E-05   -0.23484E-06 10989   0.306E-03    0.102E-02
RMM:   7    -0.671768954512E+03   -0.19092E-05   -0.66519E-07  7795   0.249E-03    0.770E-03
RMM:   8    -0.671768955667E+03   -0.11548E-05   -0.18200E-08  5142   0.212E-03
  67 F= -.67176896E+03 E0= -.67135850E+03  d E =-.461895E-03  mag=    79.9600
       N       E                     dE             d eps       ncg     rms          rms(c)
DAV:   1    -0.671769063377E+03   -0.10887E-03   -0.50727E-02 26352   0.269E-01    0.136E-01
RMM:   2    -0.671769286160E+03   -0.22278E-03   -0.11269E-03 23318   0.549E-02    0.924E-02
RMM:   3    -0.671769392138E+03   -0.10598E-03   -0.20334E-04 16290   0.241E-02    0.881E-02
RMM:   4    -0.671769366245E+03    0.25893E-04   -0.72452E-05 14652   0.170E-02    0.454E-02
RMM:   5    -0.671769374188E+03   -0.79428E-05   -0.25565E-05 14312   0.817E-03    0.392E-02
RMM:   6    -0.671769370189E+03    0.39986E-05   -0.13227E-05 13560   0.649E-03    0.249E-02
RMM:   7    -0.671769371430E+03   -0.12410E-05   -0.80577E-06 12664   0.493E-03    0.150E-02
RMM:   8    -0.671769372015E+03   -0.58440E-06   -0.26098E-06 11447   0.337E-03
  68 F= -.67176937E+03 E0= -.67135902E+03  d E =-.878243E-03  mag=    79.9600
       N       E                     dE             d eps       ncg     rms          rms(c)
DAV:   1    -0.671769716456E+03   -0.34503E-03   -0.10087E-02 27360   0.123E-01    0.574E-02
RMM:   2    -0.671769753209E+03   -0.36754E-04   -0.24518E-04 16711   0.252E-02    0.385E-02
RMM:   3    -0.671769772150E+03   -0.18940E-04   -0.40789E-05 14580   0.120E-02    0.356E-02
RMM:   4    -0.671769768322E+03    0.38277E-05   -0.12436E-05 13845   0.708E-03    0.166E-02
RMM:   5    -0.671769768683E+03   -0.36089E-06   -0.41771E-06 12032   0.375E-03    0.141E-02
RMM:   6    -0.671769769452E+03   -0.76927E-06   -0.19832E-06 10763   0.294E-03    0.112E-02
RMM:   7    -0.671769771027E+03   -0.15753E-05   -0.41595E-07  6985   0.239E-03    0.722E-03
RMM:   8    -0.671769772501E+03   -0.14738E-05   -0.28226E-08  5029   0.210E-03
  69 F= -.67176977E+03 E0= -.67135945E+03  d E =-.400486E-03  mag=    79.9601
       N       E                     dE             d eps       ncg     rms          rms(c)
DAV:   1    -0.671769860403E+03   -0.89375E-04   -0.20689E-02 27488   0.176E-01    0.819E-02
RMM:   2    -0.671769936508E+03   -0.76106E-04   -0.49309E-04 20262   0.358E-02    0.550E-02
RMM:   3    -0.671769974162E+03   -0.37654E-04   -0.83392E-05 14746   0.160E-02    0.523E-02
RMM:   4    -0.671769964478E+03    0.96839E-05   -0.27226E-05 14358   0.106E-02    0.271E-02
RMM:   5    -0.671769964399E+03    0.79162E-07   -0.95157E-06 13223   0.507E-03    0.237E-02
RMM:   6    -0.671769962072E+03    0.23274E-05   -0.47968E-06 12441   0.412E-03    0.168E-02
RMM:   7    -0.671769962518E+03   -0.44657E-06   -0.29759E-06 11654   0.333E-03    0.984E-03
RMM:   8    -0.671769963977E+03   -0.14585E-05   -0.48924E-07  7533   0.241E-03
  70 F= -.67176996E+03 E0= -.67135967E+03  d E =-.591962E-03  mag=    79.9602
       N       E                     dE             d eps       ncg     rms          rms(c)
DAV:   1    -0.671770243148E+03   -0.28063E-03   -0.84575E-03 27728   0.111E-01    0.556E-02
RMM:   2    -0.671770277665E+03   -0.34518E-04   -0.20906E-04 16320   0.233E-02    0.360E-02
RMM:   3    -0.671770297999E+03   -0.20334E-04   -0.32607E-05 14523   0.108E-02    0.340E-02
RMM:   4    -0.671770295062E+03    0.29369E-05   -0.10282E-05 13830   0.647E-03    0.188E-02
RMM:   5    -0.671770296048E+03   -0.98627E-06   -0.37473E-06 11904   0.346E-03    0.170E-02
RMM:   6    -0.671770295839E+03    0.20955E-06   -0.18564E-06 10678   0.292E-03    0.990E-03
RMM:   7    -0.671770297674E+03   -0.18352E-05   -0.61385E-07  7767   0.249E-03    0.474E-03
RMM:   8    -0.671770299549E+03   -0.18748E-05   -0.16916E-08  5012   0.208E-03
  71 F= -.67177030E+03 E0= -.67136002E+03  d E =-.335572E-03  mag=    79.9603
       N       E                     dE             d eps       ncg     rms          rms(c)
DAV:   1    -0.671770352048E+03   -0.54374E-04   -0.56469E-02 26224   0.285E-01    0.143E-01
RMM:   2    -0.671770583834E+03   -0.23179E-03   -0.13518E-03 23658   0.596E-02    0.924E-02
RMM:   3    -0.671770693908E+03   -0.11007E-03   -0.21997E-04 16474   0.252E-02    0.891E-02
RMM:   4    -0.671770667431E+03    0.26477E-04   -0.76000E-05 14662   0.176E-02    0.475E-02
RMM:   5    -0.671770670435E+03   -0.30040E-05   -0.27700E-05 14388   0.855E-03    0.419E-02
RMM:   6    -0.671770664056E+03    0.63791E-05   -0.15432E-05 13888   0.705E-03    0.276E-02
RMM:   7    -0.671770663907E+03    0.14901E-06   -0.87933E-06 12832   0.532E-03    0.167E-02
RMM:   8    -0.671770665348E+03   -0.14408E-05   -0.30126E-06 11888   0.359E-03
  72 F= -.67177067E+03 E0= -.67136043E+03  d E =-.701371E-03  mag=    79.9604
       N       E                     dE             d eps       ncg     rms          rms(c)
DAV:   1    -0.671771065344E+03   -0.40144E-03   -0.15071E-02 28064   0.147E-01    0.750E-02
RMM:   2    -0.671771124517E+03   -0.59173E-04   -0.34931E-04 18094   0.296E-02    0.478E-02
RMM:   3    -0.671771157202E+03   -0.32686E-04   -0.56180E-05 14635   0.137E-02    0.439E-02
RMM:   4    -0.671771152394E+03    0.48080E-05   -0.19360E-05 14064   0.889E-03    0.217E-02
RMM:   5    -0.671771155889E+03   -0.34948E-05   -0.66714E-06 12566   0.459E-03    0.160E-02
RMM:   6    -0.671771158659E+03   -0.27698E-05   -0.37808E-06 12028   0.363E-03    0.123E-02
RMM:   7    -0.671771161226E+03   -0.25667E-05   -0.15673E-06 10015   0.284E-03    0.103E-02
RMM:   8    -0.671771162784E+03   -0.15581E-05   -0.78562E-08  5820   0.216E-03
  73 F= -.67177116E+03 E0= -.67136093E+03  d E =-.497436E-03  mag=    79.9605
       N       E                     dE             d eps       ncg     rms          rms(c)
DAV:   1    -0.671771245758E+03   -0.84532E-04   -0.30166E-02 27296   0.209E-01    0.106E-01
RMM:   2    -0.671771364889E+03   -0.11913E-03   -0.69142E-04 21813   0.418E-02    0.695E-02
RMM:   3    -0.671771430297E+03   -0.65409E-04   -0.11565E-04 14967   0.189E-02    0.720E-02
RMM:   4    -0.671771412108E+03    0.18190E-04   -0.41617E-05 14411   0.132E-02    0.342E-02
RMM:   5    -0.671771417814E+03   -0.57062E-05   -0.15139E-05 13932   0.617E-03    0.320E-02
RMM:   6    -0.671771416897E+03    0.91689E-06   -0.86232E-06 13080   0.537E-03    0.200E-02
RMM:   7    -0.671771419637E+03   -0.27404E-05   -0.51078E-06 12169   0.416E-03    0.121E-02
RMM:   8    -0.671771422277E+03   -0.26394E-05   -0.13630E-06  9981   0.279E-03
  74 F= -.67177142E+03 E0= -.67136120E+03  d E =-.756929E-03  mag=    79.9606
       N       E                     dE             d eps       ncg     rms          rms(c)
DAV:   1    -0.671771689558E+03   -0.26992E-03   -0.11055E-02 27792   0.130E-01    0.583E-02
RMM:   2    -0.671771726439E+03   -0.36880E-04   -0.27680E-04 17015   0.270E-02    0.393E-02
RMM:   3    -0.671771751133E+03   -0.24694E-04   -0.43576E-05 14464   0.121E-02    0.366E-02
RMM:   4    -0.671771747554E+03    0.35795E-05   -0.12944E-05 13851   0.717E-03    0.192E-02
RMM:   5    -0.671771751342E+03   -0.37886E-05   -0.48178E-06 12068   0.392E-03    0.179E-02
RMM:   6    -0.671771752635E+03   -0.12922E-05   -0.22043E-06 10763   0.307E-03    0.114E-02
RMM:   7    -0.671771754571E+03   -0.19362E-05   -0.99030E-07  8707   0.261E-03    0.640E-03
RMM:   8    -0.671771756564E+03   -0.19935E-05   -0.58737E-08  5616   0.216E-03
  75 F= -.67177176E+03 E0= -.67136153E+03  d E =-.334288E-03  mag=    79.9607
       N       E                     dE             d eps       ncg     rms          rms(c)
DAV:   1    -0.671771777757E+03   -0.23186E-04   -0.22846E-03 26896   0.592E-02    0.265E-02
RMM:   2    -0.671771784995E+03   -0.72378E-05   -0.60010E-05 14549   0.125E-02    0.179E-02
RMM:   3    -0.671771791147E+03   -0.61519E-05   -0.84877E-06 13800   0.557E-03    0.145E-02
RMM:   4    -0.671771790786E+03    0.36042E-06   -0.22842E-06 11351   0.322E-03    0.856E-03
RMM:   5    -0.671771791537E+03   -0.75111E-06   -0.27079E-07  6675   0.224E-03    0.546E-03
RMM:   6    -0.671771792894E+03   -0.13565E-05   -0.41277E-08  5265   0.194E-03    0.393E-03
RMM:   7    -0.671771794271E+03   -0.13770E-05   -0.18536E-08  4922   0.200E-03    0.413E-03
RMM:   8    -0.671771795482E+03   -0.12117E-05   -0.24061E-08  4900   0.202E-03
  76 F= -.67177180E+03 E0= -.67136156E+03  d E =-.373206E-03  mag=    79.9608
[...]
RMM:   8    -0.671771980458E+03   -0.84611E-06   -0.21537E-08  4854   0.209E-03
  77 F= -.67177198E+03 E0= -.67136174E+03  d E =-.184976E-03  mag=    79.9609
       N       E                     dE             d eps       ncg     rms          rms(c)
DAV:   1    -0.671772030207E+03   -0.50595E-04   -0.80367E-03 27408   0.112E-01    0.519E-02
RMM:   2    -0.671772056659E+03   -0.26452E-04   -0.19482E-04 15976   0.228E-02    0.341E-02
RMM:   3    -0.671772077448E+03   -0.20789E-04   -0.30282E-05 14398   0.106E-02    0.299E-02
RMM:   4    -0.671772075227E+03    0.22203E-05   -0.97169E-06 13398   0.625E-03    0.166E-02
RMM:   5    -0.671772076143E+03   -0.91549E-06   -0.32222E-06 11643   0.356E-03    0.129E-02
RMM:   6    -0.671772076456E+03   -0.31339E-06   -0.13712E-06  9604   0.276E-03    0.104E-02
RMM:   7    -0.671772076795E+03   -0.33854E-06   -0.39500E-07  6867   0.240E-03    0.606E-03
RMM:   8    -0.671772077550E+03   -0.75530E-06   -0.20738E-08  4884   0.214E-03
  78 F= -.67177208E+03 E0= -.67136181E+03  d E =-.282068E-03  mag=    79.9610
       N       E                     dE             d eps       ncg     rms          rms(c)
DAV:   1    -0.671772203786E+03   -0.12699E-03   -0.18393E-03 27120   0.524E-02    0.267E-02
RMM:   2    -0.671772210612E+03   -0.68261E-05   -0.47616E-05 14513   0.112E-02    0.182E-02
RMM:   3    -0.671772217746E+03   -0.71339E-05   -0.75805E-06 13652   0.541E-03    0.166E-02
RMM:   4    -0.671772217295E+03    0.45123E-06   -0.23820E-06 11179   0.336E-03    0.841E-03
RMM:   5    -0.671772218013E+03   -0.71758E-06   -0.77557E-08  5506   0.207E-03    0.731E-03
RMM:   6    -0.671772218755E+03   -0.74180E-06   -0.46851E-08  5043   0.200E-03    0.605E-03
RMM:   7    -0.671772219608E+03   -0.85309E-06   -0.16098E-08  4803   0.194E-03    0.290E-03
RMM:   8    -0.671772220638E+03   -0.10300E-05   -0.43535E-08  4858   0.204E-03
  79 F= -.67177222E+03 E0= -.67136194E+03  d E =-.143087E-03  mag=    79.9611
       N       E                     dE             d eps       ncg     rms          rms(c)
DAV:   1    -0.671772384427E+03   -0.16482E-03   -0.16607E-02 26176   0.157E-01    0.797E-02
RMM:   2    -0.671772441655E+03   -0.57228E-04   -0.39802E-04 18768   0.319E-02    0.506E-02
RMM:   3    -0.671772485571E+03   -0.43916E-04   -0.60318E-05 14583   0.142E-02    0.420E-02
RMM:   4    -0.671772481804E+03    0.37672E-05   -0.22079E-05 14143   0.945E-03    0.255E-02
RMM:   5    -0.671772482289E+03   -0.48475E-06   -0.71093E-06 12648   0.492E-03    0.148E-02
RMM:   6    -0.671772483408E+03   -0.11190E-05   -0.37931E-06 12155   0.361E-03    0.112E-02
RMM:   7    -0.671772484826E+03   -0.14189E-05   -0.14075E-06 10173   0.276E-03    0.799E-03
RMM:   8    -0.671772485601E+03   -0.77486E-06   -0.37272E-08  5338   0.207E-03
  80 F= -.67177249E+03 E0= -.67136218E+03  d E =-.408051E-03  mag=    79.9612
       N       E                     dE             d eps       ncg     rms          rms(c)
DAV:   1    -0.671772018537E+03    0.46629E-03   -0.66362E-02 25360   0.314E-01    0.159E-01
RMM:   2    -0.671772276419E+03   -0.25788E-03   -0.15760E-03 23909   0.640E-02    0.101E-01
RMM:   3    -0.671772416687E+03   -0.14027E-03   -0.24474E-04 17007   0.272E-02    0.852E-02
RMM:   4    -0.671772401376E+03    0.15310E-04   -0.93288E-05 14739   0.194E-02    0.526E-02
RMM:   5    -0.671772403898E+03   -0.25216E-05   -0.30672E-05 14409   0.986E-03    0.318E-02
RMM:   6    -0.671772409128E+03   -0.52298E-05   -0.17301E-05 14135   0.704E-03    0.318E-02
RMM:   7    -0.671772408483E+03    0.64448E-06   -0.82884E-06 13014   0.519E-03    0.225E-02
RMM:   8    -0.671772408215E+03    0.26822E-06   -0.28939E-06 11866   0.337E-03
  81 F= -.67177241E+03 E0= -.67136203E+03  d E =-.330665E-03  mag=    79.9613
       N       E                     dE             d eps       ncg     rms          rms(c)
DAV:   1    -0.671772411651E+03   -0.31674E-05   -0.25623E-02 27600   0.195E-01    0.991E-02
RMM:   2    -0.671772504186E+03   -0.92535E-04   -0.60406E-04 21288   0.398E-02    0.649E-02
RMM:   3    -0.671772571548E+03   -0.67363E-04   -0.96021E-05 14805   0.176E-02    0.593E-02
RMM:   4    -0.671772563524E+03    0.80243E-05   -0.36679E-05 14384   0.123E-02    0.334E-02
RMM:   5    -0.671772569682E+03   -0.61574E-05   -0.11378E-05 13500   0.586E-03    0.279E-02
RMM:   6    -0.671772570933E+03   -0.12517E-05   -0.61509E-06 12457   0.458E-03    0.200E-02
RMM:   7    -0.671772570865E+03    0.68452E-07   -0.33986E-06 11934   0.352E-03    0.113E-02
RMM:   8    -0.671772570646E+03    0.21840E-06   -0.49664E-07  7878   0.244E-03
  82 F= -.67177257E+03 E0= -.67136224E+03  d E =-.493096E-03  mag=    79.9614
       N       E                     dE             d eps       ncg     rms          rms(c)
DAV:   1    -0.671772752587E+03   -0.18172E-03   -0.42750E-03 27152   0.794E-02    0.404E-02
RMM:   2    -0.671772764492E+03   -0.11905E-04   -0.11077E-04 15146   0.169E-02    0.274E-02
RMM:   3    -0.671772779223E+03   -0.14730E-04   -0.18094E-05 14180   0.833E-03    0.265E-02
RMM:   4    -0.671772777437E+03    0.17858E-05   -0.58040E-06 12261   0.496E-03    0.123E-02
RMM:   5    -0.671772778284E+03   -0.84704E-06   -0.11639E-06  9197   0.266E-03    0.888E-03
RMM:   6    -0.671772778557E+03   -0.27334E-06   -0.33463E-07  6795   0.237E-03    0.737E-03
RMM:   7    -0.671772778920E+03   -0.36275E-06   -0.34436E-08  5030   0.220E-03    0.530E-03
RMM:   8    -0.671772779305E+03   -0.38464E-06   -0.10126E-07  5172   0.216E-03
  83 F= -.67177278E+03 E0= -.67136244E+03  d E =-.208658E-03  mag=    79.9614
       N       E                     dE             d eps       ncg     rms          rms(c)
DAV:   1    -0.671772830849E+03   -0.51929E-04   -0.38322E-02 25424   0.238E-01    0.121E-01
RMM:   2    -0.671772974257E+03   -0.14341E-03   -0.96816E-04 23090   0.498E-02    0.785E-02
RMM:   3    -0.671773064885E+03   -0.90628E-04   -0.15359E-04 15536   0.217E-02    0.712E-02
RMM:   4    -0.671773054049E+03    0.10836E-04   -0.59692E-05 14468   0.157E-02    0.381E-02
RMM:   5    -0.671773059973E+03   -0.59241E-05   -0.18102E-05 13975   0.744E-03    0.250E-02
RMM:   6    -0.671773063608E+03   -0.36350E-05   -0.10359E-05 13316   0.573E-03    0.205E-02
RMM:   7    -0.671773064633E+03   -0.10249E-05   -0.53552E-06 12263   0.433E-03    0.169E-02
RMM:   8    -0.671773064488E+03    0.14575E-06   -0.14921E-06 10304   0.281E-03
  84 F= -.67177306E+03 E0= -.67136268E+03  d E =-.493841E-03  mag=    79.9615
       N       E                     dE             d eps       ncg     rms          rms(c)
DAV:   1    -0.671773273520E+03   -0.20889E-03   -0.63345E-03 27856   0.984E-02    0.481E-02
RMM:   2    -0.671773292668E+03   -0.19148E-04   -0.16704E-04 15695   0.202E-02    0.326E-02
RMM:   3    -0.671773314057E+03   -0.21389E-04   -0.26382E-05 14422   0.975E-03    0.325E-02
RMM:   4    -0.671773311262E+03    0.27954E-05   -0.83453E-06 13451   0.587E-03    0.166E-02
RMM:   5    -0.671773314004E+03   -0.27427E-05   -0.27182E-06 11374   0.312E-03    0.172E-02
RMM:   6    -0.671773314328E+03   -0.32363E-06   -0.14893E-06 10072   0.283E-03    0.771E-03
RMM:   7    -0.671773315683E+03   -0.13551E-05   -0.33977E-07  6791   0.233E-03    0.476E-03
RMM:   8    -0.671773316420E+03   -0.73668E-06   -0.21206E-08  5022   0.206E-03
  85 F= -.67177332E+03 E0= -.67136294E+03  d E =-.251932E-03  mag=    79.9616
       N       E                     dE             d eps       ncg     rms          rms(c)
DAV:   1    -0.671773372060E+03   -0.56377E-04   -0.14519E-02 26640   0.149E-01    0.724E-02
RMM:   2    -0.671773416731E+03   -0.44671E-04   -0.37450E-04 18080   0.303E-02    0.482E-02
RMM:   3    -0.671773454745E+03   -0.38015E-04   -0.58164E-05 14520   0.141E-02    0.429E-02
RMM:   4    -0.671773451264E+03    0.34813E-05   -0.20684E-05 14183   0.916E-03    0.239E-02
RMM:   5    -0.671773454435E+03   -0.31707E-05   -0.65637E-06 12550   0.467E-03    0.160E-02
RMM:   6    -0.671773457056E+03   -0.26217E-05   -0.35568E-06 12144   0.359E-03    0.148E-02
RMM:   7    -0.671773457285E+03   -0.22864E-06   -0.15644E-06 10103   0.280E-03    0.104E-02
RMM:   8    -0.671773457539E+03   -0.25379E-06   -0.11970E-07  5751   0.216E-03
  86 F= -.67177346E+03 E0= -.67136307E+03  d E =-.393051E-03  mag=    79.9617
       N       E                     dE             d eps       ncg     rms          rms(c)
DAV:   1    -0.671773687439E+03   -0.23015E-03   -0.88045E-03 26928   0.117E-01    0.549E-02
RMM:   2    -0.671773713341E+03   -0.25903E-04   -0.23907E-04 16408   0.240E-02    0.398E-02
RMM:   3    -0.671773738479E+03   -0.25137E-04   -0.39617E-05 14464   0.117E-02    0.408E-02
RMM:   4    -0.671773732628E+03    0.58506E-05   -0.12062E-05 13923   0.701E-03    0.207E-02
RMM:   5    -0.671773735255E+03   -0.26273E-05   -0.45878E-06 12120   0.367E-03    0.203E-02
RMM:   6    -0.671773734466E+03    0.78930E-06   -0.25645E-06 11471   0.330E-03    0.101E-02
RMM:   7    -0.671773735357E+03   -0.89128E-06   -0.12649E-06  9286   0.267E-03    0.622E-03
RMM:   8    -0.671773735794E+03   -0.43632E-06   -0.79532E-08  5624   0.215E-03
  87 F= -.67177374E+03 E0= -.67136336E+03  d E =-.278255E-03  mag=    79.9618
       N       E                     dE             d eps       ncg     rms          rms(c)
DAV:   1    -0.671773757667E+03   -0.22310E-04   -0.59289E-03 27488   0.958E-02    0.450E-02
RMM:   2    -0.671773773729E+03   -0.16062E-04   -0.16326E-04 15578   0.198E-02    0.316E-02
RMM:   3    -0.671773790597E+03   -0.16869E-04   -0.26004E-05 14412   0.957E-03    0.294E-02
RMM:   4    -0.671773788157E+03    0.24401E-05   -0.78696E-06 13180   0.571E-03    0.160E-02
RMM:   5    -0.671773789893E+03   -0.17360E-05   -0.29123E-06 11552   0.321E-03    0.154E-02
RMM:   6    -0.671773789782E+03    0.11129E-06   -0.10113E-06  8718   0.261E-03    0.943E-03
RMM:   7    -0.671773789952E+03   -0.16950E-06   -0.48722E-07  7244   0.241E-03    0.495E-03
RMM:   8    -0.671773790224E+03   -0.27288E-06   -0.19940E-08  5061   0.210E-03
  88 F= -.67177379E+03 E0= -.67136342E+03  d E =-.332686E-03  mag=    79.9618
       N       E                     dE             d eps       ncg     rms          rms(c)
DAV:   1    -0.671773918631E+03   -0.12868E-03   -0.58241E-03 27488   0.966E-02    0.405E-02
RMM:   2    -0.671773934137E+03   -0.15506E-04   -0.16133E-04 15396   0.195E-02    0.275E-02
RMM:   3    -0.671773946295E+03   -0.12158E-04   -0.23469E-05 14484   0.897E-03    0.233E-02
RMM:   4    -0.671773945362E+03    0.93272E-06   -0.66189E-06 13203   0.515E-03    0.157E-02
RMM:   5    -0.671773946009E+03   -0.64727E-06   -0.26397E-06 11595   0.324E-03    0.120E-02
RMM:   6    -0.671773946145E+03   -0.13551E-06   -0.61737E-07  7751   0.246E-03    0.918E-03
RMM:   7    -0.671773945744E+03    0.40047E-06   -0.39436E-07  6920   0.238E-03    0.581E-03
RMM:   8    -0.671773945562E+03    0.18254E-06   -0.87691E-09  5053   0.211E-03
  89 F= -.67177395E+03 E0= -.67136360E+03  d E =-.155337E-03  mag=    79.9619
       N       E                     dE             d eps       ncg     rms          rms(c)
DAV:   1    -0.671773949976E+03   -0.42319E-05   -0.34585E-04 25664   0.237E-02    0.100E-02
RMM:   2    -0.671773950464E+03   -0.48755E-06   -0.10938E-05 13957   0.522E-03    0.742E-03
RMM:   3    -0.671773951320E+03   -0.85682E-06   -0.79248E-07  8383   0.255E-03    0.533E-03
RMM:   4    -0.671773951082E+03    0.23842E-06   -0.19502E-08  4864   0.192E-03    0.332E-03
RMM:   5    -0.671773950872E+03    0.20955E-06   -0.40305E-09  4746   0.190E-03    0.306E-03
RMM:   6    -0.671773950699E+03    0.17323E-06   -0.19625E-09  4779   0.190E-03    0.248E-03
RMM:   7    -0.671773950537E+03    0.16252E-06   -0.43173E-09  4803   0.192E-03    0.119E-03
RMM:   8    -0.671773950506E+03    0.30734E-07   -0.13127E-09  4767   0.191E-03
  90 F= -.67177395E+03 E0= -.67136362E+03  d E =-.160282E-03  mag=    79.9619
       N       E                     dE             d eps       ncg     rms          rms(c)
DAV:   1    -0.671774055994E+03   -0.10546E-03   -0.30967E-03 26512   0.718E-02    0.282E-02
RMM:   2    -0.671774064488E+03   -0.84941E-05   -0.79322E-05 14727   0.143E-02    0.196E-02
RMM:   3    -0.671774070344E+03   -0.58562E-05   -0.11845E-05 14047   0.673E-03    0.176E-02
RMM:   4    -0.671774069101E+03    0.12433E-05   -0.32399E-06 11985   0.374E-03    0.977E-03
RMM:   5    -0.671774068534E+03    0.56671E-06   -0.58395E-07  7893   0.242E-03    0.651E-03
RMM:   6    -0.671774067786E+03    0.74832E-06   -0.61204E-08  5465   0.208E-03    0.635E-03
RMM:   7    -0.671774067065E+03    0.72084E-06   -0.37024E-08  5259   0.211E-03    0.405E-03
RMM:   8    -0.671774066546E+03    0.51921E-06   -0.34542E-08  5040   0.210E-03
  91 F= -.67177407E+03 E0= -.67136376E+03  d E =-.116040E-03  mag=    79.9619
       N       E                     dE             d eps       ncg     rms          rms(c)
DAV:   1    -0.671774080107E+03   -0.13042E-04   -0.13397E-03 26032   0.474E-02    0.187E-02
RMM:   2    -0.671774083203E+03   -0.30962E-05   -0.36294E-05 14422   0.972E-03    0.128E-02
RMM:   3    -0.671774085590E+03   -0.23870E-05   -0.51317E-06 13168   0.446E-03    0.110E-02
RMM:   4    -0.671774084792E+03    0.79861E-06   -0.93042E-07  8687   0.260E-03    0.544E-03
RMM:   5    -0.671774083877E+03    0.91409E-06   -0.42546E-08  5317   0.205E-03    0.352E-03
RMM:   6    -0.671774082916E+03    0.96112E-06   -0.19721E-08  4834   0.198E-03    0.303E-03
RMM:   7    -0.671774082358E+03    0.55833E-06   -0.51341E-09  4752   0.199E-03    0.270E-03
RMM:   8    -0.671774081933E+03    0.42468E-06   -0.19051E-09  4691   0.200E-03
  92 F= -.67177408E+03 E0= -.67136379E+03  d E =-.131427E-03  mag=    79.9618
       N       E                     dE             d eps       ncg     rms          rms(c)
DAV:   1    -0.671774174340E+03   -0.91982E-04   -0.27348E-03 26960   0.648E-02    0.302E-02
RMM:   2    -0.671774183153E+03   -0.88131E-05   -0.70942E-05 14700   0.134E-02    0.210E-02
RMM:   3    -0.671774189729E+03   -0.65761E-05   -0.11093E-05 13892   0.635E-03    0.193E-02
RMM:   4    -0.671774188478E+03    0.12508E-05   -0.32450E-06 11830   0.378E-03    0.956E-03
RMM:   5    -0.671774188817E+03   -0.33900E-06   -0.48500E-07  7543   0.237E-03    0.728E-03
RMM:   6    -0.671774188877E+03   -0.59605E-07   -0.10404E-07  5926   0.211E-03    0.605E-03
RMM:   7    -0.671774188956E+03   -0.78697E-07   -0.36814E-08  5196   0.208E-03    0.442E-03
RMM:   8    -0.671774189111E+03   -0.15553E-06   -0.33038E-08  5021   0.209E-03
  93 F= -.67177419E+03 E0= -.67136393E+03  d E =-.107178E-03  mag=    79.9618
       N       E                     dE             d eps       ncg     rms          rms(c)
DAV:   1    -0.671774183450E+03    0.55060E-05   -0.17192E-02 27328   0.163E-01    0.758E-02
RMM:   2    -0.671774246106E+03   -0.62656E-04   -0.42740E-04 19206   0.329E-02    0.522E-02
RMM:   3    -0.671774277937E+03   -0.31831E-04   -0.73138E-05 14588   0.150E-02    0.490E-02
RMM:   4    -0.671774269375E+03    0.85612E-05   -0.23903E-05 14023   0.972E-03    0.240E-02
RMM:   5    -0.671774271126E+03   -0.17509E-05   -0.85095E-06 12834   0.507E-03    0.205E-02
RMM:   6    -0.671774270515E+03    0.61095E-06   -0.46372E-06 12001   0.402E-03    0.146E-02
RMM:   7    -0.671774270954E+03   -0.43819E-06   -0.20711E-06 10516   0.297E-03    0.130E-02
RMM:   8    -0.671774270794E+03    0.15972E-06   -0.16330E-07  6347   0.229E-03
  94 F= -.67177427E+03 E0= -.67136410E+03  d E =-.188861E-03  mag=    79.9618
       N       E                     dE             d eps       ncg     rms          rms(c)
DAV:   1    -0.671774324426E+03   -0.53472E-04   -0.16719E-03 26976   0.504E-02    0.244E-02
RMM:   2    -0.671774332074E+03   -0.76485E-05   -0.46904E-05 14532   0.109E-02    0.189E-02
RMM:   3    -0.671774337195E+03   -0.51209E-05   -0.79914E-06 13566   0.533E-03    0.198E-02
RMM:   4    -0.671774335694E+03    0.15008E-05   -0.21850E-06 11239   0.325E-03    0.887E-03
RMM:   5    -0.671774336235E+03   -0.54063E-06   -0.98261E-08  5474   0.205E-03    0.780E-03
RMM:   6    -0.671774336566E+03   -0.33062E-06   -0.42663E-08  5094   0.197E-03    0.483E-03
RMM:   7    -0.671774336947E+03   -0.38138E-06   -0.21415E-08  4871   0.186E-03    0.253E-03
RMM:   8    -0.671774337362E+03   -0.41444E-06   -0.17611E-08  4738   0.197E-03
  95 F= -.67177434E+03 E0= -.67136418E+03  d E =-.665677E-04  mag=    79.9617
       N       E                     dE             d eps       ncg     rms          rms(c)
DAV:   1    -0.671774341561E+03   -0.46142E-05   -0.10256E-02 26864   0.124E-01    0.598E-02
RMM:   2    -0.671774381359E+03   -0.39797E-04   -0.26560E-04 16700   0.255E-02    0.437E-02
RMM:   3    -0.671774402530E+03   -0.21171E-04   -0.46289E-05 14393   0.123E-02    0.406E-02
RMM:   4    -0.671774396130E+03    0.63996E-05   -0.14623E-05 13696   0.759E-03    0.193E-02
RMM:   5    -0.671774397010E+03   -0.87917E-06   -0.51317E-06 11995   0.405E-03    0.159E-02
RMM:   6    -0.671774396009E+03    0.10002E-05   -0.27364E-06 11261   0.319E-03    0.120E-02
RMM:   7    -0.671774395677E+03    0.33202E-06   -0.78702E-07  8038   0.254E-03    0.899E-03
RMM:   8    -0.671774395258E+03    0.41910E-06   -0.33292E-08  5263   0.212E-03
  96 F= -.67177440E+03 E0= -.67136428E+03  d E =-.124464E-03  mag=    79.9616
       N       E                     dE             d eps       ncg     rms          rms(c)
DAV:   1    -0.671774441862E+03   -0.46185E-04   -0.51247E-04 26784   0.298E-02    0.110E-02
RMM:   2    -0.671774443551E+03   -0.16890E-05   -0.15770E-05 14092   0.641E-03    0.110E-02
RMM:   3    -0.671774444353E+03   -0.80140E-06   -0.24013E-06 11575   0.324E-03    0.999E-03
RMM:   4    -0.671774443697E+03    0.65565E-06   -0.80477E-08  5436   0.202E-03    0.413E-03
RMM:   5    -0.671774443612E+03    0.85216E-07   -0.16025E-09  4449   0.192E-03    0.387E-03
RMM:   6    -0.671774443319E+03    0.29290E-06   -0.23896E-09  4406   0.182E-03    0.219E-03
RMM:   7    -0.671774443203E+03    0.11642E-06   -0.70288E-09  4523   0.195E-03    0.125E-03
RMM:   8    -0.671774443265E+03   -0.62399E-07   -0.33140E-09  4367   0.195E-03
  97 F= -.67177444E+03 E0= -.67136433E+03  d E =-.480069E-04  mag=    79.9615
       N       E                     dE             d eps       ncg     rms          rms(c)
DAV:   1    -0.671774470369E+03   -0.27166E-04   -0.16107E-03 26192   0.526E-02    0.189E-02
RMM:   2    -0.671774475503E+03   -0.51344E-05   -0.47439E-05 14502   0.111E-02    0.168E-02
RMM:   3    -0.671774478063E+03   -0.25593E-05   -0.74197E-06 13333   0.533E-03    0.154E-02
RMM:   4    -0.671774476866E+03    0.11963E-05   -0.18296E-06 10879   0.305E-03    0.760E-03
RMM:   5    -0.671774476663E+03    0.20303E-06   -0.28072E-08  4898   0.197E-03    0.683E-03
RMM:   6    -0.671774476187E+03    0.47637E-06   -0.20106E-08  4893   0.197E-03    0.535E-03
RMM:   7    -0.671774475865E+03    0.32224E-06   -0.95076E-09  4651   0.188E-03    0.242E-03
RMM:   8    -0.671774475920E+03   -0.55879E-07   -0.30841E-08  4734   0.203E-03
  98 F= -.67177448E+03 E0= -.67136436E+03  d E =-.806623E-04  mag=    79.9615
       N       E                     dE             d eps       ncg     rms          rms(c)
DAV:   1    -0.671774524220E+03   -0.48355E-04   -0.83729E-04 26304   0.370E-02    0.146E-02
RMM:   2    -0.671774526861E+03   -0.26412E-05   -0.24052E-05 14378   0.769E-03    0.122E-02
RMM:   3    -0.671774528475E+03   -0.16140E-05   -0.36150E-06 12145   0.370E-03    0.108E-02
RMM:   4    -0.671774527940E+03    0.53551E-06   -0.37796E-07  6802   0.230E-03    0.386E-03
RMM:   5    -0.671774528033E+03   -0.93132E-07   -0.43233E-09  4554   0.194E-03    0.317E-03
RMM:   6    -0.671774528171E+03   -0.13877E-06   -0.42253E-09  4603   0.195E-03    0.216E-03
RMM:   7    -0.671774528400E+03   -0.22817E-06   -0.47806E-09  4475   0.198E-03    0.224E-03
RMM:   8    -0.671774528545E+03   -0.14529E-06   -0.64559E-10  4345   0.198E-03
  99 F= -.67177453E+03 E0= -.67136441E+03  d E =-.526244E-04  mag=    79.9614
