 ----------------------------------------------------
    OOO  PPPP  EEEEE N   N M   M PPPP
   O   O P   P E     NN  N MM MM P   P
   O   O PPPP  EEEEE N N N M M M PPPP   -- VERSION
   O   O P     E     N  NN M   M P
    OOO  P     EEEEE N   N M   M P
 ----------------------------------------------------
 running   16 mpi-ranks, with    4 threads/rank
 distrk:  each k-point on   16 cores,    1 groups
 distr:  one band on    1 cores,   16 groups
 vasp.6.2.1 16May21 (build Jul 28 2021 23:24:15) complex                        
  
 POSCAR found type information on POSCAR IrO 
 POSCAR found :  2 types and      96 ions
 scaLAPACK will be used
 -----------------------------------------------------------------------------
|                                                                             |
|           W    W    AA    RRRRR   N    N  II  N    N   GGGG   !!!           |
|           W    W   A  A   R    R  NN   N  II  NN   N  G    G  !!!           |
|           W    W  A    A  R    R  N N  N  II  N N  N  G       !!!           |
|           W WW W  AAAAAA  RRRRR   N  N N  II  N  N N  G  GGG   !            |
|           WW  WW  A    A  R   R   N   NN  II  N   NN  G    G                |
|           W    W  A    A  R    R  N    N  II  N    N   GGGG   !!!           |
|                                                                             |
|     The real-space projection scheme for the treatment of the non-local     |
|     pseudopotentials has been switched on but on file POTCAR I have not     |
|     found any entries, signalling me that you have never performed a        |
|     real-space optimization of all non-local projectors! BE WARNED that     |
|     a calculation using the real-space projection scheme together with      |
|     non-local projectors which were not real-space optimized (according     |
|     to the plane-wave cutoff used in this calculation) might give more      |
|     or less inaccurate results. I hope you know what you are doing.         |
|                                                                             |
 -----------------------------------------------------------------------------

 LDA part: xc-table for Pade appr. of Perdew
 POSCAR, INCAR and KPOINTS ok, starting setup
 FFT: planning ...
 WAVECAR not read
 WARNING: random wavefunctions but no delay for mixing, default for NELMDL
 entering main loop
       N       E                     dE             d eps       ncg     rms          rms(c)
DAV:   1     0.731812070218E+04    0.73181E+04   -0.28274E+05 14608   0.124E+03
DAV:   2     0.605840087466E+03   -0.67123E+04   -0.60407E+04 15504   0.371E+02
DAV:   3    -0.708922542524E+03   -0.13148E+04   -0.12636E+04 18016   0.165E+02
DAV:   4    -0.781004597576E+03   -0.72082E+02   -0.70238E+02 19792   0.430E+01
DAV:   5    -0.782598052707E+03   -0.15935E+01   -0.15725E+01 18688   0.597E+00    0.177E+02
RMM:   6    -0.611902853962E+03    0.17070E+03   -0.57094E+02 14406   0.380E+01    0.125E+02
RMM:   7    -0.657193767688E+03   -0.45291E+02   -0.14366E+02 14441   0.243E+01    0.833E+01
RMM:   8    -0.653956814260E+03    0.32370E+01   -0.54888E+01 14499   0.124E+01    0.122E+02
RMM:   9    -0.583313465517E+03    0.70643E+02   -0.36225E+01 14433   0.119E+01    0.326E+01
RMM:  10    -0.606167573560E+03   -0.22854E+02   -0.20556E+01 14895   0.694E+00    0.507E+01
RMM:  11    -0.608829366131E+03   -0.26618E+01   -0.82889E+00 14664   0.469E+00    0.520E+01
RMM:  12    -0.584026124373E+03    0.24803E+02   -0.29783E+00 14502   0.313E+00    0.211E+01
RMM:  13    -0.593911347483E+03   -0.98852E+01   -0.26081E+00 14463   0.268E+00    0.169E+01
RMM:  14    -0.600367951988E+03   -0.64566E+01   -0.21476E+00 14461   0.262E+00    0.144E+01
RMM:  15    -0.612549223512E+03   -0.12181E+02   -0.44556E+00 15995   0.328E+00    0.124E+01
RMM:  16    -0.630588377597E+03   -0.18039E+02   -0.16422E+01 18873   0.505E+00    0.158E+01
RMM:  17    -0.628996747952E+03    0.15916E+01   -0.10339E+00 14548   0.162E+00    0.128E+01
RMM:  18    -0.631102294265E+03   -0.21055E+01   -0.49763E-01 14813   0.106E+00    0.114E+01
RMM:  19    -0.635748496622E+03   -0.46462E+01   -0.98159E-01 15781   0.145E+00    0.106E+01
RMM:  20    -0.637452528286E+03   -0.17040E+01   -0.39343E-01 14982   0.963E-01    0.944E+00
RMM:  21    -0.641543597900E+03   -0.40911E+01   -0.77809E-01 16450   0.124E+00    0.829E+00
RMM:  22    -0.645932050751E+03   -0.43885E+01   -0.12453E+00 17481   0.143E+00    0.796E+00
RMM:  23    -0.646645403631E+03   -0.71335E+00   -0.37962E-01 15621   0.874E-01    0.723E+00
RMM:  24    -0.648706551754E+03   -0.20611E+01   -0.32899E-01 15561   0.787E-01    0.569E+00
RMM:  25    -0.650383669978E+03   -0.16771E+01   -0.14399E-01 14819   0.583E-01    0.513E+00
RMM:  26    -0.651944223507E+03   -0.15606E+01   -0.20969E-01 15821   0.620E-01    0.454E+00
RMM:  27    -0.652801623090E+03   -0.85740E+00   -0.14347E-01 15517   0.509E-01    0.420E+00
RMM:  28    -0.653794977665E+03   -0.99335E+00   -0.21810E-01 16553   0.579E-01    0.382E+00
RMM:  29    -0.654682815763E+03   -0.88784E+00   -0.23520E-01 16970   0.572E-01    0.371E+00
RMM:  30    -0.655637270925E+03   -0.95446E+00   -0.33441E-01 17866   0.639E-01    0.390E+00
RMM:  31    -0.656042583577E+03   -0.40531E+00   -0.24421E-01 17081   0.512E-01    0.310E+00
RMM:  32    -0.656428169250E+03   -0.38559E+00   -0.94394E-02 16037   0.343E-01    0.252E+00
RMM:  33    -0.657027920185E+03   -0.59975E+00   -0.53883E-02 15624   0.264E-01    0.211E+00
RMM:  34    -0.657348665363E+03   -0.32075E+00   -0.30396E-02 15475   0.214E-01    0.184E+00
RMM:  35    -0.657536424600E+03   -0.18776E+00   -0.27961E-02 16119   0.225E-01    0.146E+00
RMM:  36    -0.657376208638E+03    0.16022E+00   -0.19446E-02 15361   0.201E-01    0.100E+00
RMM:  37    -0.657422573045E+03   -0.46364E-01   -0.38958E-03 14466   0.105E-01    0.801E-01
RMM:  38    -0.657480178689E+03   -0.57606E-01   -0.22137E-03 14304   0.733E-02    0.623E-01
RMM:  39    -0.657568290384E+03   -0.88112E-01   -0.28390E-03 15058   0.779E-02    0.405E-01
RMM:  40    -0.657688280549E+03   -0.11999E+00   -0.38988E-03 15734   0.760E-02    0.283E-01
RMM:  41    -0.657784603287E+03   -0.96323E-01   -0.18362E-03 13299   0.495E-02    0.253E-01
RMM:  42    -0.657860118499E+03   -0.75515E-01   -0.10227E-03 12200   0.371E-02    0.182E-01
RMM:  43    -0.657949449119E+03   -0.89331E-01   -0.10966E-03 11856   0.321E-02    0.142E-01
RMM:  44    -0.657997248512E+03   -0.47799E-01   -0.49631E-04 10913   0.246E-02    0.117E-01
RMM:  45    -0.658040597569E+03   -0.43349E-01   -0.50739E-04 10777   0.225E-02    0.104E-01
RMM:  46    -0.658060872375E+03   -0.20275E-01   -0.22621E-04  9698   0.178E-02    0.734E-02
RMM:  47    -0.658070848691E+03   -0.99763E-02   -0.17953E-04  9409   0.164E-02    0.545E-02
RMM:  48    -0.658073467189E+03   -0.26185E-02   -0.70412E-05  8872   0.123E-02    0.374E-02
RMM:  49    -0.658074675240E+03   -0.12081E-02   -0.33928E-05  8196   0.872E-03    0.279E-02
RMM:  50    -0.658075579322E+03   -0.90408E-03   -0.29796E-05  8269   0.746E-03    0.213E-02
RMM:  51    -0.658076057559E+03   -0.47824E-03   -0.11982E-05  7097   0.579E-03    0.171E-02
RMM:  52    -0.658076223001E+03   -0.16544E-03   -0.57794E-06  5331   0.405E-03    0.119E-02
RMM:  53    -0.658076395405E+03   -0.17240E-03   -0.40239E-06  4992   0.368E-03    0.110E-02
RMM:  54    -0.658076594044E+03   -0.19864E-03   -0.38397E-06  4928   0.358E-03    0.736E-03
RMM:  55    -0.658076809057E+03   -0.21501E-03   -0.34149E-06  4701   0.343E-03    0.600E-03
RMM:  56    -0.658076884612E+03   -0.75555E-04   -0.91671E-07  3317   0.301E-03
   1 F= -.65807688E+03 E0= -.65744849E+03  d E =-.658077E+03  mag=    -0.0004
 curvature:   0.00 expect dE= 0.000E+00 dE for cont linesearch  0.000E+00
 trial: gam= 0.00000 g(F)=  0.310E+02 g(S)=  0.000E+00 ort = 0.000E+00 (trialstep = 0.100E+01)
 search vector abs. value=  0.310E+02
 bond charge predicted
       N       E                     dE             d eps       ncg     rms          rms(c)
DAV:   1    -0.605593729378E+03    0.52483E+02   -0.78231E+03 14400   0.153E+02    0.306E+01
RMM:   2    -0.637186778271E+03   -0.31593E+02   -0.33469E+02 14339   0.334E+01    0.462E+01
RMM:   3    -0.641635701870E+03   -0.44489E+01   -0.46627E+01 15646   0.133E+01    0.270E+01
RMM:   4    -0.640071613440E+03    0.15641E+01   -0.73209E+00 14495   0.575E+00    0.327E+01
RMM:   5    -0.640432478596E+03   -0.36087E+00   -0.48386E+00 14582   0.420E+00    0.236E+01
RMM:   6    -0.640522369956E+03   -0.89891E-01   -0.18057E+00 14733   0.241E+00    0.250E+01
RMM:   7    -0.641747825443E+03   -0.12255E+01   -0.95569E-01 14569   0.176E+00    0.267E+01
RMM:   8    -0.640618096832E+03    0.11297E+01   -0.45904E-01 14879   0.109E+00    0.221E+01
RMM:   9    -0.639837065820E+03    0.78103E+00   -0.22120E-01 14369   0.880E-01    0.171E+01
RMM:  10    -0.639724896707E+03    0.11217E+00   -0.80607E-02 14479   0.548E-01    0.158E+01
RMM:  11    -0.639586173955E+03    0.13872E+00   -0.19568E-01 15987   0.739E-01    0.134E+01
RMM:  12    -0.639523325982E+03    0.62848E-01   -0.63828E-02 14466   0.445E-01    0.123E+01
RMM:  13    -0.639512278320E+03    0.11048E-01   -0.22799E-02 15583   0.255E-01    0.115E+01
RMM:  14    -0.639510772522E+03    0.15058E-02   -0.62427E-03 16446   0.120E-01    0.112E+01
RMM:  15    -0.639507816229E+03    0.29563E-02   -0.19855E-03 14387   0.744E-02    0.980E+00
RMM:  16    -0.639498557187E+03    0.92590E-02   -0.24057E-03 14385   0.825E-02    0.881E+00
RMM:  17    -0.639480787143E+03    0.17770E-01   -0.98709E-03 19134   0.143E-01    0.716E+00
RMM:  18    -0.639462916234E+03    0.17871E-01   -0.12191E-02 19399   0.160E-01    0.546E+00
RMM:  19    -0.639456870180E+03    0.60461E-02   -0.24861E-03 15377   0.775E-02    0.455E+00
RMM:  20    -0.639450494316E+03    0.63759E-02   -0.50249E-03 15319   0.103E-01    0.350E+00
RMM:  21    -0.639444467013E+03    0.60273E-02   -0.81804E-03 18629   0.130E-01    0.213E+00
RMM:  22    -0.639441969365E+03    0.24976E-02   -0.37836E-03 17846   0.940E-02    0.116E+00
RMM:  23    -0.639441256617E+03    0.71275E-03   -0.11805E-03 14361   0.533E-02    0.718E-01
RMM:  24    -0.639441046826E+03    0.20979E-03   -0.69646E-04 13409   0.409E-02    0.484E-01
RMM:  25    -0.639440980289E+03    0.66538E-04   -0.22711E-04  9417   0.258E-02
   2 F= -.63944098E+03 E0= -.63886806E+03  d E =0.186359E+02  mag=    -0.0009
 trial-energy change:   18.635904  1 .order   -0.259059  -31.011742   30.493625
 step:   0.5042(harm=  0.5042)  dis= 0.08261  next Energy=  -665.895130 (dE=-0.782E+01)
 bond charge predicted
       N       E                     dE             d eps       ncg     rms          rms(c)
DAV:   1    -0.648363765281E+03   -0.89227E+01   -0.19626E+03 14336   0.764E+01    0.191E+01
RMM:   2    -0.653923676566E+03   -0.55599E+01   -0.58145E+01 14350   0.153E+01    0.233E+01
RMM:   3    -0.654815150833E+03   -0.89147E+00   -0.87174E+00 15134   0.587E+00    0.161E+01
RMM:   4    -0.655347596512E+03   -0.53245E+00   -0.18030E+00 14612   0.275E+00    0.207E+01
RMM:   5    -0.655331575141E+03    0.16021E-01   -0.75247E-01 14435   0.168E+00    0.184E+01
RMM:   6    -0.656370538519E+03   -0.10390E+01   -0.46567E-01 14427   0.122E+00    0.208E+01
RMM:   7    -0.654756582545E+03    0.16140E+01   -0.19747E-01 14357   0.853E-01    0.158E+01
RMM:   8    -0.654856037266E+03   -0.99455E-01   -0.17792E-01 14516   0.705E-01    0.146E+01
RMM:   9    -0.654739736089E+03    0.11630E+00   -0.57422E-02 14354   0.506E-01    0.130E+01
RMM:  10    -0.654717429091E+03    0.22307E-01   -0.19232E-02 15424   0.212E-01    0.121E+01
RMM:  11    -0.654678780143E+03    0.38649E-01   -0.25344E-02 14371   0.257E-01    0.106E+01
RMM:  12    -0.654649737259E+03    0.29043E-01   -0.16526E-02 14467   0.227E-01    0.961E+00
RMM:  13    -0.654630078217E+03    0.19659E-01   -0.12997E-02 14715   0.191E-01    0.853E+00
RMM:  14    -0.654626460539E+03    0.36177E-02   -0.47559E-03 16229   0.111E-01    0.810E+00
RMM:  15    -0.654625036847E+03    0.14237E-02   -0.14644E-03 14431   0.645E-02    0.756E+00
RMM:  16    -0.654616325014E+03    0.87118E-02   -0.20644E-03 14608   0.719E-02    0.673E+00
RMM:  17    -0.654603407182E+03    0.12918E-01   -0.67727E-03 18043   0.117E-01    0.527E+00
RMM:  18    -0.654592361969E+03    0.11045E-01   -0.65449E-03 18847   0.116E-01    0.400E+00
RMM:  19    -0.654588512919E+03    0.38490E-02   -0.14649E-03 14842   0.595E-02    0.350E+00
RMM:  20    -0.654584545990E+03    0.39669E-02   -0.27502E-03 15155   0.766E-02    0.269E+00
RMM:  21    -0.654581458420E+03    0.30876E-02   -0.28266E-03 15338   0.781E-02    0.185E+00
RMM:  22    -0.654579202754E+03    0.22557E-02   -0.36225E-03 17499   0.897E-02    0.914E-01
RMM:  23    -0.654578866893E+03    0.33586E-03   -0.56670E-04 13488   0.367E-02    0.630E-01
RMM:  24    -0.654578708583E+03    0.15831E-03   -0.28589E-04 10012   0.280E-02    0.456E-01
RMM:  25    -0.654578703515E+03    0.50680E-05   -0.72914E-05  8713   0.178E-02
   3 F= -.65457870E+03 E0= -.65402862E+03  d E =0.349818E+01  mag=    -0.0004
 curvature:  -0.25 expect dE=-0.216E+02 dE for cont linesearch -0.204E+02
 ZBRENT: interpolating
 opt :   0.1927  next Energy=  -661.064149 (dE=-0.299E+01)
 bond charge predicted
       N       E                     dE             d eps       ncg     rms          rms(c)
DAV:   1    -0.660513916985E+03   -0.59352E+01   -0.77932E+02 14336   0.481E+01    0.873E+00
RMM:   2    -0.662416031585E+03   -0.19021E+01   -0.19893E+01 14336   0.910E+00    0.982E+00
RMM:   3    -0.662689281341E+03   -0.27325E+00   -0.28606E+00 15067   0.342E+00    0.586E+00
RMM:   4    -0.662853025875E+03   -0.16374E+00   -0.55322E-01 14675   0.158E+00    0.775E+00
RMM:   5    -0.663532505476E+03   -0.67948E+00   -0.26155E-01 14642   0.968E-01    0.111E+01
RMM:   6    -0.662876570490E+03    0.65593E+00   -0.11840E-01 14508   0.625E-01    0.661E+00
RMM:   7    -0.662688869118E+03    0.18770E+00   -0.60888E-02 14388   0.464E-01    0.426E+00
RMM:   8    -0.662677578736E+03    0.11290E-01   -0.32089E-02 14416   0.343E-01    0.304E+00
RMM:   9    -0.662675464240E+03    0.21145E-02   -0.96583E-03 15005   0.187E-01    0.257E+00
RMM:  10    -0.662674959929E+03    0.50431E-03   -0.39208E-03 14956   0.107E-01    0.223E+00
RMM:  11    -0.662669851660E+03    0.51083E-02   -0.33736E-03 14399   0.995E-02    0.167E+00
RMM:  12    -0.662668317854E+03    0.15338E-02   -0.30141E-03 14652   0.915E-02    0.116E+00
RMM:  13    -0.662668028015E+03    0.28984E-03   -0.11715E-03 14556   0.619E-02    0.852E-01
RMM:  14    -0.662668217138E+03   -0.18912E-03   -0.35618E-04 10910   0.339E-02    0.857E-01
RMM:  15    -0.662668110129E+03    0.10701E-03   -0.28722E-04 10006   0.288E-02    0.790E-01
RMM:  16    -0.662667949942E+03    0.16019E-03   -0.11421E-04  8706   0.194E-02    0.540E-01
RMM:  17    -0.662667822935E+03    0.12701E-03   -0.14973E-04  8668   0.208E-02    0.356E-01
RMM:  18    -0.662667762821E+03    0.60114E-04   -0.11705E-04  8647   0.193E-02
   4 F= -.66266776E+03 E0= -.66208175E+03  d E =-.459088E+01  mag=    -0.0002
 curvature:  -0.04 expect dE=-0.387E+00 dE for cont linesearch -0.202E+00
 ZBRENT: interpolating
 opt :   0.1356  next Energy=  -663.039735 (dE=-0.496E+01)
 bond charge predicted
       N       E                     dE             d eps       ncg     rms          rms(c)
DAV:   1    -0.662308167741E+03    0.35966E+00   -0.26200E+01 14848   0.881E+00    0.164E+00
RMM:   2    -0.662367219786E+03   -0.59052E-01   -0.60306E-01 14336   0.160E+00    0.164E+00
RMM:   3    -0.662379504215E+03   -0.12284E-01   -0.84664E-02 14795   0.595E-01    0.138E+00
RMM:   4    -0.662465463622E+03   -0.85959E-01   -0.28453E-02 14593   0.330E-01    0.352E+00
RMM:   5    -0.662482285578E+03   -0.16822E-01   -0.20458E-02 14517   0.244E-01    0.376E+00
RMM:   6    -0.662379808763E+03    0.10248E+00   -0.11232E-02 14457   0.209E-01    0.113E+00
RMM:   7    -0.662373836886E+03    0.59719E-02   -0.42401E-03 14402   0.131E-01    0.512E-01
RMM:   8    -0.662373664740E+03    0.17215E-03   -0.15205E-03 14330   0.646E-02    0.299E-01
RMM:   9    -0.662373659097E+03    0.56428E-05   -0.42309E-04 11643   0.377E-02
   5 F= -.66237366E+03 E0= -.66177688E+03  d E =-.429677E+01  mag=    -0.0002
 curvature:  -0.07 expect dE=-0.107E+01 dE for cont linesearch -0.940E+00
 ZBRENT: interpolating
 opt :   0.1706  next Energy=  -662.811394 (dE=-0.473E+01)
 bond charge predicted
       N       E                     dE             d eps       ncg     rms          rms(c)
DAV:   1    -0.662763787326E+03   -0.39012E+00   -0.98812E+00 14832   0.542E+00    0.808E-01
RMM:   2    -0.662786846324E+03   -0.23059E-01   -0.22385E-01 14336   0.973E-01    0.926E-01
RMM:   3    -0.662800255237E+03   -0.13409E-01   -0.31859E-02 14695   0.366E-01    0.140E+00
RMM:   4    -0.662799841325E+03    0.41391E-03   -0.84004E-03 14752   0.184E-01    0.139E+00
RMM:   5    -0.662791895247E+03    0.79461E-02   -0.35553E-03 14459   0.115E-01    0.848E-01
RMM:   6    -0.662789324512E+03    0.25707E-02   -0.22020E-03 14293   0.901E-02    0.579E-01
RMM:   7    -0.662787818788E+03    0.15057E-02   -0.13756E-03 14051   0.752E-02    0.294E-01
RMM:   8    -0.662787778185E+03    0.40603E-04   -0.57234E-04 13242   0.424E-02
   6 F= -.66278778E+03 E0= -.66219800E+03  d E =-.471089E+01  mag=    -0.0002
 curvature:  -0.01 expect dE=-0.354E-01 dE for cont linesearch -0.134E-02
 ZBRENT: interpolating
 opt :   0.1736  next Energy=  -662.790705 (dE=-0.471E+01)
 bond charge predicted
       N       E                     dE             d eps       ncg     rms          rms(c)
DAV:   1    -0.662790507618E+03   -0.26888E-02   -0.66397E-02 16352   0.447E-01    0.166E-01
RMM:   2    -0.662791332815E+03   -0.82520E-03   -0.19415E-03 14373   0.900E-02    0.349E-01
RMM:   3    -0.662791211068E+03    0.12175E-03   -0.38689E-04 11371   0.417E-02    0.294E-01
RMM:   4    -0.662791067376E+03    0.14369E-03   -0.17249E-04  8562   0.258E-02    0.276E-01
RMM:   5    -0.662790722683E+03    0.34469E-03   -0.93665E-05  8028   0.214E-02    0.101E-01
RMM:   6    -0.662790741640E+03   -0.18957E-04   -0.70260E-05  7943   0.172E-02    0.952E-02
RMM:   7    -0.662790738950E+03    0.26894E-05   -0.50206E-05  7816   0.135E-02    0.750E-02
RMM:   8    -0.662790713332E+03    0.25618E-04   -0.15365E-05  6798   0.818E-03
   7 F= -.66279071E+03 E0= -.66220108E+03  d E =-.471383E+01  mag=    -0.0001
 curvature:  -0.02 expect dE=-0.811E-01 dE for cont linesearch -0.420E-04
 trial: gam= 0.10753 g(F)=  0.357E+01 g(S)=  0.000E+00 ort = 0.240E+00 (trialstep = 0.835E+00)
 search vector abs. value=  0.398E+01
 bond charge predicted
       N       E                     dE             d eps       ncg     rms          rms(c)
DAV:   1    -0.657475992124E+03    0.53147E+01   -0.68014E+02 14336   0.405E+01    0.702E+00
RMM:   2    -0.660304027017E+03   -0.28280E+01   -0.17447E+01 14396   0.741E+00    0.165E+01
RMM:   3    -0.659177521426E+03    0.11265E+01   -0.30556E+00 15092   0.324E+00    0.540E+00
RMM:   4    -0.659266305382E+03   -0.88784E-01   -0.72591E-01 15037   0.160E+00    0.722E+00
RMM:   5    -0.659985993744E+03   -0.71969E+00   -0.26344E-01 14626   0.925E-01    0.123E+01
RMM:   6    -0.659231920187E+03    0.75407E+00   -0.10551E-01 14455   0.595E-01    0.643E+00
RMM:   7    -0.659097070363E+03    0.13485E+00   -0.79780E-02 14583   0.516E-01    0.336E+00
RMM:   8    -0.659051849920E+03    0.45220E-01   -0.87835E-02 14888   0.400E-01    0.154E+00
RMM:   9    -0.659043795364E+03    0.80546E-02   -0.11281E-02 14372   0.224E-01    0.101E+00
RMM:  10    -0.659042867121E+03    0.92824E-03   -0.39287E-03 14975   0.961E-02    0.870E-01
RMM:  11    -0.659041314707E+03    0.15524E-02   -0.18949E-03 14354   0.716E-02    0.772E-01
RMM:  12    -0.659038390619E+03    0.29241E-02   -0.35051E-03 15533   0.853E-02    0.285E-01
RMM:  13    -0.659038323289E+03    0.67330E-04   -0.13068E-03 13784   0.539E-02    0.163E-01
RMM:  14    -0.659038370413E+03   -0.47124E-04   -0.32589E-04 10307   0.291E-02
   8 F= -.65903837E+03 E0= -.65848519E+03  d E =0.375234E+01  mag=    -0.0001
 trial-energy change:    3.752343  1 .order   -0.154401   -3.004977    2.696175
 step:   0.4400(harm=  0.4400)  dis= 0.04274  next Energy=  -663.582649 (dE=-0.792E+00)
 bond charge predicted
       N       E                     dE             d eps       ncg     rms          rms(c)
DAV:   1    -0.661093374509E+03   -0.20551E+01   -0.15317E+02 14400   0.192E+01    0.296E+00
RMM:   2    -0.661655183333E+03   -0.56181E+00   -0.31367E+00 14360   0.323E+00    0.746E+00
RMM:   3    -0.661408199048E+03    0.24698E+00   -0.52413E-01 15111   0.136E+00    0.276E+00
RMM:   4    -0.661500866132E+03   -0.92667E-01   -0.13405E-01 15265   0.656E-01    0.424E+00
RMM:   5    -0.661743993070E+03   -0.24313E+00   -0.57050E-02 14456   0.407E-01    0.683E+00
RMM:   6    -0.661409498241E+03    0.33449E+00   -0.27194E-02 14348   0.330E-01    0.225E+00
RMM:   7    -0.661413081585E+03   -0.35833E-02   -0.33971E-02 15180   0.286E-01    0.153E+00
RMM:   8    -0.661397200998E+03    0.15881E-01   -0.13893E-02 14529   0.186E-01    0.765E-01
RMM:   9    -0.661395525078E+03    0.16759E-02   -0.35897E-03 14422   0.112E-01    0.529E-01
RMM:  10    -0.661395714327E+03   -0.18925E-03   -0.11211E-03 13785   0.480E-02    0.480E-01
RMM:  11    -0.661395342596E+03    0.37173E-03   -0.23883E-04  9580   0.260E-02    0.410E-01
RMM:  12    -0.661394656302E+03    0.68629E-03   -0.75684E-04 13234   0.405E-02    0.227E-01
RMM:  13    -0.661394635866E+03    0.20436E-04   -0.21917E-04  9109   0.258E-02
   9 F= -.66139464E+03 E0= -.66082559E+03  d E =0.139608E+01  mag=    -0.0001
 curvature:  -0.24 expect dE=-0.704E+01 dE for cont linesearch -0.332E+01
 ZBRENT: interpolating
 opt :   0.1444  next Energy=  -663.050568 (dE=-0.260E+00)
 bond charge predicted
       N       E                     dE             d eps       ncg     rms          rms(c)
DAV:   1    -0.662551435735E+03   -0.11568E+01   -0.86239E+01 14400   0.144E+01    0.211E+00
RMM:   2    -0.662838554833E+03   -0.28712E+00   -0.17147E+00 14356   0.241E+00    0.518E+00
RMM:   3    -0.662725315525E+03    0.11324E+00   -0.29618E-01 15299   0.100E+00    0.199E+00
RMM:   4    -0.662845397628E+03   -0.12008E+00   -0.72424E-02 15366   0.474E-01    0.429E+00
RMM:   5    -0.662791259717E+03    0.54138E-01   -0.25931E-02 14468   0.283E-01    0.340E+00
RMM:   6    -0.662724117876E+03    0.67142E-01   -0.12514E-02 14344   0.226E-01    0.158E+00
RMM:   7    -0.662724311885E+03   -0.19401E-03   -0.18191E-02 15299   0.208E-01    0.107E+00
RMM:   8    -0.662718249924E+03    0.60620E-02   -0.89140E-03 14630   0.142E-01    0.577E-01
RMM:   9    -0.662717083049E+03    0.11669E-02   -0.20983E-03 13762   0.883E-02    0.402E-01
RMM:  10    -0.662716921059E+03    0.16199E-03   -0.65251E-04 12353   0.378E-02    0.312E-01
RMM:  11    -0.662716796373E+03    0.12469E-03   -0.14450E-04  8990   0.225E-02    0.255E-01
RMM:  12    -0.662716583682E+03    0.21269E-03   -0.34948E-04 10747   0.282E-02    0.165E-01
RMM:  13    -0.662716581892E+03    0.17902E-05   -0.18185E-04  8878   0.229E-02
  10 F= -.66271658E+03 E0= -.66213405E+03  d E =0.741314E-01  mag=    -0.0000
 curvature:  -0.02 expect dE=-0.225E+00 dE for cont linesearch -0.106E+00
 ZBRENT: interpolating
 opt :   0.0625  next Energy=  -662.903217 (dE=-0.113E+00)
 bond charge predicted
       N       E                     dE             d eps       ncg     rms          rms(c)
DAV:   1    -0.662909154249E+03   -0.19257E+00   -0.66166E+00 14784   0.398E+00    0.590E-01
RMM:   2    -0.662931452390E+03   -0.22298E-01   -0.13262E-01 14358   0.672E-01    0.148E+00
RMM:   3    -0.662924608202E+03    0.68442E-02   -0.23632E-02 15363   0.281E-01    0.791E-01
RMM:   4    -0.662932705759E+03   -0.80976E-02   -0.57518E-03 15505   0.129E-01    0.127E+00
RMM:   5    -0.662924540924E+03    0.81648E-02   -0.21081E-03 14244   0.858E-02    0.752E-01
RMM:   6    -0.662922458637E+03    0.20823E-02   -0.98383E-04 13366   0.644E-02    0.475E-01
RMM:   7    -0.662922413106E+03    0.45530E-04   -0.13984E-03 14018   0.594E-02    0.287E-01
RMM:   8    -0.662922067273E+03    0.34583E-03   -0.78505E-04 12883   0.410E-02    0.167E-01
RMM:   9    -0.662922017112E+03    0.50161E-04   -0.16503E-04  9205   0.256E-02
  11 F= -.66292202E+03 E0= -.66233586E+03  d E =-.131304E+00  mag=    -0.0000
 curvature:  -0.02 expect dE=-0.306E-01 dE for cont linesearch -0.513E-03
 ZBRENT: interpolating
 opt :   0.0682  next Energy=  -662.922979 (dE=-0.132E+00)
 bond charge predicted
       N       E                     dE             d eps       ncg     rms          rms(c)
DAV:   1    -0.662922637792E+03   -0.57052E-03   -0.31996E-02 15344   0.278E-01    0.997E-02
RMM:   2    -0.662923510432E+03   -0.87264E-03   -0.85518E-04 13597   0.531E-02    0.347E-01
RMM:   3    -0.662923247312E+03    0.26312E-03   -0.23161E-04  9537   0.326E-02    0.292E-01
RMM:   4    -0.662922656425E+03    0.59089E-03   -0.63830E-05  8012   0.175E-02    0.837E-02
RMM:   5    -0.662922654163E+03    0.22625E-05   -0.20641E-05  7946   0.991E-03    0.332E-02
RMM:   6    -0.662922668344E+03   -0.14181E-04   -0.15865E-05  7256   0.694E-03    0.298E-02
RMM:   7    -0.662922683663E+03   -0.15318E-04   -0.16028E-05  7565   0.695E-03    0.296E-02
RMM:   8    -0.662922688171E+03   -0.45084E-05   -0.57494E-06  6580   0.555E-03
  12 F= -.66292269E+03 E0= -.66233653E+03  d E =-.131975E+00  mag=    -0.0000
 curvature:  -0.04 expect dE=-0.654E-01 dE for cont linesearch -0.659E-04
 trial: gam= 0.39025 g(F)=  0.173E+01 g(S)=  0.000E+00 ort =-0.833E-01 (trialstep = 0.681E+00)
 search vector abs. value=  0.227E+01
 bond charge predicted
       N       E                     dE             d eps       ncg     rms          rms(c)
DAV:   1    -0.660902908501E+03    0.20198E+01   -0.23288E+02 14336   0.219E+01    0.443E+00
RMM:   2    -0.662238919504E+03   -0.13360E+01   -0.50568E+00 14373   0.473E+00    0.133E+01
RMM:   3    -0.661378473377E+03    0.86045E+00   -0.12919E+00 15896   0.200E+00    0.440E+00
RMM:   4    -0.661399294578E+03   -0.20821E-01   -0.24739E-01 16441   0.834E-01    0.434E+00
RMM:   5    -0.661569151757E+03   -0.16986E+00   -0.85586E-02 14360   0.512E-01    0.663E+00
RMM:   6    -0.661644202020E+03   -0.75050E-01   -0.59590E-02 14439   0.392E-01    0.724E+00
RMM:   7    -0.661356322625E+03    0.28788E+00   -0.10026E-01 15943   0.493E-01    0.195E+00
RMM:   8    -0.661341401924E+03    0.14921E-01   -0.68837E-02 15284   0.354E-01    0.916E-01
RMM:   9    -0.661339147573E+03    0.22544E-02   -0.64342E-03 14810   0.152E-01    0.714E-01
RMM:  10    -0.661337499109E+03    0.16485E-02   -0.18028E-03 14255   0.695E-02    0.615E-01
RMM:  11    -0.661334054317E+03    0.34448E-02   -0.13440E-02 18016   0.151E-01    0.408E-01
RMM:  12    -0.661333458765E+03    0.59555E-03   -0.19320E-03 14934   0.674E-02    0.240E-01
RMM:  13    -0.661333172908E+03    0.28586E-03   -0.42792E-04 11942   0.396E-02    0.140E-01
RMM:  14    -0.661333146219E+03    0.26689E-04   -0.13035E-04  8877   0.198E-02
  13 F= -.66133315E+03 E0= -.66074135E+03  d E =0.158954E+01  mag=    -0.0000
 trial-energy change:    1.589542  1 .order    0.677324   -1.157749    2.512396
 step:   0.2149(harm=  0.2149)  dis= 0.01417  next Energy=  -663.105294 (dE=-0.183E+00)
 bond charge predicted
       N       E                     dE             d eps       ncg     rms          rms(c)
DAV:   1    -0.662633687737E+03   -0.13005E+01   -0.10907E+02 14336   0.150E+01    0.385E+00
RMM:   2    -0.663125213529E+03   -0.49153E+00   -0.21289E+00 14364   0.291E+00    0.728E+00
RMM:   3    -0.662839302405E+03    0.28591E+00   -0.44461E-01 15149   0.125E+00    0.316E+00
RMM:   4    -0.662875493563E+03   -0.36191E-01   -0.11739E-01 14852   0.658E-01    0.328E+00
RMM:   5    -0.662902895895E+03   -0.27402E-01   -0.68575E-02 14402   0.508E-01    0.389E+00
RMM:   6    -0.662996177174E+03   -0.93281E-01   -0.37178E-02 14457   0.308E-01    0.515E+00
RMM:   7    -0.662818468742E+03    0.17771E+00   -0.32794E-02 14878   0.312E-01    0.100E+00
RMM:   8    -0.662812178572E+03    0.62902E-02   -0.14183E-02 14605   0.195E-01    0.393E-01
RMM:   9    -0.662812384912E+03   -0.20634E-03   -0.27211E-03 14548   0.853E-02    0.381E-01
RMM:  10    -0.662811887512E+03    0.49740E-03   -0.60940E-04 12418   0.400E-02    0.270E-01
RMM:  11    -0.662811817918E+03    0.69594E-04   -0.81833E-04 13161   0.420E-02
  14 F= -.66281182E+03 E0= -.66222522E+03  d E =0.110870E+00  mag=    -0.0000
 curvature:  -0.14 expect dE=-0.129E+01 dE for cont linesearch -0.339E+00
 ZBRENT: interpolating
 opt :   0.0910  next Energy=  -662.999963 (dE=-0.773E-01)
 bond charge predicted
       N       E                     dE             d eps       ncg     rms          rms(c)
DAV:   1    -0.662975845504E+03   -0.16396E+00   -0.77141E+00 14720   0.399E+00    0.823E-01
RMM:   2    -0.663021944662E+03   -0.46099E-01   -0.15011E-01 14362   0.772E-01    0.233E+00
RMM:   3    -0.662997284669E+03    0.24660E-01   -0.31746E-02 15333   0.328E-01    0.131E+00
RMM:   4    -0.663001679234E+03   -0.43946E-02   -0.89806E-03 15654   0.162E-01    0.150E+00
RMM:   5    -0.662989904783E+03    0.11774E-01   -0.26107E-03 14365   0.998E-02    0.695E-01
RMM:   6    -0.662989781056E+03    0.12373E-03   -0.33784E-03 14715   0.981E-02    0.713E-01
RMM:   7    -0.662988826502E+03    0.95455E-03   -0.34216E-03 15520   0.924E-02    0.377E-01
RMM:   8    -0.662988420641E+03    0.40586E-03   -0.12509E-03 13487   0.582E-02    0.313E-01
RMM:   9    -0.662987944572E+03    0.47607E-03   -0.51737E-04 11854   0.400E-02    0.141E-01
RMM:  10    -0.662987920827E+03    0.23744E-04   -0.10124E-04  8646   0.183E-02
  15 F= -.66298792E+03 E0= -.66240187E+03  d E =-.652327E-01  mag=    -0.0000
 curvature:  -0.03 expect dE=-0.583E-01 dE for cont linesearch -0.126E-02
 trial: gam= 1.02754 g(F)=  0.178E+01 g(S)=  0.000E+00 ort =-0.295E+00 (trialstep = 0.358E+00)
 search vector abs. value=  0.357E+01
 bond charge predicted
       N       E                     dE             d eps       ncg     rms          rms(c)
DAV:   1    -0.662721032796E+03    0.26691E+00   -0.92778E+01 14336   0.115E+01    0.283E+00
RMM:   2    -0.663323673947E+03   -0.60264E+00   -0.17572E+00 14340   0.274E+00    0.101E+01
RMM:   3    -0.662907356004E+03    0.41632E+00   -0.51391E-01 16424   0.111E+00    0.452E+00
RMM:   4    -0.663090900265E+03   -0.18354E+00   -0.80482E-02 15804   0.444E-01    0.694E+00
RMM:   5    -0.662984603189E+03    0.10630E+00   -0.23792E-02 14465   0.264E-01    0.572E+00
RMM:   6    -0.662913175401E+03    0.71428E-01   -0.65956E-02 16198   0.374E-01    0.401E+00
RMM:   7    -0.662851318038E+03    0.61857E-01   -0.87065E-02 17520   0.426E-01    0.153E+00
RMM:   8    -0.662841771200E+03    0.95468E-02   -0.13703E-02 14447   0.186E-01    0.708E-01
RMM:   9    -0.662841705739E+03    0.65461E-04   -0.34745E-03 14587   0.114E-01    0.749E-01
RMM:  10    -0.662838985116E+03    0.27206E-02   -0.18879E-03 13640   0.707E-02    0.520E-01
RMM:  11    -0.662837673193E+03    0.13119E-02   -0.88992E-03 17665   0.120E-01    0.445E-01
RMM:  12    -0.662836653654E+03    0.10195E-02   -0.14425E-03 14107   0.570E-02    0.278E-01
RMM:  13    -0.662836360746E+03    0.29291E-03   -0.41970E-04 11326   0.360E-02    0.145E-01
RMM:  14    -0.662836400264E+03   -0.39518E-04   -0.12809E-04  8878   0.200E-02
  16 F= -.66283640E+03 E0= -.66224671E+03  d E =0.151521E+00  mag=    -0.0000
 trial-energy change:    0.151521  1 .order    0.096662   -0.529111    0.722435
 step:   0.1298(harm=  0.1515)  dis= 0.01300  next Energy=  -663.081093 (dE=-0.932E-01)
 bond charge predicted
       N       E                     dE             d eps       ncg     rms          rms(c)
DAV:   1    -0.663018275248E+03   -0.18191E+00   -0.37718E+01 14464   0.733E+00    0.296E+00
RMM:   2    -0.663228839526E+03   -0.21056E+00   -0.63107E-01 14336   0.152E+00    0.537E+00
RMM:   3    -0.663069756112E+03    0.15908E+00   -0.14106E-01 15034   0.671E-01    0.176E+00
RMM:   4    -0.663602534948E+03   -0.53278E+00   -0.80454E-02 14505   0.444E-01    0.852E+00
RMM:   5    -0.663124735248E+03    0.47780E+00   -0.45790E-02 14456   0.402E-01    0.328E+00
RMM:   6    -0.663071798333E+03    0.52937E-01   -0.29870E-02 14534   0.312E-01    0.146E+00
RMM:   7    -0.663059405452E+03    0.12393E-01   -0.99500E-03 14401   0.183E-01    0.490E-01
RMM:   8    -0.663058628216E+03    0.77724E-03   -0.42159E-03 14652   0.914E-02    0.357E-01
RMM:   9    -0.663058794524E+03   -0.16631E-03   -0.10780E-03 13487   0.571E-02    0.381E-01
RMM:  10    -0.663058278417E+03    0.51611E-03   -0.39345E-04 11234   0.347E-02    0.216E-01
RMM:  11    -0.663058151527E+03    0.12689E-03   -0.29621E-04 10504   0.291E-02    0.154E-01
RMM:  12    -0.663058112521E+03    0.39006E-04   -0.31176E-04 10047   0.270E-02
  17 F= -.66305811E+03 E0= -.66247181E+03  d E =-.701917E-01  mag=    -0.0000
 curvature:  -0.18 expect dE=-0.286E+00 dE for cont linesearch -0.933E-03
 trial: gam= 0.75877 g(F)=  0.158E+01 g(S)=  0.000E+00 ort =-0.136E+00 (trialstep = 0.313E+00)
 search vector abs. value=  0.343E+01
 bond charge predicted
       N       E                     dE             d eps       ncg     rms          rms(c)
DAV:   1    -0.662432289309E+03    0.62586E+00   -0.71222E+01 14464   0.116E+01    0.270E+00
RMM:   2    -0.662816774409E+03   -0.38449E+00   -0.14189E+00 14378   0.258E+00    0.795E+00
RMM:   3    -0.662608241434E+03    0.20853E+00   -0.40736E-01 16864   0.103E+00    0.406E+00
RMM:   4    -0.662864608565E+03   -0.25637E+00   -0.65814E-02 14668   0.442E-01    0.742E+00
RMM:   5    -0.662714186346E+03    0.15042E+00   -0.33846E-02 14378   0.333E-01    0.580E+00
RMM:   6    -0.662621571808E+03    0.92615E-01   -0.34554E-02 14682   0.317E-01    0.382E+00
RMM:   7    -0.662568332757E+03    0.53239E-01   -0.60695E-02 16544   0.379E-01    0.146E+00
RMM:   8    -0.662560603380E+03    0.77294E-02   -0.13616E-02 14551   0.184E-01    0.798E-01
RMM:   9    -0.662560298956E+03    0.30442E-03   -0.28279E-03 15230   0.901E-02    0.723E-01
RMM:  10    -0.662559756418E+03    0.54254E-03   -0.49506E-04 11808   0.356E-02    0.698E-01
RMM:  11    -0.662556712049E+03    0.30444E-02   -0.83670E-03 19084   0.116E-01    0.512E-01
RMM:  12    -0.662555586590E+03    0.11255E-02   -0.11644E-03 14845   0.508E-02    0.273E-01
RMM:  13    -0.662555433946E+03    0.15264E-03   -0.32411E-04 10490   0.305E-02    0.190E-01
RMM:  14    -0.662555393308E+03    0.40638E-04   -0.69502E-05  8694   0.180E-02
  18 F= -.66255539E+03 E0= -.66197589E+03  d E =0.502719E+00  mag=    -0.0000
 trial-energy change:    0.502719  1 .order    0.438529   -0.460704    1.337763
 step:   0.0686(harm=  0.0801)  dis= 0.00599  next Energy=  -663.107991 (dE=-0.499E-01)
 bond charge predicted
       N       E                     dE             d eps       ncg     rms          rms(c)
DAV:   1    -0.663048967763E+03   -0.49353E+00   -0.43367E+01 14336   0.907E+00    0.268E+00
RMM:   2    -0.663274259465E+03   -0.22529E+00   -0.79836E-01 14366   0.183E+00    0.562E+00
RMM:   3    -0.663143984985E+03    0.13027E+00   -0.19331E-01 16300   0.759E-01    0.274E+00
RMM:   4    -0.663638388752E+03   -0.49440E+00   -0.78130E-02 14424   0.449E-01    0.841E+00
RMM:   5    -0.663223347852E+03    0.41504E+00   -0.52569E-02 14460   0.423E-01    0.418E+00
RMM:   6    -0.663127178423E+03    0.96169E-01   -0.32273E-02 14426   0.336E-01    0.144E+00
RMM:   7    -0.663117185645E+03    0.99928E-02   -0.13938E-02 14420   0.210E-01    0.532E-01
RMM:   8    -0.663117171777E+03    0.13868E-04   -0.47688E-03 15072   0.105E-01    0.454E-01
RMM:   9    -0.663116524034E+03    0.64774E-03   -0.10641E-03 13103   0.617E-02    0.366E-01
RMM:  10    -0.663116160909E+03    0.36312E-03   -0.56237E-04 12128   0.388E-02    0.237E-01
RMM:  11    -0.663116026479E+03    0.13443E-03   -0.63503E-04 12737   0.370E-02    0.182E-01
RMM:  12    -0.663115903903E+03    0.12258E-03   -0.45589E-04 11987   0.334E-02    0.948E-02
RMM:  13    -0.663115907180E+03   -0.32766E-05   -0.11452E-04  8672   0.194E-02
  19 F= -.66311591E+03 E0= -.66253145E+03  d E =-.577947E-01  mag=    -0.0000
 curvature:  -0.09 expect dE=-0.280E-01 dE for cont linesearch -0.806E-03
 ZBRENT: interpolating
 opt :   0.0781  next Energy=  -663.116722 (dE=-0.586E-01)
 bond charge predicted
       N       E                     dE             d eps       ncg     rms          rms(c)
DAV:   1    -0.663116458743E+03   -0.55484E-03   -0.64424E-02 14992   0.349E-01    0.112E-01
RMM:   2    -0.663118383528E+03   -0.19248E-02   -0.16460E-03 14366   0.794E-02    0.532E-01
RMM:   3    -0.663116957375E+03    0.14262E-02   -0.37850E-04 11219   0.397E-02    0.273E-01
RMM:   4    -0.663116551617E+03    0.40576E-03   -0.12055E-04  8426   0.219E-02    0.107E-01
RMM:   5    -0.663116608767E+03   -0.57150E-04   -0.55124E-05  8045   0.157E-02    0.124E-01
RMM:   6    -0.663116559388E+03    0.49379E-04   -0.27681E-05  7837   0.112E-02    0.738E-02
RMM:   7    -0.663116560225E+03   -0.83731E-06   -0.21724E-05  7742   0.894E-03    0.611E-02
RMM:   8    -0.663116553688E+03    0.65371E-05   -0.10351E-05  6935   0.661E-03
  20 F= -.66311655E+03 E0= -.66253233E+03  d E =-.584412E-01  mag=    -0.0000
 curvature:  -0.09 expect dE=-0.388E-01 dE for cont linesearch -0.213E-04
 trial: gam= 0.38970 g(F)=  0.412E+00 g(S)=  0.000E+00 ort =-0.279E-01 (trialstep = 0.266E+00)
 search vector abs. value=  0.911E+00
 bond charge predicted
       N       E                     dE             d eps       ncg     rms          rms(c)
DAV:   1    -0.663019770082E+03    0.96790E-01   -0.13619E+01 14496   0.484E+00    0.108E+00
RMM:   2    -0.663098533985E+03   -0.78764E-01   -0.26793E-01 14384   0.101E+00    0.324E+00
RMM:   3    -0.663045082037E+03    0.53452E-01   -0.74206E-02 16388   0.434E-01    0.108E+00
RMM:   4    -0.663082962608E+03   -0.37881E-01   -0.13307E-02 15067   0.189E-01    0.252E+00
RMM:   5    -0.663049886200E+03    0.33076E-01   -0.55109E-03 14400   0.133E-01    0.142E+00
RMM:   6    -0.663043667082E+03    0.62191E-02   -0.48289E-03 14534   0.118E-01    0.915E-01
RMM:   7    -0.663041244408E+03    0.24227E-02   -0.52973E-03 15459   0.116E-01    0.479E-01
RMM:   8    -0.663040418122E+03    0.82629E-03   -0.24312E-03 13987   0.695E-02    0.230E-01
RMM:   9    -0.663040257247E+03    0.16088E-03   -0.32806E-04 10887   0.337E-02    0.152E-01
RMM:  10    -0.663040173302E+03    0.83944E-04   -0.10784E-04  8694   0.190E-02
  21 F= -.66304017E+03 E0= -.66245717E+03  d E =0.763804E-01  mag=    -0.0000
 trial-energy change:    0.076380  1 .order    0.066222   -0.106716    0.239160
 step:   0.0727(harm=  0.0820)  dis= 0.00344  next Energy=  -663.130940 (dE=-0.144E-01)
 bond charge predicted
       N       E                     dE             d eps       ncg     rms          rms(c)
DAV:   1    -0.663123488732E+03   -0.83231E-01   -0.71993E+00 14768   0.352E+00    0.862E-01
RMM:   2    -0.663170144918E+03   -0.46656E-01   -0.13578E-01 14374   0.703E-01    0.245E+00
RMM:   3    -0.663134557186E+03    0.35588E-01   -0.32460E-02 15662   0.310E-01    0.732E-01
RMM:   4    -0.663136684536E+03   -0.21273E-02   -0.79129E-03 15170   0.152E-01    0.888E-01
RMM:   5    -0.663145473994E+03   -0.87895E-02   -0.43910E-03 14372   0.118E-01    0.134E+00
RMM:   6    -0.663136523418E+03    0.89506E-02   -0.20870E-03 13706   0.788E-02    0.809E-01
RMM:   7    -0.663133051476E+03    0.34719E-02   -0.18972E-03 14005   0.718E-02    0.215E-01
RMM:   8    -0.663133188156E+03   -0.13668E-03   -0.64865E-04 12533   0.419E-02    0.262E-01
RMM:   9    -0.663132899686E+03    0.28847E-03   -0.24298E-04 10112   0.295E-02    0.125E-01
RMM:  10    -0.663132858624E+03    0.41062E-04   -0.65591E-05  8483   0.160E-02
  22 F= -.66313286E+03 E0= -.66254923E+03  d E =-.163049E-01  mag=    -0.0000
 curvature:  -0.09 expect dE=-0.308E-01 dE for cont linesearch -0.184E-03
 trial: gam= 0.66821 g(F)=  0.332E+00 g(S)=  0.000E+00 ort = 0.425E-01 (trialstep = 0.227E+00)
 search vector abs. value=  0.795E+00
 bond charge predicted
       N       E                     dE             d eps       ncg     rms          rms(c)
DAV:   1    -0.663102804137E+03    0.30096E-01   -0.85826E+00 14528   0.385E+00    0.967E-01
RMM:   2    -0.663156516129E+03   -0.53712E-01   -0.17000E-01 14336   0.869E-01    0.288E+00
RMM:   3    -0.663119721615E+03    0.36795E-01   -0.45965E-02 16320   0.359E-01    0.131E+00
RMM:   4    -0.663125580528E+03   -0.58589E-02   -0.78928E-03 15569   0.154E-01    0.158E+00
RMM:   5    -0.663163250078E+03   -0.37670E-01   -0.58545E-03 14499   0.118E-01    0.272E+00
RMM:   6    -0.663120129503E+03    0.43121E-01   -0.71692E-03 15502   0.135E-01    0.111E+00
RMM:   7    -0.663115286568E+03    0.48429E-02   -0.55064E-03 15565   0.122E-01    0.397E-01
RMM:   8    -0.663114648628E+03    0.63794E-03   -0.15048E-03 13592   0.632E-02    0.214E-01
RMM:   9    -0.663114639980E+03    0.86485E-05   -0.39073E-04 11290   0.359E-02
  23 F= -.66311464E+03 E0= -.66252842E+03  d E =0.182186E-01  mag=    -0.0000
 trial-energy change:    0.018219  1 .order    0.019077   -0.081817    0.119970
 step:   0.0935(harm=  0.0921)  dis= 0.00438  next Energy=  -663.149758 (dE=-0.169E-01)
 bond charge predicted
       N       E                     dE             d eps       ncg     rms          rms(c)
DAV:   1    -0.663146722115E+03   -0.32073E-01   -0.29792E+00 14640   0.227E+00    0.657E-01
RMM:   2    -0.663169660917E+03   -0.22939E-01   -0.58080E-02 14336   0.498E-01    0.187E+00
RMM:   3    -0.663151186956E+03    0.18474E-01   -0.13160E-02 15368   0.212E-01    0.738E-01
RMM:   4    -0.663161336417E+03   -0.10149E-01   -0.39153E-03 14903   0.107E-01    0.135E+00
RMM:   5    -0.663156896009E+03    0.44404E-02   -0.20537E-03 13898   0.776E-02    0.112E+00
RMM:   6    -0.663150821765E+03    0.60742E-02   -0.35250E-03 15709   0.930E-02    0.529E-01
RMM:   7    -0.663149693071E+03    0.11287E-02   -0.14771E-03 13793   0.649E-02    0.217E-01
RMM:   8    -0.663149724528E+03   -0.31457E-04   -0.39831E-04 11483   0.352E-02
  24 F= -.66314972E+03 E0= -.66256522E+03  d E =-.168659E-01  mag=    -0.0000
 curvature:  -0.10 expect dE=-0.361E-01 dE for cont linesearch -0.587E-08
 trial: gam= 1.14124 g(F)=  0.355E+00 g(S)=  0.000E+00 ort = 0.214E-03 (trialstep = 0.115E+00)
 search vector abs. value=  0.139E+01
 bond charge predicted
       N       E                     dE             d eps       ncg     rms          rms(c)
DAV:   1    -0.663164739477E+03   -0.15046E-01   -0.36590E+00 14720   0.222E+00    0.767E-01
RMM:   2    -0.663193451102E+03   -0.28712E-01   -0.71519E-02 14336   0.543E-01    0.223E+00
RMM:   3    -0.663172437189E+03    0.21014E-01   -0.19865E-02 16166   0.227E-01    0.109E+00
RMM:   4    -0.663193630925E+03   -0.21194E-01   -0.46221E-03 15040   0.102E-01    0.200E+00
RMM:   5    -0.663177120760E+03    0.16510E-01   -0.29128E-03 14228   0.941E-02    0.139E+00
RMM:   6    -0.663171958821E+03    0.51619E-02   -0.57412E-03 16278   0.115E-01    0.828E-01
RMM:   7    -0.663169126696E+03    0.28321E-02   -0.32384E-03 15290   0.902E-02    0.367E-01
RMM:   8    -0.663168851622E+03    0.27507E-03   -0.63651E-04 12999   0.459E-02    0.300E-01
RMM:   9    -0.663168461909E+03    0.38971E-03   -0.33394E-04 10719   0.329E-02    0.160E-01
RMM:  10    -0.663168367150E+03    0.94759E-04   -0.12663E-04  8790   0.196E-02
  25 F= -.66316837E+03 E0= -.66258337E+03  d E =-.186426E-01  mag=    -0.0000
 trial-energy change:   -0.018643  1 .order   -0.018325   -0.040682    0.004031
 step:   0.1043(harm=  0.1043)  dis= 0.00666  next Energy=  -663.168231 (dE=-0.185E-01)
 bond charge predicted
       N       E                     dE             d eps       ncg     rms          rms(c)
DAV:   1    -0.663168363981E+03    0.97928E-04   -0.30721E-02 14768   0.210E-01    0.976E-02
RMM:   2    -0.663169291436E+03   -0.92745E-03   -0.86696E-04 13058   0.530E-02    0.379E-01
RMM:   3    -0.663168404875E+03    0.88656E-03   -0.18730E-04  8977   0.300E-02    0.131E-01
RMM:   4    -0.663168596255E+03   -0.19138E-03   -0.69618E-05  7801   0.153E-02    0.198E-01
RMM:   5    -0.663168378596E+03    0.21766E-03   -0.40496E-05  7765   0.128E-02    0.961E-02
RMM:   6    -0.663168357351E+03    0.21246E-04   -0.23127E-05  7234   0.928E-03    0.480E-02
RMM:   7    -0.663168370456E+03   -0.13106E-04   -0.24713E-05  7576   0.877E-03    0.553E-02
RMM:   8    -0.663168359079E+03    0.11377E-04   -0.12767E-05  6771   0.755E-03
  26 F= -.66316836E+03 E0= -.66258348E+03  d E =-.186346E-01  mag=    -0.0000
 curvature:  -0.20 expect dE=-0.871E-01 dE for cont linesearch -0.111E-04
 trial: gam= 0.81587 g(F)=  0.427E+00 g(S)=  0.000E+00 ort = 0.869E-02 (trialstep = 0.113E+00)
 search vector abs. value=  0.137E+01
 bond charge predicted
       N       E                     dE             d eps       ncg     rms          rms(c)
DAV:   1    -0.663167585582E+03    0.78487E-03   -0.35967E+00 14448   0.246E+00    0.722E-01
RMM:   2    -0.663184665971E+03   -0.17080E-01   -0.71524E-02 14384   0.559E-01    0.168E+00
RMM:   3    -0.663175113232E+03    0.95527E-02   -0.21287E-02 16898   0.228E-01    0.868E-01
RMM:   4    -0.663180761283E+03   -0.56481E-02   -0.31670E-03 14708   0.966E-02    0.125E+00
RMM:   5    -0.663203755880E+03   -0.22995E-01   -0.36370E-03 14547   0.918E-02    0.214E+00
RMM:   6    -0.663176397324E+03    0.27359E-01   -0.34549E-03 15056   0.991E-02    0.836E-01
RMM:   7    -0.663174075225E+03    0.23221E-02   -0.32148E-03 15464   0.908E-02    0.332E-01
RMM:   8    -0.663173567752E+03    0.50747E-03   -0.65262E-04 12541   0.415E-02    0.172E-01
RMM:   9    -0.663173559702E+03    0.80500E-05   -0.14081E-04  8873   0.229E-02
  27 F= -.66317356E+03 E0= -.66259007E+03  d E =-.520062E-02  mag=    -0.0000
 trial-energy change:   -0.005201  1 .order   -0.004332   -0.048795    0.040131
 step:   0.0634(harm=  0.0617)  dis= 0.00414  next Energy=  -663.182253 (dE=-0.139E-01)
 bond charge predicted
       N       E                     dE             d eps       ncg     rms          rms(c)
DAV:   1    -0.663181681861E+03   -0.81141E-02   -0.68948E-01 14848   0.108E+00    0.376E-01
RMM:   2    -0.663190186898E+03   -0.85050E-02   -0.14525E-02 14384   0.245E-01    0.120E+00
RMM:   3    -0.663182760173E+03    0.74267E-02   -0.29662E-03 14683   0.111E-01    0.458E-01
RMM:   4    -0.663184284995E+03   -0.15248E-02   -0.12977E-03 14238   0.516E-02    0.613E-01
RMM:   5    -0.663183560218E+03    0.72478E-03   -0.52042E-04 12371   0.390E-02    0.534E-01
RMM:   6    -0.663182579598E+03    0.98062E-03   -0.96805E-04 13742   0.488E-02    0.295E-01
RMM:   7    -0.663182282199E+03    0.29740E-03   -0.40994E-04 11360   0.341E-02    0.167E-01
RMM:   8    -0.663182220569E+03    0.61630E-04   -0.10904E-04  8368   0.200E-02
  28 F= -.66318222E+03 E0= -.66259816E+03  d E =-.138615E-01  mag=    -0.0000
 curvature:  -0.10 expect dE=-0.974E-02 dE for cont linesearch -0.170E-05
 trial: gam= 0.22518 g(F)=  0.100E+00 g(S)=  0.000E+00 ort =-0.489E-02 (trialstep = 0.103E+00)
 search vector abs. value=  0.167E+00
 bond charge predicted
       N       E                     dE             d eps       ncg     rms          rms(c)
DAV:   1    -0.663185794377E+03   -0.35122E-02   -0.38108E-01 14816   0.861E-01    0.242E-01
RMM:   2    -0.663187833629E+03   -0.20393E-02   -0.76394E-03 14336   0.186E-01    0.591E-01
RMM:   3    -0.663186850335E+03    0.98329E-03   -0.20722E-03 15865   0.767E-02    0.408E-01
RMM:   4    -0.663186571306E+03    0.27903E-03   -0.31729E-04 10033   0.297E-02    0.325E-01
RMM:   5    -0.663186986279E+03   -0.41497E-03   -0.15017E-04  8766   0.238E-02    0.380E-01
RMM:   6    -0.663186701352E+03    0.28493E-03   -0.41647E-04 10987   0.318E-02    0.304E-01
RMM:   7    -0.663186515533E+03    0.18582E-03   -0.38548E-04 10833   0.318E-02    0.160E-01
RMM:   8    -0.663186406573E+03    0.10896E-03   -0.69363E-05  8109   0.177E-02    0.874E-02
RMM:   9    -0.663186388702E+03    0.17871E-04   -0.27296E-05  7715   0.107E-02
  29 F= -.66318639E+03 E0= -.66260273E+03  d E =-.416813E-02  mag=    -0.0000
 trial-energy change:   -0.004168  1 .order   -0.004121   -0.010181    0.001940
 step:   0.0863(harm=  0.0863)  dis= 0.00225  next Energy=  -663.186496 (dE=-0.428E-02)
 bond charge predicted
       N       E                     dE             d eps       ncg     rms          rms(c)
DAV:   1    -0.663186532668E+03   -0.12610E-03   -0.98558E-03 15136   0.138E-01    0.658E-02
RMM:   2    -0.663186895531E+03   -0.36286E-03   -0.30524E-04  9891   0.351E-02    0.226E-01
RMM:   3    -0.663186847867E+03    0.47665E-04   -0.95308E-05  7727   0.213E-02    0.226E-01
RMM:   4    -0.663186512674E+03    0.33519E-03   -0.24318E-05  7690   0.113E-02    0.526E-02
RMM:   5    -0.663186528175E+03   -0.15501E-04   -0.65595E-06  6518   0.547E-03    0.485E-02
RMM:   6    -0.663186540166E+03   -0.11991E-04   -0.11422E-05  7018   0.565E-03    0.583E-02
RMM:   7    -0.663186536165E+03    0.40007E-05   -0.92200E-06  7083   0.612E-03    0.448E-02
RMM:   8    -0.663186524265E+03    0.11900E-04   -0.74583E-06  6647   0.505E-03
  30 F= -.66318652E+03 E0= -.66260293E+03  d E =-.430370E-02  mag=    -0.0000
 curvature:  -0.07 expect dE=-0.685E-02 dE for cont linesearch -0.459E-07
 trial: gam= 0.91223 g(F)=  0.941E-01 g(S)=  0.000E+00 ort = 0.325E-03 (trialstep = 0.711E-01)
 search vector abs. value=  0.234E+00
 bond charge predicted
       N       E                     dE             d eps       ncg     rms          rms(c)
DAV:   1    -0.663191741069E+03   -0.52049E-02   -0.23989E-01 14720   0.583E-01    0.232E-01
RMM:   2    -0.663192587043E+03   -0.84597E-03   -0.41757E-03 14176   0.132E-01    0.448E-01
RMM:   3    -0.663192258843E+03    0.32820E-03   -0.13540E-03 13748   0.541E-02    0.324E-01
RMM:   4    -0.663195765654E+03   -0.35068E-02   -0.43648E-04 11800   0.330E-02    0.739E-01
RMM:   5    -0.663192446794E+03    0.33189E-02   -0.34990E-04 10723   0.346E-02    0.321E-01
RMM:   6    -0.663192500439E+03   -0.53644E-04   -0.35458E-04 10806   0.335E-02    0.265E-01
RMM:   7    -0.663192137081E+03    0.36336E-03   -0.15097E-04  8217   0.234E-02    0.101E-01
RMM:   8    -0.663192121850E+03    0.15231E-04   -0.40962E-05  7770   0.143E-02
  31 F= -.66319212E+03 E0= -.66260890E+03  d E =-.559758E-02  mag=    -0.0000
 trial-energy change:   -0.005598  1 .order   -0.005399   -0.006714   -0.004083
 step:   0.1814(harm=  0.1814)  dis= 0.00634  next Energy=  -663.195092 (dE=-0.857E-02)
 bond charge predicted
       N       E                     dE             d eps       ncg     rms          rms(c)
DAV:   1    -0.663193955561E+03   -0.18185E-02   -0.57712E-01 14672   0.911E-01    0.413E-01
RMM:   2    -0.663195678558E+03   -0.17230E-02   -0.97317E-03 14320   0.199E-01    0.659E-01
RMM:   3    -0.663195376576E+03    0.30198E-03   -0.34947E-03 16218   0.826E-02    0.536E-01
RMM:   4    -0.663206064922E+03   -0.10688E-01   -0.12669E-03 13494   0.517E-02    0.128E+00
RMM:   5    -0.663196675788E+03    0.93891E-02   -0.12846E-03 14093   0.626E-02    0.611E-01
RMM:   6    -0.663196151425E+03    0.52436E-03   -0.10708E-03 14269   0.552E-02    0.470E-01
RMM:   7    -0.663195212460E+03    0.93896E-03   -0.50656E-04 12252   0.418E-02    0.154E-01
RMM:   8    -0.663195148767E+03    0.63693E-04   -0.98323E-05  8123   0.207E-02
  32 F= -.66319515E+03 E0= -.66261259E+03  d E =-.862450E-02  mag=    -0.0000
 curvature:  -0.22 expect dE=-0.379E-01 dE for cont linesearch -0.263E-03
 trial: gam= 1.82746 g(F)=  0.169E+00 g(S)=  0.000E+00 ort =-0.166E-01 (trialstep = 0.245E-01)
 search vector abs. value=  0.890E+00
 bond charge predicted
       N       E                     dE             d eps       ncg     rms          rms(c)
DAV:   1    -0.663197658226E+03   -0.24458E-02   -0.10469E-01 14768   0.384E-01    0.231E-01
RMM:   2    -0.663198006932E+03   -0.34871E-03   -0.20812E-03 14002   0.862E-02    0.258E-01
RMM:   3    -0.663199412783E+03   -0.14059E-02   -0.85848E-04 13278   0.445E-02    0.480E-01
RMM:   4    -0.663199067452E+03    0.34533E-03   -0.49805E-04 12266   0.364E-02    0.421E-01
RMM:   5    -0.663197906736E+03    0.11607E-02   -0.26056E-04  9963   0.339E-02    0.129E-01
RMM:   6    -0.663197928654E+03   -0.21918E-04   -0.12736E-04  8250   0.214E-02    0.139E-01
RMM:   7    -0.663197848743E+03    0.79911E-04   -0.44857E-05  7766   0.154E-02    0.564E-02
RMM:   8    -0.663197836698E+03    0.12044E-04   -0.11450E-05  6734   0.663E-03
  33 F= -.66319784E+03 E0= -.66261581E+03  d E =-.268793E-02  mag=    -0.0000
 trial-energy change:   -0.002688  1 .order   -0.002680   -0.003395   -0.001966
 step:   0.0582(harm=  0.0582)  dis= 0.00395  next Energy=  -663.199181 (dE=-0.403E-02)
 bond charge predicted
       N       E                     dE             d eps       ncg     rms          rms(c)
DAV:   1    -0.663198676294E+03   -0.82755E-03   -0.20119E-01 14848   0.531E-01    0.281E-01
RMM:   2    -0.663199417134E+03   -0.74084E-03   -0.32589E-03 14144   0.118E-01    0.416E-01
RMM:   3    -0.663199096153E+03    0.32098E-03   -0.93972E-04 12993   0.486E-02    0.291E-01
RMM:   4    -0.663204190020E+03   -0.50939E-02   -0.51716E-04 12159   0.343E-02    0.857E-01
RMM:   5    -0.663199271505E+03    0.49185E-02   -0.60869E-04 12826   0.425E-02    0.270E-01
RMM:   6    -0.663199167224E+03    0.10428E-03   -0.27910E-04 10201   0.324E-02    0.208E-01
RMM:   7    -0.663198948564E+03    0.21866E-03   -0.70047E-05  7996   0.190E-02    0.675E-02
RMM:   8    -0.663198941346E+03    0.72180E-05   -0.16002E-05  7506   0.864E-03
  34 F= -.66319894E+03 E0= -.66261750E+03  d E =-.379258E-02  mag=    -0.0000
 curvature:  -0.19 expect dE=-0.937E-02 dE for cont linesearch -0.132E-03
 ZBRENT: interpolating
 opt :   0.0502  next Energy=  -663.199042 (dE=-0.389E-02)
 bond charge predicted
       N       E                     dE             d eps       ncg     rms          rms(c)
DAV:   1    -0.663199002075E+03   -0.53511E-04   -0.11427E-02 14896   0.128E-01    0.722E-02
RMM:   2    -0.663199193457E+03   -0.19138E-03   -0.26869E-04  9728   0.327E-02    0.178E-01
RMM:   3    -0.663199083469E+03    0.10999E-03   -0.64994E-05  7692   0.185E-02    0.129E-01
RMM:   4    -0.663199011309E+03    0.72160E-04   -0.18398E-05  7188   0.847E-03    0.743E-02
RMM:   5    -0.663199075362E+03   -0.64053E-04   -0.27956E-05  7652   0.970E-03    0.112E-01
RMM:   6    -0.663199007344E+03    0.68018E-04   -0.21194E-05  6958   0.933E-03    0.457E-02
RMM:   7    -0.663199014687E+03   -0.73436E-05   -0.11281E-05  7018   0.638E-03    0.446E-02
RMM:   8    -0.663199006605E+03    0.80826E-05   -0.39736E-06  5913   0.465E-03
  35 F= -.66319901E+03 E0= -.66261749E+03  d E =-.385784E-02  mag=    -0.0000
 curvature:  -0.14 expect dE=-0.781E-02 dE for cont linesearch -0.713E-05
 trial: gam=-0.13785 g(F)=  0.548E-01 g(S)=  0.000E+00 ort = 0.668E-02 (trialstep = 0.296E-01)
 search vector abs. value=  0.699E-01
 bond charge predicted
       N       E                     dE             d eps       ncg     rms          rms(c)
DAV:   1    -0.663200132455E+03   -0.11178E-02   -0.14533E-02 15040   0.178E-01    0.594E-02
RMM:   2    -0.663200269183E+03   -0.13673E-03   -0.28694E-04  9172   0.315E-02    0.137E-01
RMM:   3    -0.663200171216E+03    0.97967E-04   -0.55960E-05  7690   0.161E-02    0.797E-02
RMM:   4    -0.663200177646E+03   -0.64304E-05   -0.24575E-05  7566   0.959E-03    0.575E-02
RMM:   5    -0.663200174772E+03    0.28737E-05   -0.17488E-05  7447   0.872E-03    0.585E-02
RMM:   6    -0.663200161280E+03    0.13492E-04   -0.91713E-06  6628   0.621E-03    0.294E-02
RMM:   7    -0.663200161987E+03   -0.70648E-06   -0.27034E-06  5084   0.416E-03    0.212E-02
RMM:   8    -0.663200159526E+03    0.24605E-05   -0.12444E-07  2071   0.248E-03
  36 F= -.66320016E+03 E0= -.66261864E+03  d E =-.115292E-02  mag=    -0.0000
 trial-energy change:   -0.001153  1 .order   -0.001152   -0.001598   -0.000707
 step:   0.0532(harm=  0.0532)  dis= 0.00070  next Energy=  -663.200440 (dE=-0.143E-02)
 bond charge predicted
       N       E                     dE             d eps       ncg     rms          rms(c)
DAV:   1    -0.663200415611E+03   -0.25362E-03   -0.91662E-03 15168   0.141E-01    0.458E-02
RMM:   2    -0.663200437763E+03   -0.22152E-04   -0.17723E-04  8226   0.250E-02    0.610E-02
RMM:   3    -0.663200447496E+03   -0.97330E-05   -0.30916E-05  7618   0.125E-02    0.610E-02
RMM:   4    -0.663200472639E+03   -0.25144E-04   -0.13691E-05  7116   0.671E-03    0.833E-02
RMM:   5    -0.663200435479E+03    0.37160E-04   -0.94587E-06  6934   0.676E-03    0.419E-02
RMM:   6    -0.663200431968E+03    0.35115E-05   -0.38776E-06  5968   0.450E-03    0.252E-02
RMM:   7    -0.663200431924E+03    0.43932E-07   -0.11943E-06  3914   0.330E-03    0.106E-02
RMM:   8    -0.663200432267E+03   -0.34311E-06   -0.32152E-08  1516   0.256E-03
  37 F= -.66320043E+03 E0= -.66261892E+03  d E =-.142566E-02  mag=    -0.0000
 curvature:  -0.03 expect dE=-0.306E-03 dE for cont linesearch -0.251E-06
 trial: gam= 0.15510 g(F)=  0.888E-02 g(S)=  0.000E+00 ort =-0.714E-03 (trialstep = 0.343E-01)
 search vector abs. value=  0.103E-01
 bond charge predicted
       N       E                     dE             d eps       ncg     rms          rms(c)
DAV:   1    -0.663200695202E+03   -0.26328E-03   -0.25100E-03 14080   0.657E-02    0.207E-02
RMM:   2    -0.663200723042E+03   -0.27839E-04   -0.53765E-05  7686   0.148E-02    0.662E-02
RMM:   3    -0.663200701354E+03    0.21688E-04   -0.12206E-05  7632   0.826E-03    0.347E-02
RMM:   4    -0.663200699209E+03    0.21449E-05   -0.25061E-06  5183   0.385E-03    0.212E-02
RMM:   5    -0.663200704112E+03   -0.49033E-05   -0.14372E-06  4175   0.338E-03    0.293E-02
RMM:   6    -0.663200700126E+03    0.39860E-05   -0.21596E-06  4863   0.364E-03    0.196E-02
RMM:   7    -0.663200699272E+03    0.85482E-06   -0.92450E-07  3343   0.318E-03    0.102E-02
RMM:   8    -0.663200699421E+03   -0.14989E-06   -0.22695E-07  1645   0.278E-03
  38 F= -.66320070E+03 E0= -.66261917E+03  d E =-.267155E-03  mag=    -0.0000
 ZBRENT: can't locate minimum, use default step
 trial-energy change:   -0.000267  1 .order   -0.000266   -0.000301   -0.000232
 step:   0.1374(harm=  0.1494)  dis= 0.00058  next Energy=  -663.201087 (dE=-0.655E-03)
 bond charge predicted
       N       E                     dE             d eps       ncg     rms          rms(c)
DAV:   1    -0.663201070327E+03   -0.37106E-03   -0.22531E-02 14928   0.197E-01    0.624E-02
RMM:   2    -0.663201152351E+03   -0.82025E-04   -0.43631E-04 11806   0.416E-02    0.106E-01
RMM:   3    -0.663201097701E+03    0.54650E-04   -0.91444E-05  7768   0.189E-02    0.493E-02
RMM:   4    -0.663201175538E+03   -0.77836E-04   -0.40146E-05  7701   0.135E-02    0.107E-01
RMM:   5    -0.663201250228E+03   -0.74691E-04   -0.28320E-05  7654   0.943E-03    0.150E-01
RMM:   6    -0.663201093625E+03    0.15660E-03   -0.19191E-05  7223   0.917E-03    0.380E-02
RMM:   7    -0.663201102762E+03   -0.91366E-05   -0.10041E-05  6877   0.653E-03    0.197E-02
RMM:   8    -0.663201102505E+03    0.25654E-06   -0.14487E-06  3588   0.326E-03
  39 F= -.66320110E+03 E0= -.66261954E+03  d E =-.670239E-03  mag=    -0.0000
 curvature:  -0.09 expect dE=-0.827E-03 dE for cont linesearch -0.516E-05
 trial: gam= 0.99459 g(F)=  0.949E-02 g(S)=  0.000E+00 ort = 0.782E-03 (trialstep = 0.267E-01)
 search vector abs. value=  0.213E-01
 bond charge predicted
       N       E                     dE             d eps       ncg     rms          rms(c)
DAV:   1    -0.663201349994E+03   -0.24723E-03   -0.30696E-03 14096   0.699E-02    0.241E-02
RMM:   2    -0.663201357601E+03   -0.76072E-05   -0.60784E-05  7548   0.159E-02    0.315E-02
RMM:   3    -0.663201364270E+03   -0.66689E-05   -0.12252E-05  7500   0.825E-03    0.389E-02
RMM:   4    -0.663201367266E+03   -0.29958E-05   -0.44213E-06  5982   0.435E-03    0.482E-02
RMM:   5    -0.663201356384E+03    0.10881E-04   -0.29257E-06  5487   0.416E-03    0.294E-02
RMM:   6    -0.663201354610E+03    0.17740E-05   -0.14263E-06  4138   0.345E-03    0.146E-02
RMM:   7    -0.663201355262E+03   -0.65182E-06   -0.59914E-07  2904   0.306E-03    0.535E-03
RMM:   8    -0.663201355333E+03   -0.70249E-07   -0.58729E-08  1212   0.268E-03
  40 F= -.66320136E+03 E0= -.66261980E+03  d E =-.252827E-03  mag=    -0.0000
 ZBRENT: can't locate minimum, use default step
 trial-energy change:   -0.000253  1 .order   -0.000252   -0.000274   -0.000231
 step:   0.1068(harm=  0.1680)  dis= 0.00072  next Energy=  -663.201965 (dE=-0.862E-03)
 bond charge predicted
       N       E                     dE             d eps       ncg     rms          rms(c)
DAV:   1    -0.663201718935E+03   -0.36367E-03   -0.27624E-02 14784   0.209E-01    0.658E-02
RMM:   2    -0.663201801632E+03   -0.82698E-04   -0.48542E-04 12245   0.448E-02    0.120E-01
RMM:   3    -0.663201759129E+03    0.42503E-04   -0.10777E-04  7943   0.195E-02    0.537E-02
RMM:   4    -0.663202000395E+03   -0.24127E-03   -0.52281E-05  7822   0.144E-02    0.190E-01
RMM:   5    -0.663201800420E+03    0.19998E-03   -0.33726E-05  7692   0.113E-02    0.112E-01
RMM:   6    -0.663201754177E+03    0.46242E-04   -0.18946E-05  7329   0.914E-03    0.387E-02
RMM:   7    -0.663201755731E+03   -0.15533E-05   -0.10188E-05  6695   0.633E-03    0.354E-02
RMM:   8    -0.663201755086E+03    0.64456E-06   -0.23537E-06  4093   0.356E-03
  41 F= -.66320176E+03 E0= -.66262015E+03  d E =-.652581E-03  mag=    -0.0000
 curvature:  -0.14 expect dE=-0.400E-03 dE for cont linesearch -0.160E-04
 ZBRENT: extrapolating
 opt :   0.1244  next Energy=  -663.201769 (dE=-0.666E-03)
 bond charge predicted
       N       E                     dE             d eps       ncg     rms          rms(c)
DAV:   1    -0.663201762794E+03   -0.70629E-05   -0.13200E-03 13680   0.462E-02    0.263E-02
RMM:   2    -0.663201787273E+03   -0.24480E-04   -0.35351E-05  7679   0.116E-02    0.556E-02
RMM:   3    -0.663201815513E+03   -0.28240E-04   -0.14511E-05  7612   0.799E-03    0.879E-02
RMM:   4    -0.663201767927E+03    0.47587E-04   -0.58724E-06  6409   0.515E-03    0.449E-02
RMM:   5    -0.663201766350E+03    0.15763E-05   -0.10033E-06  3776   0.328E-03    0.229E-02
RMM:   6    -0.663201771523E+03   -0.51723E-05   -0.56293E-07  2967   0.299E-03    0.312E-02
RMM:   7    -0.663201767350E+03    0.41726E-05   -0.13219E-07  2139   0.262E-03    0.213E-02
RMM:   8    -0.663201764562E+03    0.27883E-05   -0.52230E-08  1392   0.259E-03
  42 F= -.66320176E+03 E0= -.66262016E+03  d E =-.662056E-03  mag=    -0.0000
 curvature:  -0.12 expect dE=-0.510E-03 dE for cont linesearch -0.188E-06
 trial: gam= 0.68452 g(F)=  0.424E-02 g(S)=  0.000E+00 ort =-0.182E-03 (trialstep = 0.462E-01)
 search vector abs. value=  0.140E-01
 bond charge predicted
       N       E                     dE             d eps       ncg     rms          rms(c)
DAV:   1    -0.663201940645E+03   -0.17330E-03   -0.59572E-03 15040   0.895E-02    0.290E-02
RMM:   2    -0.663201971134E+03   -0.30489E-04   -0.10367E-04  7738   0.197E-02    0.607E-02
RMM:   3    -0.663201951940E+03    0.19194E-04   -0.20297E-05  7406   0.984E-03    0.401E-02
RMM:   4    -0.663201965238E+03   -0.13298E-04   -0.75174E-06  6458   0.532E-03    0.523E-02
RMM:   5    -0.663201947695E+03    0.17543E-04   -0.70867E-06  6834   0.537E-03    0.313E-02
RMM:   6    -0.663201948855E+03   -0.11599E-05   -0.34969E-06  5500   0.420E-03    0.208E-02
RMM:   7    -0.663201945739E+03    0.31159E-05   -0.13790E-06  3540   0.334E-03    0.101E-02
RMM:   8    -0.663201946501E+03   -0.76239E-06   -0.12544E-07  1546   0.270E-03
  43 F= -.66320195E+03 E0= -.66262037E+03  d E =-.181939E-03  mag=    -0.0000
 ZBRENT: can't locate minimum, use default step
 trial-energy change:   -0.000182  1 .order   -0.000189   -0.000190   -0.000188
 step:   0.1849(harm=  4.2120)  dis= 0.00127  next Energy=  -663.210431 (dE=-0.867E-02)
 bond charge predicted
       N       E                     dE             d eps       ncg     rms          rms(c)
DAV:   1    -0.663202149236E+03   -0.20350E-03   -0.53251E-02 14592   0.268E-01    0.816E-02
RMM:   2    -0.663202393554E+03   -0.24432E-03   -0.90936E-04 13488   0.590E-02    0.186E-01
RMM:   3    -0.663202215206E+03    0.17835E-03   -0.20469E-04  9156   0.251E-02    0.806E-02
RMM:   4    -0.663202635899E+03   -0.42069E-03   -0.74730E-05  8170   0.171E-02    0.249E-01
RMM:   5    -0.663202207938E+03    0.42796E-03   -0.58398E-05  7820   0.150E-02    0.930E-02
RMM:   6    -0.663202206988E+03    0.94919E-06   -0.42770E-05  7690   0.126E-02    0.457E-02
RMM:   7    -0.663202198821E+03    0.81671E-05   -0.22851E-05  7232   0.975E-03    0.212E-02
RMM:   8    -0.663202201263E+03   -0.24412E-05   -0.64703E-06  6006   0.497E-03
  44 F= -.66320220E+03 E0= -.66262071E+03  d E =-.436701E-03  mag=    -0.0000
 curvature:  -0.47 expect dE=-0.377E-02 dE for cont linesearch -0.219E-04
 ZBRENT: interpolating
 opt :   0.1620  next Energy=  -663.202211 (dE=-0.446E-03)
 bond charge predicted
       N       E                     dE             d eps       ncg     rms          rms(c)
DAV:   1    -0.663202207780E+03   -0.89588E-05   -0.14782E-03 13808   0.448E-02    0.172E-02
RMM:   2    -0.663202282785E+03   -0.75005E-04   -0.29838E-05  7666   0.114E-02    0.103E-01
RMM:   3    -0.663202201907E+03    0.80878E-04   -0.93675E-06  7444   0.697E-03    0.293E-02
RMM:   4    -0.663202208706E+03   -0.67992E-05   -0.18574E-06  4803   0.367E-03    0.150E-02
RMM:   5    -0.663202208095E+03    0.61057E-06   -0.26448E-07  2352   0.276E-03    0.127E-02
RMM:   6    -0.663202210167E+03   -0.20717E-05   -0.65321E-07  2449   0.302E-03    0.192E-02
RMM:   7    -0.663202207921E+03    0.22466E-05   -0.28545E-06  4453   0.345E-03    0.114E-02
RMM:   8    -0.663202207546E+03    0.37412E-06   -0.10553E-06  2430   0.294E-03
  45 F= -.66320221E+03 E0= -.66262071E+03  d E =-.442985E-03  mag=    -0.0000
 curvature:  -0.20 expect dE=-0.123E-02 dE for cont linesearch -0.485E-06
 trial: gam= 1.46884 g(F)=  0.621E-02 g(S)=  0.000E+00 ort = 0.185E-03 (trialstep = 0.263E-01)
 search vector abs. value=  0.369E-01
 bond charge predicted
       N       E                     dE             d eps       ncg     rms          rms(c)
DAV:   1    -0.663202350513E+03   -0.14259E-03   -0.49862E-03 15008   0.788E-02    0.200E-02
RMM:   2    -0.663202393323E+03   -0.42810E-04   -0.81652E-05  7720   0.169E-02    0.778E-02
RMM:   3    -0.663202357083E+03    0.36240E-04   -0.16922E-05  7333   0.901E-03    0.383E-02
RMM:   4    -0.663202354008E+03    0.30749E-05   -0.41494E-06  5590   0.446E-03    0.179E-02
RMM:   5    -0.663202355325E+03   -0.13172E-05   -0.28746E-06  5337   0.377E-03    0.209E-02
RMM:   6    -0.663202353282E+03    0.20432E-05   -0.34472E-06  5296   0.378E-03    0.114E-02
RMM:   7    -0.663202353357E+03   -0.75808E-07   -0.28627E-06  4653   0.360E-03    0.677E-03
RMM:   8    -0.663202353813E+03   -0.45537E-06   -0.20419E-07  1680   0.276E-03
  46 F= -.66320235E+03 E0= -.66262082E+03  d E =-.146266E-03  mag=    -0.0000
 ZBRENT: can't locate minimum, use default step
 trial-energy change:   -0.000146  1 .order   -0.000150   -0.000170   -0.000131
 step:   0.1051(harm=  0.1127)  dis= 0.00132  next Energy=  -663.202573 (dE=-0.365E-03)
 bond charge predicted
       N       E                     dE             d eps       ncg     rms          rms(c)
DAV:   1    -0.663202479523E+03   -0.12617E-03   -0.45019E-02 14848   0.237E-01    0.603E-02
RMM:   2    -0.663202667240E+03   -0.18772E-03   -0.73744E-04 12619   0.510E-02    0.157E-01
RMM:   3    -0.663202535606E+03    0.13163E-03   -0.15923E-04  8632   0.223E-02    0.638E-02
RMM:   4    -0.663202742374E+03   -0.20677E-03   -0.51845E-05  7828   0.149E-02    0.177E-01
RMM:   5    -0.663202516037E+03    0.22634E-03   -0.29127E-05  7604   0.108E-02    0.610E-02
RMM:   6    -0.663202524702E+03   -0.86646E-05   -0.25879E-05  7451   0.921E-03    0.350E-02
RMM:   7    -0.663202520650E+03    0.40514E-05   -0.16778E-05  7016   0.778E-03    0.186E-02
RMM:   8    -0.663202522521E+03   -0.18710E-05   -0.53187E-06  5661   0.467E-03
  47 F= -.66320252E+03 E0= -.66262092E+03  d E =-.314975E-03  mag=    -0.0000
 curvature:  -0.32 expect dE=-0.138E-02 dE for cont linesearch -0.111E-05
 trial: gam= 0.44416 g(F)=  0.434E-02 g(S)=  0.000E+00 ort =-0.358E-03 (trialstep = 0.420E-01)
 search vector abs. value=  0.113E-01
 bond charge predicted
       N       E                     dE             d eps       ncg     rms          rms(c)
DAV:   1    -0.663202659284E+03   -0.13863E-03   -0.39986E-03 14624   0.770E-02    0.223E-02
RMM:   2    -0.663202730272E+03   -0.70988E-04   -0.77889E-05  7697   0.170E-02    0.100E-01
RMM:   3    -0.663202661488E+03    0.68784E-04   -0.18500E-05  7654   0.979E-03    0.351E-02
RMM:   4    -0.663202665304E+03   -0.38158E-05   -0.44671E-06  6055   0.475E-03    0.178E-02
RMM:   5    -0.663202668210E+03   -0.29059E-05   -0.13679E-06  3968   0.349E-03    0.272E-02
RMM:   6    -0.663202669238E+03   -0.10275E-05   -0.25323E-06  5039   0.362E-03    0.259E-02
RMM:   7    -0.663202665933E+03    0.33051E-05   -0.19101E-06  4121   0.338E-03    0.158E-02
RMM:   8    -0.663202665186E+03    0.74697E-06   -0.35262E-07  2132   0.289E-03
  48 F= -.66320267E+03 E0= -.66262103E+03  d E =-.142664E-03  mag=    -0.0000
 trial-energy change:   -0.000143  1 .order   -0.000142   -0.000176   -0.000108
 step:   0.1089(harm=  0.1089)  dis= 0.00078  next Energy=  -663.202750 (dE=-0.228E-03)
 reached required accuracy - stopping structural energy minimisation
 writing wavefunctions
