       N       E                     dE             d eps       ncg     rms          rms(c)
DAV:   1     0.756379780061E+04    0.75638E+04   -0.29596E+05 15120   0.125E+03
DAV:   2     0.594981874275E+03   -0.69688E+04   -0.62804E+04 16064   0.372E+02
DAV:   3    -0.756163161342E+03   -0.13511E+04   -0.12981E+04 18512   0.165E+02
DAV:   4    -0.829152650225E+03   -0.72989E+02   -0.71243E+02 20432   0.429E+01
DAV:   5    -0.830691208909E+03   -0.15386E+01   -0.15196E+01 19408   0.582E+00    0.187E+02
RMM:   6    -0.692720683201E+03    0.13797E+03   -0.62161E+02 14894   0.398E+01    0.168E+02
RMM:   7    -0.147211845167E+04   -0.77940E+03   -0.40241E+02 16480   0.272E+01    0.387E+02
RMM:   8    -0.134736212165E+04    0.12476E+03   -0.11569E+02 18860   0.112E+01    0.370E+02
RMM:   9    -0.145150330601E+04   -0.10414E+03   -0.51483E+01 15494   0.969E+00    0.382E+02
RMM:  10    -0.102427776601E+04    0.42723E+03   -0.51346E+02 22285   0.260E+01    0.321E+02
RMM:  11    -0.113181637803E+04   -0.10754E+03   -0.86399E+01 16679   0.110E+01    0.286E+02
RMM:  12    -0.110359500375E+04    0.28221E+02   -0.18883E+02 19187   0.130E+01    0.167E+02
RMM:  13    -0.944617965284E+03    0.15898E+03   -0.24464E+02 21440   0.199E+01    0.164E+02
RMM:  14    -0.702593927561E+03    0.24202E+03   -0.40348E+01 16134   0.881E+00    0.147E+02
RMM:  15    -0.625244043670E+03    0.77350E+02   -0.45636E+01 16913   0.928E+00    0.122E+02
RMM:  16    -0.627429166337E+03   -0.21851E+01   -0.21078E+01 15555   0.665E+00    0.108E+02
RMM:  17    -0.618395101727E+03    0.90341E+01   -0.77093E+00 16424   0.404E+00    0.967E+01
RMM:  18    -0.612644060430E+03    0.57510E+01   -0.53559E+00 15570   0.343E+00    0.838E+01
RMM:  19    -0.617044951171E+03   -0.44009E+01   -0.24652E+00 15683   0.250E+00    0.803E+01
RMM:  20    -0.620390688562E+03   -0.33457E+01   -0.52561E+00 17393   0.337E+00    0.636E+01
RMM:  21    -0.627927312145E+03   -0.75366E+01   -0.50148E+00 17712   0.330E+00    0.463E+01
RMM:  22    -0.636342825017E+03   -0.84155E+01   -0.25673E+00 15698   0.247E+00    0.350E+01
RMM:  23    -0.642927640012E+03   -0.65848E+01   -0.20579E+00 15985   0.212E+00    0.304E+01
RMM:  24    -0.654948393297E+03   -0.12021E+02   -0.56303E+00 18325   0.324E+00    0.218E+01
RMM:  25    -0.662184047471E+03   -0.72357E+01   -0.36874E+00 17351   0.267E+00    0.135E+01
RMM:  26    -0.666928213821E+03   -0.47442E+01   -0.13731E+00 15597   0.182E+00    0.126E+01
RMM:  27    -0.671000434813E+03   -0.40722E+01   -0.14875E+00 16068   0.169E+00    0.113E+01
RMM:  28    -0.673408524305E+03   -0.24081E+01   -0.91785E-01 15664   0.152E+00    0.110E+01
RMM:  29    -0.673736233964E+03   -0.32771E+00   -0.42453E-01 15232   0.105E+00    0.991E+00
RMM:  30    -0.675199634661E+03   -0.14634E+01   -0.75052E-01 17094   0.125E+00    0.161E+01
RMM:  31    -0.676907292556E+03   -0.17077E+01   -0.46893E-01 15743   0.101E+00    0.168E+01
RMM:  32    -0.679859078308E+03   -0.29518E+01   -0.78377E-01 17546   0.115E+00    0.149E+01
RMM:  33    -0.680941441522E+03   -0.10824E+01   -0.31452E-01 15778   0.796E-01    0.173E+01
RMM:  34    -0.683572233428E+03   -0.26308E+01   -0.24088E-01 15706   0.696E-01    0.141E+01
RMM:  35    -0.684246147893E+03   -0.67391E+00   -0.14287E-01 15276   0.563E-01    0.137E+01
RMM:  36    -0.685733998605E+03   -0.14879E+01   -0.23310E-01 16943   0.652E-01    0.135E+01
RMM:  37    -0.685819355001E+03   -0.85356E-01   -0.39970E-01 18842   0.797E-01    0.114E+01
RMM:  38    -0.685783761031E+03    0.35594E-01   -0.13780E-01 16254   0.514E-01    0.968E+00
RMM:  39    -0.687484971593E+03   -0.17012E+01   -0.12478E-01 16305   0.481E-01    0.969E+00
RMM:  40    -0.687800994287E+03   -0.31602E+00   -0.94841E-02 16145   0.424E-01    0.772E+00
RMM:  41    -0.688622490538E+03   -0.82150E+00   -0.39732E-02 15206   0.288E-01    0.677E+00
RMM:  42    -0.689545546359E+03   -0.92306E+00   -0.18118E-01 18825   0.498E-01    0.558E+00
RMM:  43    -0.690105112047E+03   -0.55957E+00   -0.11284E-01 18028   0.401E-01    0.419E+00
RMM:  44    -0.690352986897E+03   -0.24787E+00   -0.47246E-02 16290   0.284E-01    0.381E+00
RMM:  45    -0.690500282153E+03   -0.14730E+00   -0.50009E-02 17185   0.284E-01    0.407E+00
RMM:  46    -0.690524292602E+03   -0.24010E-01   -0.32376E-02 16248   0.241E-01    0.462E+00
RMM:  47    -0.690754962993E+03   -0.23067E+00   -0.36426E-02 17030   0.242E-01    0.499E+00
RMM:  48    -0.691124025145E+03   -0.36906E+00   -0.17798E-02 15916   0.186E-01    0.552E+00
RMM:  49    -0.691443853174E+03   -0.31983E+00   -0.13561E-02 15995   0.165E-01    0.609E+00
RMM:  50    -0.691643466535E+03   -0.19961E+00   -0.82451E-03 15732   0.131E-01    0.626E+00
RMM:  51    -0.690395175640E+03    0.12483E+01   -0.18882E-01 24289   0.528E-01    0.278E+00
RMM:  52    -0.690702471322E+03   -0.30730E+00   -0.61194E-03 15504   0.144E-01    0.225E+00
RMM:  53    -0.690827553302E+03   -0.12508E+00   -0.91110E-03 16917   0.138E-01    0.209E+00
RMM:  54    -0.691091404198E+03   -0.26385E+00   -0.11367E-02 17823   0.148E-01    0.194E+00
RMM:  55    -0.691229918176E+03   -0.13851E+00   -0.33354E-03 15328   0.876E-02    0.173E+00
RMM:  56    -0.691206789364E+03    0.23129E-01   -0.25772E-02 21271   0.213E-01    0.789E-01
RMM:  57    -0.691414150505E+03   -0.20736E+00   -0.58462E-03 16391   0.995E-02    0.727E-01
RMM:  58    -0.691541278091E+03   -0.12713E+00   -0.27287E-03 15164   0.708E-02    0.611E-01
RMM:  59    -0.691653126887E+03   -0.11185E+00   -0.14165E-03 14430   0.544E-02    0.472E-01
RMM:  60    -0.691787015871E+03   -0.13389E+00   -0.14300E-03 14783   0.496E-02    0.389E-01
RMM:  61    -0.691856885580E+03   -0.69870E-01   -0.98062E-04 14038   0.443E-02    0.296E-01
RMM:  62    -0.691933578031E+03   -0.76692E-01   -0.88409E-04 13409   0.402E-02    0.181E-01
RMM:  63    -0.691972377018E+03   -0.38799E-01   -0.41042E-04 11609   0.281E-02    0.142E-01
RMM:  64    -0.691992896486E+03   -0.20519E-01   -0.28008E-04 10434   0.229E-02    0.104E-01
RMM:  65    -0.692004480343E+03   -0.11584E-01   -0.18280E-04  9616   0.185E-02    0.901E-02
RMM:  66    -0.692009508366E+03   -0.50280E-02   -0.63271E-05  8908   0.141E-02    0.662E-02
RMM:  67    -0.692016586233E+03   -0.70779E-02   -0.75984E-05  8921   0.120E-02    0.676E-02
RMM:  68    -0.692023342024E+03   -0.67558E-02   -0.74993E-05  8867   0.115E-02    0.619E-02
RMM:  69    -0.692030631482E+03   -0.72895E-02   -0.10318E-04  9113   0.125E-02    0.502E-02
RMM:  70    -0.692036901921E+03   -0.62704E-02   -0.13696E-04  9284   0.134E-02    0.461E-02
RMM:  71    -0.692040360440E+03   -0.34585E-02   -0.96200E-05  8914   0.121E-02    0.355E-02
RMM:  72    -0.692042521062E+03   -0.21606E-02   -0.12406E-04  9242   0.132E-02    0.307E-02
RMM:  73    -0.692043979110E+03   -0.14580E-02   -0.92398E-05  8762   0.114E-02    0.252E-02
RMM:  74    -0.692044335847E+03   -0.35674E-03   -0.54288E-05  8241   0.953E-03    0.211E-02
RMM:  75    -0.692044812243E+03   -0.47640E-03   -0.23774E-05  7483   0.747E-03    0.188E-02
RMM:  76    -0.692045404637E+03   -0.59239E-03   -0.17911E-05  7367   0.641E-03    0.175E-02
RMM:  77    -0.692045552300E+03   -0.14766E-03   -0.10699E-05  6780   0.553E-03    0.182E-02
RMM:  78    -0.692045959816E+03   -0.40752E-03   -0.12151E-05  7176   0.552E-03    0.167E-02
RMM:  79    -0.692046847145E+03   -0.88733E-03   -0.54517E-05  8356   0.101E-02    0.172E-02
RMM:  80    -0.692047322649E+03   -0.47550E-03   -0.58433E-05  8226   0.101E-02
   1 F= -.69204732E+03 E0= -.69146551E+03  d E =-.692047E+03  mag=     3.2132
       N       E                     dE             d eps       ncg     rms          rms(c)
DAV:   1    -0.689915601224E+03    0.21312E+01   -0.28871E+02 15296   0.206E+01    0.573E+00
RMM:   2    -0.690791590944E+03   -0.87599E+00   -0.10502E+01 14849   0.469E+00    0.127E+01
RMM:   3    -0.692075433022E+03   -0.12838E+01   -0.26098E+00 16174   0.211E+00    0.178E+01
RMM:   4    -0.690552444312E+03    0.15230E+01   -0.46039E-01 14961   0.117E+00    0.749E+00
RMM:   5    -0.690231022649E+03    0.32142E+00   -0.14477E-01 14858   0.753E-01    0.400E+00
RMM:   6    -0.690162027943E+03    0.68995E-01   -0.74158E-02 14923   0.466E-01    0.271E+00
RMM:   7    -0.690153409068E+03    0.86189E-02   -0.52467E-02 15272   0.354E-01    0.217E+00
RMM:   8    -0.690139739867E+03    0.13669E-01   -0.50618E-02 15786   0.322E-01    0.151E+00
RMM:   9    -0.690132836559E+03    0.69033E-02   -0.21471E-02 15236   0.238E-01    0.106E+00
RMM:  10    -0.690130475641E+03    0.23609E-02   -0.74288E-03 14945   0.146E-01    0.508E-01
RMM:  11    -0.690133172527E+03   -0.26969E-02   -0.29268E-03 14635   0.867E-02    0.513E-01
RMM:  12    -0.690133386560E+03   -0.21403E-03   -0.85831E-04 13189   0.518E-02    0.355E-01
RMM:  13    -0.690133999480E+03   -0.61292E-03   -0.78899E-04 12920   0.391E-02    0.208E-01
RMM:  14    -0.690134224297E+03   -0.22482E-03   -0.58246E-04 12106   0.344E-02    0.139E-01
RMM:  15    -0.690134513132E+03   -0.28884E-03   -0.16119E-04  9403   0.221E-02    0.117E-01
RMM:  16    -0.690134720013E+03   -0.20688E-03   -0.71800E-05  8836   0.153E-02    0.715E-02
RMM:  17    -0.690134904333E+03   -0.18432E-03   -0.45700E-05  8200   0.103E-02    0.674E-02
RMM:  18    -0.690134958906E+03   -0.54574E-04   -0.41295E-05  8193   0.949E-03
   2 F= -.69013496E+03 E0= -.68955624E+03  d E =0.191236E+01  mag=     3.1848
       N       E                     dE             d eps       ncg     rms          rms(c)
DAV:   1    -0.692849548456E+03   -0.27146E+01   -0.20051E+02 15392   0.175E+01    0.107E+01
RMM:   2    -0.699917269949E+03   -0.70677E+01   -0.16738E+01 14996   0.465E+00    0.311E+01
RMM:   3    -0.702058196356E+03   -0.21409E+01   -0.31351E+00 15155   0.271E+00    0.375E+01
RMM:   4    -0.694373149152E+03    0.76850E+01   -0.10355E+00 14925   0.183E+00    0.143E+01
RMM:   5    -0.692811335118E+03    0.15618E+01   -0.84683E-01 15262   0.131E+00    0.747E+00
RMM:   6    -0.692501056507E+03    0.31028E+00   -0.36385E-01 15913   0.809E-01    0.442E+00
RMM:   7    -0.692482220763E+03    0.18836E-01   -0.13325E-01 15749   0.499E-01    0.408E+00
RMM:   8    -0.692371058779E+03    0.11116E+00   -0.10064E-01 16004   0.426E-01    0.230E+00
RMM:   9    -0.692362987453E+03    0.80713E-02   -0.43909E-02 15726   0.301E-01    0.175E+00
RMM:  10    -0.692356958849E+03    0.60286E-02   -0.35747E-02 15887   0.264E-01    0.134E+00
RMM:  11    -0.692355958498E+03    0.10004E-02   -0.14876E-02 15715   0.185E-01    0.111E+00
RMM:  12    -0.692352455091E+03    0.35034E-02   -0.50144E-03 15503   0.115E-01    0.667E-01
RMM:  13    -0.692351594154E+03    0.86094E-03   -0.18560E-03 14229   0.660E-02    0.540E-01
RMM:  14    -0.692350357916E+03    0.12362E-02   -0.12368E-03 13584   0.501E-02    0.316E-01
RMM:  15    -0.692349708738E+03    0.64918E-03   -0.64586E-04 12490   0.372E-02    0.198E-01
RMM:  16    -0.692349099435E+03    0.60930E-03   -0.22259E-04 10121   0.249E-02    0.189E-01
RMM:  17    -0.692347775938E+03    0.13235E-02   -0.18117E-04  9613   0.207E-02    0.136E-01
RMM:  18    -0.692345525023E+03    0.22509E-02   -0.18416E-04  9600   0.185E-02    0.107E-01
RMM:  19    -0.692343330176E+03    0.21948E-02   -0.88034E-05  8857   0.154E-02    0.861E-02
RMM:  20    -0.692342239501E+03    0.10907E-02   -0.37014E-05  8154   0.100E-02    0.787E-02
RMM:  21    -0.692341590381E+03    0.64912E-03   -0.18017E-05  7407   0.728E-03    0.762E-02
RMM:  22    -0.692341703631E+03   -0.11325E-03   -0.55099E-06  5883   0.479E-03    0.773E-02
RMM:  23    -0.692341839765E+03   -0.13613E-03   -0.76858E-06  6806   0.507E-03    0.944E-02
RMM:  24    -0.692341619410E+03    0.22035E-03   -0.55042E-06  6661   0.465E-03    0.900E-02
RMM:  25    -0.692341190785E+03    0.42862E-03   -0.30710E-06  5700   0.400E-03    0.879E-02
RMM:  26    -0.692340705166E+03    0.48562E-03   -0.48608E-05  8057   0.947E-03    0.155E-01
RMM:  27    -0.692340311017E+03    0.39415E-03   -0.79321E-05  8428   0.111E-02    0.229E-01
RMM:  28    -0.692339299612E+03    0.10114E-02   -0.18698E-05  7419   0.833E-03    0.254E-01
RMM:  29    -0.692338918726E+03    0.38089E-03   -0.98736E-06  6813   0.539E-03    0.259E-01
RMM:  30    -0.692337939800E+03    0.97893E-03   -0.29800E-05  7789   0.834E-03    0.278E-01
RMM:  31    -0.692337101018E+03    0.83878E-03   -0.29546E-05  7265   0.759E-03    0.286E-01
RMM:  32    -0.692337080779E+03    0.20239E-04   -0.41949E-06  5109   0.443E-03
   3 F= -.69233708E+03 E0= -.69175656E+03  d E =-.289758E+00  mag=     3.1109
       N       E                     dE             d eps       ncg     rms          rms(c)
DAV:   1    -0.692473105131E+03   -0.13600E+00   -0.41380E+00 15616   0.242E+00    0.120E+00
RMM:   2    -0.692647269263E+03   -0.17416E+00   -0.16630E-01 14851   0.510E-01    0.575E+00
RMM:   3    -0.692543782143E+03    0.10349E+00   -0.31546E-02 14856   0.315E-01    0.350E+00
RMM:   4    -0.692489052566E+03    0.54730E-01   -0.11589E-02 14875   0.204E-01    0.190E+00
RMM:   5    -0.692479311488E+03    0.97411E-02   -0.45824E-03 14637   0.123E-01    0.147E+00
RMM:   6    -0.692476045528E+03    0.32660E-02   -0.20276E-03 14214   0.770E-02    0.123E+00
RMM:   7    -0.692471073285E+03    0.49722E-02   -0.20014E-03 14300   0.633E-02    0.699E-01
RMM:   8    -0.692467819659E+03    0.32536E-02   -0.19529E-03 14979   0.571E-02    0.261E-01
RMM:   9    -0.692466646082E+03    0.11736E-02   -0.57475E-04 12635   0.387E-02    0.165E-01
RMM:  10    -0.692466101799E+03    0.54428E-03   -0.18164E-04  9231   0.242E-02    0.113E-01
RMM:  11    -0.692465040506E+03    0.10613E-02   -0.90702E-05  8655   0.179E-02    0.883E-02
RMM:  12    -0.692463974758E+03    0.10657E-02   -0.10453E-04  8637   0.158E-02    0.928E-02
RMM:  13    -0.692463352533E+03    0.62222E-03   -0.58878E-05  8275   0.136E-02    0.742E-02
RMM:  14    -0.692463073474E+03    0.27906E-03   -0.21674E-05  7472   0.884E-03    0.668E-02
RMM:  15    -0.692462922724E+03    0.15075E-03   -0.99637E-06  6451   0.562E-03    0.602E-02
RMM:  16    -0.692462744252E+03    0.17847E-03   -0.66558E-06  5860   0.462E-03    0.578E-02
RMM:  17    -0.692462359027E+03    0.38522E-03   -0.17596E-05  7408   0.623E-03    0.552E-02
RMM:  18    -0.692460503143E+03    0.18559E-02   -0.22829E-04  9120   0.202E-02    0.468E-02
RMM:  19    -0.692459845051E+03    0.65809E-03   -0.81329E-05  8239   0.130E-02    0.462E-02
RMM:  20    -0.692459750339E+03    0.94712E-04   -0.45541E-05  7921   0.107E-02
   4 F= -.69245975E+03 E0= -.69188207E+03  d E =-.412428E+00  mag=     2.9512
       N       E                     dE             d eps       ncg     rms          rms(c)
DAV:   1    -0.692469054038E+03   -0.92090E-02   -0.11159E+00 15616   0.126E+00    0.628E-01
RMM:   2    -0.692509864280E+03   -0.40810E-01   -0.46211E-02 14725   0.273E-01    0.281E+00
RMM:   3    -0.692494539533E+03    0.15325E-01   -0.89261E-03 14784   0.164E-01    0.197E+00
RMM:   4    -0.692473990246E+03    0.20549E-01   -0.33232E-03 14554   0.112E-01    0.805E-01
RMM:   5    -0.692471974821E+03    0.20154E-02   -0.13275E-03 13401   0.659E-02    0.537E-01
RMM:   6    -0.692471742379E+03    0.23244E-03   -0.52224E-04 11471   0.378E-02    0.419E-01
RMM:   7    -0.692472652165E+03   -0.90979E-03   -0.35758E-04 10556   0.277E-02    0.255E-01
RMM:   8    -0.692473829031E+03   -0.11769E-02   -0.30643E-04 10261   0.248E-02    0.145E-01
RMM:   9    -0.692474542330E+03   -0.71330E-03   -0.10391E-04  8488   0.189E-02    0.842E-02
RMM:  10    -0.692474921662E+03   -0.37933E-03   -0.34616E-05  8074   0.123E-02    0.513E-02
RMM:  11    -0.692475401865E+03   -0.48020E-03   -0.11590E-05  6877   0.646E-03    0.431E-02
RMM:  12    -0.692476244168E+03   -0.84230E-03   -0.10118E-05  6627   0.528E-03    0.314E-02
RMM:  13    -0.692476891826E+03   -0.64766E-03   -0.60029E-06  5908   0.436E-03    0.248E-02
RMM:  14    -0.692477382515E+03   -0.49069E-03   -0.25790E-06  4491   0.357E-03    0.208E-02
RMM:  15    -0.692477948017E+03   -0.56550E-03   -0.15381E-06  3314   0.306E-03    0.179E-02
RMM:  16    -0.692479125702E+03   -0.11777E-02   -0.44437E-06  4526   0.344E-03    0.181E-02
RMM:  17    -0.692481228991E+03   -0.21033E-02   -0.12732E-05  6048   0.430E-03    0.180E-02
RMM:  18    -0.692483741822E+03   -0.25128E-02   -0.22797E-05  6608   0.492E-03    0.178E-02
RMM:  19    -0.692485661769E+03   -0.19199E-02   -0.23385E-05  6410   0.494E-03    0.225E-02
RMM:  20    -0.692486801207E+03   -0.11394E-02   -0.14968E-05  5716   0.462E-03    0.195E-02
RMM:  21    -0.692487389327E+03   -0.58812E-03   -0.78100E-06  4956   0.419E-03    0.130E-02
RMM:  22    -0.692487842914E+03   -0.45359E-03   -0.53955E-06  4410   0.367E-03    0.945E-03
RMM:  23    -0.692488174106E+03   -0.33119E-03   -0.34235E-06  4303   0.350E-03    0.739E-03
RMM:  24    -0.692488408431E+03   -0.23433E-03   -0.17021E-06  3523   0.310E-03    0.550E-03
RMM:  25    -0.692488635074E+03   -0.22664E-03   -0.12015E-06  3195   0.299E-03    0.483E-03
RMM:  26    -0.692488915644E+03   -0.28057E-03   -0.15183E-06  3393   0.303E-03    0.422E-03
RMM:  27    -0.692489139873E+03   -0.22423E-03   -0.13990E-06  3232   0.300E-03    0.420E-03
RMM:  28    -0.692489347741E+03   -0.20787E-03   -0.18227E-06  3430   0.305E-03    0.349E-03
RMM:  29    -0.692489449748E+03   -0.10201E-03   -0.12327E-06  3073   0.295E-03    0.206E-03
RMM:  30    -0.692489508862E+03   -0.59114E-04   -0.85969E-07  2763   0.288E-03
   5 F= -.69248951E+03 E0= -.69191216E+03  d E =-.442186E+00  mag=     2.7886
       N       E                     dE             d eps       ncg     rms          rms(c)
DAV:   1    -0.692494065414E+03   -0.46157E-02   -0.21154E-01 15392   0.550E-01    0.291E-01
RMM:   2    -0.692503343305E+03   -0.92779E-02   -0.97315E-03 14236   0.129E-01    0.138E+00
RMM:   3    -0.692498668455E+03    0.46748E-02   -0.19412E-03 14071   0.783E-02    0.894E-01
RMM:   4    -0.692494553488E+03    0.41150E-02   -0.66458E-04 12784   0.508E-02    0.397E-01
RMM:   5    -0.692494005517E+03    0.54797E-03   -0.34426E-04 10013   0.316E-02    0.260E-01
RMM:   6    -0.692493833015E+03    0.17250E-03   -0.15754E-04  8927   0.204E-02    0.197E-01
RMM:   7    -0.692493732402E+03    0.10061E-03   -0.10528E-04  8268   0.154E-02    0.100E-01
RMM:   8    -0.692493719992E+03    0.12410E-04   -0.53822E-05  7806   0.129E-02
   6 F= -.69249372E+03 E0= -.69191635E+03  d E =-.446397E+00  mag=     2.7879
       N       E                     dE             d eps       ncg     rms          rms(c)
DAV:   1    -0.691057518304E+03    0.14362E+01   -0.13578E+02 15104   0.164E+01    0.433E+00
RMM:   2    -0.691831227709E+03   -0.77371E+00   -0.38760E+00 14850   0.287E+00    0.111E+01
RMM:   3    -0.691912374945E+03   -0.81147E-01   -0.62647E-01 15221   0.132E+00    0.116E+01
RMM:   4    -0.691262795185E+03    0.64958E+00   -0.16915E-01 15002   0.754E-01    0.485E+00
RMM:   5    -0.691246567190E+03    0.16228E-01   -0.75266E-02 15002   0.512E-01    0.467E+00
RMM:   6    -0.691207242433E+03    0.39325E-01   -0.37861E-02 14947   0.354E-01    0.376E+00
RMM:   7    -0.691163922655E+03    0.43320E-01   -0.27455E-02 15189   0.286E-01    0.277E+00
RMM:   8    -0.691133571839E+03    0.30351E-01   -0.28478E-02 15604   0.239E-01    0.924E-01
RMM:   9    -0.691134626478E+03   -0.10546E-02   -0.74331E-03 14829   0.144E-01    0.890E-01
RMM:  10    -0.691134420376E+03    0.20610E-03   -0.23430E-03 14604   0.877E-02    0.664E-01
RMM:  11    -0.691134891033E+03   -0.47066E-03   -0.10887E-03 13749   0.558E-02    0.472E-01
RMM:  12    -0.691135754399E+03   -0.86337E-03   -0.92334E-04 13677   0.473E-02    0.358E-01
RMM:  13    -0.691136248712E+03   -0.49431E-03   -0.68530E-04 12860   0.379E-02    0.257E-01
RMM:  14    -0.691136506105E+03   -0.25739E-03   -0.19987E-04  9790   0.238E-02    0.230E-01
RMM:  15    -0.691136553464E+03   -0.47359E-04   -0.78620E-05  8852   0.174E-02
   7 F= -.69113655E+03 E0= -.69055991E+03  d E =0.135717E+01  mag=     2.8068
       N       E                     dE             d eps       ncg     rms          rms(c)
DAV:   1    -0.692597256442E+03   -0.14608E+01   -0.10295E+02 15264   0.145E+01    0.645E+00
RMM:   2    -0.694735149788E+03   -0.21379E+01   -0.58438E+00 14980   0.305E+00    0.171E+01
RMM:   3    -0.695909050871E+03   -0.11739E+01   -0.90864E-01 14930   0.170E+00    0.232E+01
RMM:   4    -0.693114543214E+03    0.27945E+01   -0.28790E-01 14923   0.102E+00    0.850E+00
RMM:   5    -0.692769211771E+03    0.34533E+00   -0.26401E-01 15266   0.748E-01    0.615E+00
RMM:   6    -0.692533877633E+03    0.23533E+00   -0.13337E-01 15536   0.528E-01    0.285E+00
RMM:   7    -0.692513186234E+03    0.20691E-01   -0.61165E-02 15956   0.310E-01    0.209E+00
RMM:   8    -0.692509347691E+03    0.38385E-02   -0.23374E-02 16073   0.208E-01    0.164E+00
RMM:   9    -0.692504664198E+03    0.46835E-02   -0.22144E-02 16038   0.216E-01    0.135E+00
RMM:  10    -0.692499004248E+03    0.56600E-02   -0.64837E-03 14863   0.150E-01    0.873E-01
RMM:  11    -0.692500244302E+03   -0.12401E-02   -0.29653E-03 14903   0.916E-02    0.599E-01
RMM:  12    -0.692503709276E+03   -0.34650E-02   -0.12252E-03 13956   0.601E-02    0.472E-01
RMM:  13    -0.692505720705E+03   -0.20114E-02   -0.88286E-04 12971   0.451E-02    0.272E-01
RMM:  14    -0.692507257946E+03   -0.15372E-02   -0.60609E-04 12022   0.337E-02    0.209E-01
RMM:  15    -0.692508430742E+03   -0.11728E-02   -0.37392E-04 10878   0.271E-02    0.167E-01
RMM:  16    -0.692509645894E+03   -0.12152E-02   -0.13014E-04  9016   0.192E-02    0.136E-01
RMM:  17    -0.692511032043E+03   -0.13861E-02   -0.11541E-04  8905   0.173E-02    0.854E-02
RMM:  18    -0.692512090328E+03   -0.10583E-02   -0.10758E-04  8964   0.151E-02    0.631E-02
RMM:  19    -0.692512448820E+03   -0.35849E-03   -0.48822E-05  8373   0.119E-02    0.500E-02
RMM:  20    -0.692512827263E+03   -0.37844E-03   -0.36454E-05  7884   0.904E-03    0.392E-02
RMM:  21    -0.692513260114E+03   -0.43285E-03   -0.53031E-05  8286   0.996E-03    0.377E-02
RMM:  22    -0.692513376591E+03   -0.11648E-03   -0.90402E-05  8726   0.129E-02    0.454E-02
RMM:  23    -0.692513273533E+03    0.10306E-03   -0.42701E-05  8197   0.105E-02    0.313E-02
RMM:  24    -0.692513358115E+03   -0.84581E-04   -0.17230E-05  7225   0.736E-03
   8 F= -.69251336E+03 E0= -.69193566E+03  d E =-.196381E-01  mag=     2.8464
       N       E                     dE             d eps       ncg     rms          rms(c)
DAV:   1    -0.692523204347E+03   -0.99308E-02   -0.26057E-01 15360   0.717E-01    0.261E-01
RMM:   2    -0.692529634119E+03   -0.64298E-02   -0.95323E-03 14481   0.140E-01    0.118E+00
RMM:   3    -0.692526391411E+03    0.32427E-02   -0.15521E-03 13935   0.765E-02    0.706E-01
RMM:   4    -0.692524248604E+03    0.21428E-02   -0.46672E-04 11820   0.410E-02    0.405E-01
RMM:   5    -0.692523962590E+03    0.28601E-03   -0.31292E-04  9983   0.298E-02    0.317E-01
RMM:   6    -0.692523866947E+03    0.95643E-04   -0.18761E-04  9111   0.230E-02    0.245E-01
RMM:   7    -0.692523792937E+03    0.74009E-04   -0.11579E-04  8510   0.185E-02    0.134E-01
RMM:   8    -0.692523776979E+03    0.15958E-04   -0.60136E-05  7981   0.135E-02
   9 F= -.69252378E+03 E0= -.69194633E+03  d E =-.300570E-01  mag=     2.8382
       N       E                     dE             d eps       ncg     rms          rms(c)
DAV:   1    -0.692523764319E+03    0.28619E-04   -0.28121E-03 15296   0.789E-02    0.626E-02
RMM:   2    -0.692524182838E+03   -0.41852E-03   -0.17760E-04  8700   0.220E-02    0.286E-01
RMM:   3    -0.692523955170E+03    0.22767E-03   -0.93926E-05  8080   0.201E-02    0.215E-01
RMM:   4    -0.692523684624E+03    0.27055E-03   -0.26353E-05  7985   0.113E-02    0.440E-02
RMM:   5    -0.692523662427E+03    0.22197E-04   -0.83000E-06  6923   0.606E-03    0.347E-02
RMM:   6    -0.692523650813E+03    0.11614E-04   -0.27848E-06  4897   0.369E-03    0.244E-02
RMM:   7    -0.692523636786E+03    0.14027E-04   -0.18626E-06  3692   0.323E-03    0.288E-02
RMM:   8    -0.692523633065E+03    0.37216E-05   -0.80982E-07  3119   0.299E-03
  10 F= -.69252363E+03 E0= -.69194624E+03  d E =-.299131E-01  mag=     2.8292
       N       E                     dE             d eps       ncg     rms          rms(c)
DAV:   1    -0.692392143229E+03    0.13149E+00   -0.80428E+00 15616   0.410E+00    0.138E+00
RMM:   2    -0.692758728672E+03   -0.36659E+00   -0.28115E-01 14848   0.903E-01    0.824E+00
RMM:   3    -0.692429392308E+03    0.32934E+00   -0.51220E-02 14980   0.422E-01    0.253E+00
RMM:   4    -0.692477544966E+03   -0.48153E-01   -0.19862E-02 14894   0.258E-01    0.381E+00
RMM:   5    -0.692419687823E+03    0.57857E-01   -0.13651E-02 15246   0.179E-01    0.234E+00
RMM:   6    -0.692410493714E+03    0.91941E-02   -0.58795E-03 15528   0.113E-01    0.183E+00
RMM:   7    -0.692397341285E+03    0.13152E-01   -0.28869E-03 14555   0.838E-02    0.922E-01
RMM:   8    -0.692394327447E+03    0.30138E-02   -0.27815E-03 15308   0.788E-02    0.692E-01
RMM:   9    -0.692391801101E+03    0.25263E-02   -0.80517E-04 13414   0.552E-02    0.569E-01
RMM:  10    -0.692390212873E+03    0.15882E-02   -0.34882E-04 11463   0.344E-02    0.539E-01
RMM:  11    -0.692387786045E+03    0.24268E-02   -0.18606E-04  9687   0.254E-02    0.392E-01
RMM:  12    -0.692385452694E+03    0.23334E-02   -0.16644E-04  9285   0.203E-02    0.200E-01
RMM:  13    -0.692384554466E+03    0.89823E-03   -0.88402E-05  8817   0.167E-02    0.115E-01
RMM:  14    -0.692384516037E+03    0.38430E-04   -0.35453E-05  8296   0.112E-02
  11 F= -.69238452E+03 E0= -.69180818E+03  d E =0.139117E+00  mag=     2.7911
       N       E                     dE             d eps       ncg     rms          rms(c)
DAV:   1    -0.692519671374E+03   -0.13512E+00   -0.52489E+00 15504   0.331E+00    0.102E+00
RMM:   2    -0.692774336631E+03   -0.25467E+00   -0.16355E-01 14848   0.688E-01    0.677E+00
RMM:   3    -0.692538603006E+03    0.23573E+00   -0.28888E-02 14910   0.322E-01    0.176E+00
RMM:   4    -0.692569351927E+03   -0.30749E-01   -0.10765E-02 14938   0.189E-01    0.275E+00
RMM:   5    -0.692545769806E+03    0.23582E-01   -0.44549E-03 14714   0.120E-01    0.190E+00
RMM:   6    -0.692540533794E+03    0.52360E-02   -0.23483E-03 14669   0.801E-02    0.152E+00
RMM:   7    -0.692533144795E+03    0.73890E-02   -0.32481E-03 15628   0.818E-02    0.652E-01
RMM:   8    -0.692532226028E+03    0.91877E-03   -0.20903E-03 15281   0.700E-02    0.376E-01
RMM:   9    -0.692531607271E+03    0.61876E-03   -0.58994E-04 12808   0.436E-02    0.240E-01
RMM:  10    -0.692531534603E+03    0.72667E-04   -0.22168E-04  9995   0.259E-02
  12 F= -.69253153E+03 E0= -.69195540E+03  d E =-.790154E-02  mag=     2.7691
       N       E                     dE             d eps       ncg     rms          rms(c)
DAV:   1    -0.692531870002E+03   -0.26273E-03   -0.11667E-02 15648   0.162E-01    0.131E-01
RMM:   2    -0.692541150744E+03   -0.92807E-02   -0.11383E-03 14171   0.511E-02    0.118E+00
RMM:   3    -0.692532601298E+03    0.85494E-02   -0.43550E-04 12264   0.449E-02    0.213E-01
RMM:   4    -0.692532481815E+03    0.11948E-03   -0.13734E-04  8666   0.238E-02    0.801E-02
RMM:   5    -0.692532805435E+03   -0.32362E-03   -0.67345E-05  8266   0.145E-02    0.658E-02
RMM:   6    -0.692533331618E+03   -0.52618E-03   -0.53000E-05  8085   0.122E-02    0.672E-02
RMM:   7    -0.692533917606E+03   -0.58599E-03   -0.41387E-05  8004   0.104E-02    0.554E-02
RMM:   8    -0.692534249586E+03   -0.33198E-03   -0.17750E-05  7072   0.713E-03    0.464E-02
RMM:   9    -0.692534640234E+03   -0.39065E-03   -0.14719E-05  6768   0.577E-03    0.432E-02
RMM:  10    -0.692535057419E+03   -0.41719E-03   -0.11379E-05  6431   0.536E-03    0.336E-02
RMM:  11    -0.692535720983E+03   -0.66356E-03   -0.22219E-05  7310   0.593E-03    0.211E-02
RMM:  12    -0.692536198916E+03   -0.47793E-03   -0.14670E-05  6626   0.512E-03    0.198E-02
RMM:  13    -0.692536647186E+03   -0.44827E-03   -0.14455E-05  6845   0.525E-03    0.182E-02
RMM:  14    -0.692536888219E+03   -0.24103E-03   -0.66580E-06  5382   0.442E-03    0.118E-02
RMM:  15    -0.692537158456E+03   -0.27024E-03   -0.44020E-06  5151   0.389E-03    0.999E-03
RMM:  16    -0.692537391915E+03   -0.23346E-03   -0.21747E-06  4333   0.337E-03    0.842E-03
RMM:  17    -0.692537623584E+03   -0.23167E-03   -0.12347E-06  3475   0.305E-03    0.684E-03
RMM:  18    -0.692537873849E+03   -0.25027E-03   -0.15305E-06  3631   0.307E-03    0.472E-03
RMM:  19    -0.692538077228E+03   -0.20338E-03   -0.14803E-06  3467   0.299E-03    0.439E-03
RMM:  20    -0.692538273960E+03   -0.19673E-03   -0.19818E-06  3541   0.300E-03    0.576E-03
RMM:  21    -0.692538386534E+03   -0.11257E-03   -0.20937E-06  3514   0.300E-03    0.463E-03
RMM:  22    -0.692538416384E+03   -0.29850E-04   -0.14709E-06  3213   0.292E-03
  13 F= -.69253842E+03 E0= -.69196135E+03  d E =-.147833E-01  mag=     2.7530
       N       E                     dE             d eps       ncg     rms          rms(c)
DAV:   1    -0.692516342272E+03    0.22044E-01   -0.36493E+00 15536   0.273E+00    0.522E-01
RMM:   2    -0.692591327887E+03   -0.74986E-01   -0.81786E-02 14848   0.539E-01    0.375E+00
RMM:   3    -0.692534834278E+03    0.56494E-01   -0.14485E-02 15148   0.221E-01    0.178E+00
RMM:   4    -0.692547078576E+03   -0.12244E-01   -0.40083E-03 15586   0.111E-01    0.221E+00
RMM:   5    -0.692527907714E+03    0.19171E-01   -0.24307E-03 14637   0.807E-02    0.131E+00
RMM:   6    -0.692526226292E+03    0.16814E-02   -0.11778E-03 14037   0.610E-02    0.106E+00
RMM:   7    -0.692526219008E+03    0.72843E-05   -0.68116E-04 13071   0.446E-02    0.968E-01
RMM:   8    -0.692523960607E+03    0.22584E-02   -0.10437E-03 13886   0.455E-02    0.649E-01
RMM:   9    -0.692522316330E+03    0.16443E-02   -0.30246E-04 10939   0.291E-02    0.336E-01
RMM:  10    -0.692522059984E+03    0.25635E-03   -0.12400E-04  8953   0.216E-02    0.291E-01
RMM:  11    -0.692521733644E+03    0.32634E-03   -0.57035E-05  8742   0.144E-02    0.248E-01
RMM:  12    -0.692521272484E+03    0.46116E-03   -0.69771E-05  8644   0.132E-02    0.176E-01
RMM:  13    -0.692521062094E+03    0.21039E-03   -0.41841E-05  8345   0.119E-02    0.117E-01
RMM:  14    -0.692521205811E+03   -0.14372E-03   -0.19082E-05  7766   0.818E-03    0.972E-02
RMM:  15    -0.692521406652E+03   -0.20084E-03   -0.12764E-05  7133   0.604E-03    0.773E-02
RMM:  16    -0.692521611526E+03   -0.20487E-03   -0.12131E-05  7137   0.532E-03    0.487E-02
RMM:  17    -0.692521780340E+03   -0.16881E-03   -0.13122E-05  7138   0.535E-03    0.206E-02
RMM:  18    -0.692521929016E+03   -0.14868E-03   -0.79336E-06  5781   0.447E-03    0.174E-02
RMM:  19    -0.692522101241E+03   -0.17222E-03   -0.75765E-06  5837   0.432E-03    0.133E-02
RMM:  20    -0.692522359618E+03   -0.25838E-03   -0.57924E-06  5237   0.400E-03    0.107E-02
RMM:  21    -0.692522619725E+03   -0.26011E-03   -0.58628E-06  5519   0.395E-03    0.966E-03
RMM:  22    -0.692522792905E+03   -0.17318E-03   -0.82425E-06  5839   0.415E-03    0.101E-02
RMM:  23    -0.692522851526E+03   -0.58621E-04   -0.44602E-06  4851   0.378E-03
  14 F= -.69252285E+03 E0= -.69194559E+03  d E =0.155649E-01  mag=     2.7366
       N       E                     dE             d eps       ncg     rms          rms(c)
DAV:   1    -0.692548348451E+03   -0.25556E-01   -0.10180E+00 15232   0.145E+00    0.282E-01
RMM:   2    -0.692569821479E+03   -0.21473E-01   -0.22730E-02 14848   0.280E-01    0.201E+00
RMM:   3    -0.692553250894E+03    0.16571E-01   -0.39646E-03 15007   0.116E-01    0.938E-01
RMM:   4    -0.692556821147E+03   -0.35703E-02   -0.11636E-03 14364   0.588E-02    0.116E+00
RMM:   5    -0.692551577125E+03    0.52440E-02   -0.63810E-04 13088   0.431E-02    0.703E-01
RMM:   6    -0.692551077481E+03    0.49964E-03   -0.30469E-04 10967   0.325E-02    0.565E-01
RMM:   7    -0.692551171534E+03   -0.94053E-04   -0.22733E-04  9864   0.258E-02    0.496E-01
RMM:   8    -0.692550728426E+03    0.44311E-03   -0.26767E-04 10349   0.260E-02    0.331E-01
RMM:   9    -0.692550334722E+03    0.39370E-03   -0.10708E-04  8788   0.184E-02    0.136E-01
RMM:  10    -0.692550362875E+03   -0.28153E-04   -0.41524E-05  8414   0.132E-02
  15 F= -.69255036E+03 E0= -.69197333E+03  d E =-.119465E-01  mag=     2.7360
       N       E                     dE             d eps       ncg     rms          rms(c)
DAV:   1    -0.692550929390E+03   -0.59467E-03   -0.38302E-01 15440   0.815E-01    0.172E-01
RMM:   2    -0.692559138240E+03   -0.82088E-02   -0.78977E-03 14841   0.149E-01    0.124E+00
RMM:   3    -0.692551746623E+03    0.73916E-02   -0.12417E-03 13446   0.651E-02    0.392E-01
RMM:   4    -0.692552621790E+03   -0.87517E-03   -0.39546E-04 10496   0.335E-02    0.507E-01
RMM:   5    -0.692552216619E+03    0.40517E-03   -0.15309E-04  8893   0.227E-02    0.439E-01
RMM:   6    -0.692552006228E+03    0.21039E-03   -0.84329E-05  8388   0.183E-02    0.364E-01
RMM:   7    -0.692551749097E+03    0.25713E-03   -0.14953E-04  8793   0.181E-02    0.209E-01
RMM:   8    -0.692551647844E+03    0.10125E-03   -0.77652E-05  8285   0.159E-02    0.105E-01
RMM:   9    -0.692551639443E+03    0.84010E-05   -0.26986E-05  7748   0.106E-02
  16 F= -.69255164E+03 E0= -.69197460E+03  d E =-.127657E-02  mag=     2.7370
       N       E                     dE             d eps       ncg     rms          rms(c)
DAV:   1    -0.692554641417E+03   -0.29936E-02   -0.69738E-02 15552   0.349E-01    0.818E-02
RMM:   2    -0.692557156127E+03   -0.25147E-02   -0.15296E-03 13456   0.648E-02    0.682E-01
RMM:   3    -0.692554729349E+03    0.24268E-02   -0.25700E-04  9429   0.315E-02    0.181E-01
RMM:   4    -0.692554929368E+03   -0.20002E-03   -0.78015E-05  8251   0.176E-02    0.226E-01
RMM:   5    -0.692554965220E+03   -0.35852E-04   -0.26222E-05  7553   0.973E-03    0.232E-01
RMM:   6    -0.692554895112E+03    0.70108E-04   -0.20624E-05  7477   0.847E-03    0.198E-01
RMM:   7    -0.692554742161E+03    0.15295E-03   -0.43808E-05  7961   0.102E-02    0.631E-02
RMM:   8    -0.692554745153E+03   -0.29926E-05   -0.18234E-05  7481   0.880E-03
  17 F= -.69255475E+03 E0= -.69197763E+03  d E =-.438228E-02  mag=     2.7379
       N       E                     dE             d eps       ncg     rms          rms(c)
DAV:   1    -0.692559408362E+03   -0.46662E-02   -0.48405E-02 15600   0.344E-01    0.566E-02
RMM:   2    -0.692559661752E+03   -0.25339E-03   -0.10014E-03 13803   0.617E-02    0.211E-01
RMM:   3    -0.692559478251E+03    0.18350E-03   -0.18613E-04  8970   0.254E-02    0.986E-02
RMM:   4    -0.692559582075E+03   -0.10382E-03   -0.49615E-05  8062   0.156E-02    0.159E-01
RMM:   5    -0.692559493819E+03    0.88255E-04   -0.14666E-05  7858   0.833E-03    0.102E-01
RMM:   6    -0.692559422037E+03    0.71783E-04   -0.10199E-05  7149   0.600E-03    0.607E-02
RMM:   7    -0.692559389917E+03    0.32120E-04   -0.97646E-06  7105   0.595E-03    0.371E-02
RMM:   8    -0.692559356326E+03    0.33591E-04   -0.53832E-06  6895   0.487E-03
  18 F= -.69255936E+03 E0= -.69198226E+03  d E =-.461117E-02  mag=     2.7398
       N       E                     dE             d eps       ncg     rms          rms(c)
DAV:   1    -0.692560050258E+03   -0.66034E-03   -0.14987E-02 15616   0.191E-01    0.349E-02
RMM:   2    -0.692560076520E+03   -0.26263E-04   -0.31374E-04  9671   0.343E-02    0.771E-02
RMM:   3    -0.692560069200E+03    0.73208E-05   -0.51810E-05  7986   0.160E-02    0.610E-02
RMM:   4    -0.692560052045E+03    0.17155E-04   -0.12426E-05  7662   0.755E-03    0.296E-02
RMM:   5    -0.692560047417E+03    0.46277E-05   -0.39227E-06  6350   0.445E-03    0.338E-02
RMM:   6    -0.692560031044E+03    0.16374E-04   -0.27644E-06  5261   0.382E-03    0.312E-02
RMM:   7    -0.692560015551E+03    0.15493E-04   -0.27044E-06  5414   0.385E-03    0.231E-02
RMM:   8    -0.692560004536E+03    0.11015E-04   -0.85813E-07  3265   0.306E-03
  19 F= -.69256000E+03 E0= -.69198288E+03  d E =-.525938E-02  mag=     2.7418
       N       E                     dE             d eps       ncg     rms          rms(c)
DAV:   1    -0.692562029384E+03   -0.20138E-02   -0.15547E-02 15712   0.178E-01    0.383E-02
RMM:   2    -0.692562273776E+03   -0.24439E-03   -0.36437E-04 10490   0.382E-02    0.213E-01
RMM:   3    -0.692562056045E+03    0.21773E-03   -0.71261E-05  8107   0.169E-02    0.728E-02
RMM:   4    -0.692562148200E+03   -0.92155E-04   -0.25908E-05  7912   0.102E-02    0.143E-01
RMM:   5    -0.692562061011E+03    0.87189E-04   -0.12446E-05  7156   0.699E-03    0.805E-02
RMM:   6    -0.692562037564E+03    0.23447E-04   -0.63492E-06  6364   0.496E-03    0.539E-02
RMM:   7    -0.692562020762E+03    0.16802E-04   -0.39403E-06  5967   0.426E-03    0.242E-02
RMM:   8    -0.692562015378E+03    0.53846E-05   -0.17977E-06  4391   0.338E-03
  20 F= -.69256202E+03 E0= -.69198489E+03  d E =-.201084E-02  mag=     2.7438
       N       E                     dE             d eps       ncg     rms          rms(c)
DAV:   1    -0.692563439502E+03   -0.14187E-02   -0.48949E-02 15456   0.316E-01    0.661E-02
RMM:   2    -0.692564128245E+03   -0.68874E-03   -0.11096E-03 14323   0.673E-02    0.347E-01
RMM:   3    -0.692563604972E+03    0.52327E-03   -0.24132E-04  9437   0.268E-02    0.169E-01
RMM:   4    -0.692563853806E+03   -0.24883E-03   -0.70998E-05  8235   0.174E-02    0.259E-01
RMM:   5    -0.692563554451E+03    0.29936E-03   -0.38029E-05  8040   0.117E-02    0.141E-01
RMM:   6    -0.692563499695E+03    0.54756E-04   -0.23057E-05  7669   0.880E-03    0.883E-02
RMM:   7    -0.692563473765E+03    0.25930E-04   -0.14255E-05  7484   0.732E-03    0.502E-02
RMM:   8    -0.692563471139E+03    0.26254E-05   -0.63492E-06  6515   0.508E-03
  21 F= -.69256347E+03 E0= -.69198634E+03  d E =-.346660E-02  mag=     2.7459
       N       E                     dE             d eps       ncg     rms          rms(c)
DAV:   1    -0.692564390856E+03   -0.91709E-03   -0.75133E-03 15536   0.126E-01    0.438E-02
RMM:   2    -0.692564735739E+03   -0.34488E-03   -0.20697E-04  9000   0.259E-02    0.245E-01
RMM:   3    -0.692564504692E+03    0.23105E-03   -0.68517E-05  8019   0.177E-02    0.139E-01
RMM:   4    -0.692564413764E+03    0.90928E-04   -0.16889E-05  7788   0.950E-03    0.455E-02
RMM:   5    -0.692564403956E+03    0.98085E-05   -0.49405E-06  6303   0.473E-03    0.299E-02
RMM:   6    -0.692564406972E+03   -0.30161E-05   -0.20771E-06  4710   0.357E-03    0.281E-02
RMM:   7    -0.692564412537E+03   -0.55648E-05   -0.12709E-06  3789   0.328E-03    0.214E-02
RMM:   8    -0.692564419026E+03   -0.64891E-05   -0.12462E-06  3729   0.321E-03
  22 F= -.69256442E+03 E0= -.69198732E+03  d E =-.947887E-03  mag=     2.7481
       N       E                     dE             d eps       ncg     rms          rms(c)
DAV:   1    -0.692564594585E+03   -0.18205E-03   -0.43470E-03 15536   0.962E-02    0.275E-02
RMM:   2    -0.692564660327E+03   -0.65741E-04   -0.10630E-04  8158   0.189E-02    0.101E-01
RMM:   3    -0.692564653169E+03    0.71574E-05   -0.25261E-05  7864   0.111E-02    0.833E-02
RMM:   4    -0.692564616215E+03    0.36954E-04   -0.63768E-06  6862   0.542E-03    0.211E-02
RMM:   5    -0.692564621825E+03   -0.56100E-05   -0.16128E-06  4180   0.341E-03    0.219E-02
RMM:   6    -0.692564631554E+03   -0.97283E-05   -0.10105E-06  3541   0.305E-03    0.257E-02
RMM:   7    -0.692564645825E+03   -0.14272E-04   -0.92610E-07  3396   0.307E-03    0.209E-02
RMM:   8    -0.692564656361E+03   -0.10536E-04   -0.48663E-07  2332   0.289E-03
  23 F= -.69256466E+03 E0= -.69198755E+03  d E =-.118522E-02  mag=     2.7500
       N       E                     dE             d eps       ncg     rms          rms(c)
DAV:   1    -0.692565289453E+03   -0.64363E-03   -0.65872E-03 15568   0.112E-01    0.354E-02
RMM:   2    -0.692565345709E+03   -0.56256E-04   -0.15081E-04  8341   0.240E-02    0.104E-01
RMM:   3    -0.692565321480E+03    0.24229E-04   -0.34288E-05  7851   0.133E-02    0.458E-02
RMM:   4    -0.692565336416E+03   -0.14936E-04   -0.10078E-05  7063   0.597E-03    0.677E-02
RMM:   5    -0.692565326857E+03    0.95593E-05   -0.46897E-06  6402   0.487E-03    0.309E-02
RMM:   6    -0.692565342073E+03   -0.15216E-04   -0.33197E-06  5549   0.382E-03    0.312E-02
RMM:   7    -0.692565353152E+03   -0.11079E-04   -0.19193E-06  5042   0.355E-03    0.211E-02
RMM:   8    -0.692565361040E+03   -0.78881E-05   -0.49395E-07  2518   0.285E-03
  24 F= -.69256536E+03 E0= -.69198828E+03  d E =-.704679E-03  mag=     2.7518
       N       E                     dE             d eps       ncg     rms          rms(c)
DAV:   1    -0.692565422714E+03   -0.69562E-04   -0.14713E-03 15312   0.533E-02    0.154E-02
RMM:   2    -0.692565451284E+03   -0.28570E-04   -0.35768E-05  7897   0.116E-02    0.555E-02
RMM:   3    -0.692565442348E+03    0.89364E-05   -0.77350E-06  7395   0.655E-03    0.305E-02
RMM:   4    -0.692565440536E+03    0.18119E-05   -0.10154E-06  3289   0.304E-03    0.209E-02
RMM:   5    -0.692565446091E+03   -0.55549E-05   -0.40050E-07  2603   0.286E-03    0.191E-02
RMM:   6    -0.692565459728E+03   -0.13638E-04   -0.38739E-07  2244   0.282E-03    0.139E-02
RMM:   7    -0.692565473289E+03   -0.13560E-04   -0.24846E-07  1968   0.279E-03    0.872E-03
RMM:   8    -0.692565484800E+03   -0.11511E-04   -0.13252E-07  1522   0.273E-03
  25 F= -.69256548E+03 E0= -.69198843E+03  d E =-.828438E-03  mag=     2.7531
       N       E                     dE             d eps       ncg     rms          rms(c)
DAV:   1    -0.692565816206E+03   -0.34292E-03   -0.31275E-03 15424   0.843E-02    0.198E-02
RMM:   2    -0.692565852676E+03   -0.36470E-04   -0.75181E-05  7857   0.179E-02    0.717E-02
RMM:   3    -0.692565839212E+03    0.13465E-04   -0.14599E-05  7786   0.867E-03    0.361E-02
RMM:   4    -0.692565845009E+03   -0.57978E-05   -0.43071E-06  6438   0.431E-03    0.465E-02
RMM:   5    -0.692565843933E+03    0.10764E-05   -0.13900E-06  4332   0.340E-03    0.291E-02
RMM:   6    -0.692565850504E+03   -0.65711E-05   -0.52243E-07  2877   0.293E-03    0.171E-02
RMM:   7    -0.692565861320E+03   -0.10816E-04   -0.54919E-07  2830   0.292E-03    0.187E-02
RMM:   8    -0.692565868869E+03   -0.75491E-05   -0.29707E-07  2027   0.280E-03
  26 F= -.69256587E+03 E0= -.69198882E+03  d E =-.384070E-03  mag=     2.7543
       N       E                     dE             d eps       ncg     rms          rms(c)
DAV:   1    -0.692565958672E+03   -0.97352E-04   -0.21123E-03 15200   0.694E-02    0.186E-02
RMM:   2    -0.692566098181E+03   -0.13951E-03   -0.56369E-05  7949   0.150E-02    0.142E-01
RMM:   3    -0.692565972756E+03    0.12543E-03   -0.14106E-05  7881   0.862E-03    0.258E-02
RMM:   4    -0.692565975657E+03   -0.29008E-05   -0.39976E-06  6208   0.435E-03    0.251E-02
RMM:   5    -0.692565977769E+03   -0.21126E-05   -0.42672E-07  2875   0.289E-03    0.183E-02
RMM:   6    -0.692565988936E+03   -0.11166E-04   -0.67308E-07  2996   0.301E-03    0.223E-02
RMM:   7    -0.692565998370E+03   -0.94347E-05   -0.40723E-07  2587   0.290E-03    0.183E-02
RMM:   8    -0.692566005129E+03   -0.67584E-05   -0.35304E-07  2132   0.280E-03
  27 F= -.69256601E+03 E0= -.69198897E+03  d E =-.520329E-03  mag=     2.7552
       N       E                     dE             d eps       ncg     rms          rms(c)
DAV:   1    -0.692566138217E+03   -0.13985E-03   -0.29308E-03 15456   0.801E-02    0.171E-02
RMM:   2    -0.692566159946E+03   -0.21728E-04   -0.65656E-05  7915   0.163E-02    0.523E-02
RMM:   3    -0.692566155731E+03    0.42149E-05   -0.11276E-05  7652   0.783E-03    0.250E-02
RMM:   4    -0.692566166158E+03   -0.10427E-04   -0.26045E-06  5165   0.363E-03    0.489E-02
RMM:   5    -0.692566165289E+03    0.86823E-06   -0.15644E-06  4440   0.335E-03    0.301E-02
RMM:   6    -0.692566169343E+03   -0.40534E-05   -0.73236E-07  3377   0.305E-03    0.166E-02
RMM:   7    -0.692566178650E+03   -0.93069E-05   -0.30268E-07  1999   0.280E-03    0.147E-02
RMM:   8    -0.692566184402E+03   -0.57521E-05   -0.19565E-07  1724   0.271E-03
  28 F= -.69256618E+03 E0= -.69198916E+03  d E =-.179273E-03  mag=     2.7559
       N       E                     dE             d eps       ncg     rms          rms(c)
DAV:   1    -0.692566189746E+03   -0.11096E-04   -0.12057E-05  8672   0.606E-03    0.992E-03
RMM:   2    -0.692566199931E+03   -0.10185E-04   -0.34711E-06  6321   0.441E-03    0.263E-02
RMM:   3    -0.692566200041E+03   -0.11043E-06   -0.83811E-07  3708   0.305E-03    0.218E-02
RMM:   4    -0.692566198562E+03    0.14794E-05   -0.12316E-08  1158   0.230E-03    0.102E-02
RMM:   5    -0.692566201911E+03   -0.33498E-05   -0.11766E-08  1126   0.227E-03    0.107E-02
RMM:   6    -0.692566205692E+03   -0.37807E-05   -0.53199E-09  1005   0.223E-03    0.108E-02
RMM:   7    -0.692566214460E+03   -0.87678E-05   -0.33191E-09  1048   0.228E-03    0.797E-03
RMM:   8    -0.692566218058E+03   -0.35986E-05   -0.17581E-10  1036   0.226E-03
  29 F= -.69256622E+03 E0= -.69198920E+03  d E =-.212930E-03  mag=     2.7563
       N       E                     dE             d eps       ncg     rms          rms(c)
DAV:   1    -0.692566277047E+03   -0.62587E-04   -0.95457E-04 14800   0.394E-02    0.109E-02
RMM:   2    -0.692566299357E+03   -0.22310E-04   -0.21554E-05  7783   0.925E-03    0.554E-02
RMM:   3    -0.692566284303E+03    0.15054E-04   -0.44135E-06  6638   0.492E-03    0.179E-02
RMM:   4    -0.692566285044E+03   -0.74078E-06   -0.33464E-07  2239   0.259E-03    0.150E-02
RMM:   5    -0.692566288133E+03   -0.30890E-05   -0.63748E-08  1460   0.248E-03    0.196E-02
RMM:   6    -0.692566293745E+03   -0.56125E-05   -0.12302E-07  1572   0.259E-03    0.202E-02
RMM:   7    -0.692566298839E+03   -0.50942E-05   -0.36678E-07  2084   0.276E-03    0.118E-02
RMM:   8    -0.692566301486E+03   -0.26463E-05   -0.21195E-07  1756   0.269E-03
  30 F= -.69256630E+03 E0= -.69198929E+03  d E =-.834273E-04  mag=     2.7566
       N       E                     dE             d eps       ncg     rms          rms(c)
DAV:   1    -0.692566335417E+03   -0.36577E-04   -0.21006E-03 15232   0.584E-02    0.159E-02
RMM:   2    -0.692566345792E+03   -0.10376E-04   -0.46008E-05  7881   0.133E-02    0.388E-02
RMM:   3    -0.692566344522E+03    0.12701E-05   -0.86755E-06  7050   0.660E-03    0.209E-02
RMM:   4    -0.692566366167E+03   -0.21645E-04   -0.31407E-06  5063   0.368E-03    0.639E-02
RMM:   5    -0.692566349128E+03    0.17040E-04   -0.16248E-06  4770   0.358E-03    0.289E-02
RMM:   6    -0.692566349203E+03   -0.75619E-07   -0.19904E-07  2265   0.273E-03    0.185E-02
RMM:   7    -0.692566353029E+03   -0.38257E-05   -0.24643E-07  2002   0.269E-03    0.139E-02
RMM:   8    -0.692566354314E+03   -0.12851E-05   -0.64492E-08  1525   0.262E-03
  31 F= -.69256635E+03 E0= -.69198934E+03  d E =-.136256E-03  mag=     2.7567
       N       E                     dE             d eps       ncg     rms          rms(c)
DAV:   1    -0.692566407524E+03   -0.54495E-04   -0.85544E-04 14672   0.361E-02    0.132E-02
RMM:   2    -0.692566430806E+03   -0.23282E-04   -0.18153E-05  7787   0.847E-03    0.523E-02
RMM:   3    -0.692566416020E+03    0.14786E-04   -0.49062E-06  6868   0.487E-03    0.365E-02
RMM:   4    -0.692566413663E+03    0.23570E-05   -0.49596E-07  2739   0.290E-03    0.207E-02
RMM:   5    -0.692566414137E+03   -0.47440E-06   -0.69956E-09  1233   0.258E-03    0.203E-02
RMM:   6    -0.692566417332E+03   -0.31950E-05   -0.23682E-07  1803   0.280E-03    0.206E-02
RMM:   7    -0.692566419608E+03   -0.22763E-05   -0.28069E-07  2065   0.285E-03    0.135E-02
RMM:   8    -0.692566420285E+03   -0.67703E-06   -0.10773E-07  1542   0.270E-03
  32 F= -.69256642E+03 E0= -.69198944E+03  d E =-.659711E-04  mag=     2.7568
       N       E                     dE             d eps       ncg     rms          rms(c)
DAV:   1    -0.692566463530E+03   -0.43922E-04   -0.49052E-03 15600   0.862E-02    0.267E-02
RMM:   2    -0.692566646554E+03   -0.18302E-03   -0.10663E-04  8182   0.202E-02    0.175E-01
RMM:   3    -0.692566455297E+03    0.19126E-03   -0.24898E-05  7882   0.113E-02    0.393E-02
RMM:   4    -0.692566477922E+03   -0.22625E-04   -0.67840E-06  6656   0.525E-03    0.502E-02
RMM:   5    -0.692566497400E+03   -0.19478E-04   -0.36798E-06  6211   0.413E-03    0.687E-02
RMM:   6    -0.692566485858E+03    0.11542E-04   -0.19572E-06  4984   0.357E-03    0.578E-02
RMM:   7    -0.692566472376E+03    0.13482E-04   -0.20830E-06  4569   0.340E-03    0.225E-02
RMM:   8    -0.692566474837E+03   -0.24611E-05   -0.56947E-07  2759   0.295E-03
  33 F= -.69256647E+03 E0= -.69198952E+03  d E =-.120523E-03  mag=     2.7568
       N       E                     dE             d eps       ncg     rms          rms(c)
DAV:   1    -0.692566502717E+03   -0.30341E-04   -0.46089E-04 14368   0.250E-02    0.983E-03
RMM:   2    -0.692566512375E+03   -0.96577E-05   -0.94888E-06  7594   0.612E-03    0.328E-02
RMM:   3    -0.692566508221E+03    0.41540E-05   -0.22647E-06  5156   0.365E-03    0.327E-02
RMM:   4    -0.692566505328E+03    0.28934E-05   -0.17241E-07  1964   0.264E-03    0.205E-02
RMM:   5    -0.692566505907E+03   -0.57917E-06   -0.15260E-09  1044   0.248E-03    0.216E-02
RMM:   6    -0.692566507663E+03   -0.17564E-05   -0.67247E-08  1341   0.256E-03    0.238E-02
RMM:   7    -0.692566505902E+03    0.17613E-05   -0.72633E-08  1415   0.261E-03    0.861E-03
RMM:   8    -0.692566506590E+03   -0.68819E-06   -0.15844E-08  1172   0.247E-03
  34 F= -.69256651E+03 E0= -.69198957E+03  d E =-.317529E-04  mag=     2.7568
       N       E                     dE             d eps       ncg     rms          rms(c)
DAV:   1    -0.692566547607E+03   -0.41706E-04   -0.41131E-03 15536   0.732E-02    0.240E-02
RMM:   2    -0.692566629293E+03   -0.81686E-04   -0.76207E-05  8068   0.172E-02    0.115E-01
RMM:   3    -0.692566549993E+03    0.79301E-04   -0.16805E-05  7592   0.887E-03    0.445E-02
RMM:   4    -0.692566566243E+03   -0.16250E-04   -0.49509E-06  6072   0.433E-03    0.616E-02
RMM:   5    -0.692566569539E+03   -0.32961E-05   -0.34592E-06  6033   0.401E-03    0.599E-02
RMM:   6    -0.692566555365E+03    0.14174E-04   -0.28793E-06  5824   0.379E-03    0.385E-02
RMM:   7    -0.692566552749E+03    0.26165E-05   -0.11624E-06  3633   0.313E-03    0.198E-02
RMM:   8    -0.692566553868E+03   -0.11193E-05   -0.11829E-07  1799   0.268E-03
  35 F= -.69256655E+03 E0= -.69198963E+03  d E =-.790308E-04  mag=     2.7568
       N       E                     dE             d eps       ncg     rms          rms(c)
DAV:   1    -0.692566557584E+03   -0.48357E-05   -0.38643E-04 14176   0.229E-02    0.131E-02
RMM:   2    -0.692566622350E+03   -0.64766E-04   -0.12855E-05  7738   0.629E-03    0.952E-02
RMM:   3    -0.692566551934E+03    0.70416E-04   -0.57364E-06  6797   0.528E-03    0.310E-02
RMM:   4    -0.692566559699E+03   -0.77644E-05   -0.92220E-07  3566   0.303E-03    0.185E-02
RMM:   5    -0.692566559994E+03   -0.29547E-06   -0.11210E-07  1479   0.257E-03    0.177E-02
RMM:   6    -0.692566560032E+03   -0.38293E-07   -0.17811E-07  1499   0.261E-03    0.175E-02
RMM:   7    -0.692566558801E+03    0.12318E-05   -0.73331E-08  1331   0.248E-03    0.776E-03
RMM:   8    -0.692566559274E+03   -0.47355E-06   -0.37603E-09  1061   0.230E-03
  36 F= -.69256656E+03 E0= -.69198967E+03  d E =-.844371E-04  mag=     2.7567
       N       E                     dE             d eps       ncg     rms          rms(c)
DAV:   1    -0.692566602147E+03   -0.43346E-04   -0.49016E-04 14496   0.288E-02    0.760E-03
RMM:   2    -0.692566608049E+03   -0.59020E-05   -0.99520E-06  7449   0.648E-03    0.346E-02
RMM:   3    -0.692566601564E+03    0.64853E-05   -0.14597E-06  4388   0.347E-03    0.113E-02
RMM:   4    -0.692566603277E+03   -0.17133E-05   -0.42043E-08  1326   0.247E-03    0.124E-02
RMM:   5    -0.692566603106E+03    0.17127E-06   -0.49900E-08  1254   0.245E-03    0.111E-02
RMM:   6    -0.692566602574E+03    0.53143E-06   -0.17174E-08  1108   0.244E-03    0.716E-03
RMM:   7    -0.692566602401E+03    0.17277E-06   -0.40177E-08  1154   0.244E-03    0.529E-03
RMM:   8    -0.692566602291E+03    0.11070E-06   -0.20474E-08  1051   0.241E-03
  37 F= -.69256660E+03 E0= -.69198971E+03  d E =-.430165E-04  mag=     2.7567
       N       E                     dE             d eps       ncg     rms          rms(c)
DAV:   1    -0.692566636504E+03   -0.34103E-04   -0.19164E-03 14976   0.568E-02    0.149E-02
RMM:   2    -0.692566641862E+03   -0.53581E-05   -0.36864E-05  7907   0.120E-02    0.384E-02
RMM:   3    -0.692566639506E+03    0.23565E-05   -0.70355E-06  7114   0.592E-03    0.234E-02
RMM:   4    -0.692566660048E+03   -0.20543E-04   -0.22077E-06  4224   0.340E-03    0.659E-02
RMM:   5    -0.692566634853E+03    0.25195E-04   -0.11436E-06  3954   0.333E-03    0.204E-02
RMM:   6    -0.692566638346E+03   -0.34929E-05   -0.19056E-07  2256   0.275E-03    0.200E-02
RMM:   7    -0.692566638046E+03    0.29991E-06   -0.20101E-07  1800   0.267E-03    0.200E-02
RMM:   8    -0.692566636300E+03    0.17467E-05   -0.11938E-07  1315   0.262E-03
  38 F= -.69256664E+03 E0= -.69198976E+03  d E =-.770255E-04  mag=     2.7565
       N       E                     dE             d eps       ncg     rms          rms(c)
DAV:   1    -0.692566670052E+03   -0.32006E-04   -0.44734E-04 14592   0.271E-02    0.127E-02
RMM:   2    -0.692566687659E+03   -0.17606E-04   -0.98909E-06  7415   0.587E-03    0.521E-02
RMM:   3    -0.692566669498E+03    0.18161E-04   -0.24934E-06  5439   0.374E-03    0.271E-02
RMM:   4    -0.692566672304E+03   -0.28065E-05   -0.83830E-08  1746   0.254E-03    0.224E-02
RMM:   5    -0.692566672410E+03   -0.10503E-06   -0.44170E-08  1289   0.254E-03    0.225E-02
RMM:   6    -0.692566671691E+03    0.71892E-06   -0.11043E-07  1532   0.268E-03    0.175E-02
RMM:   7    -0.692566670195E+03    0.14954E-05   -0.59098E-08  1291   0.260E-03    0.735E-03
RMM:   8    -0.692566670646E+03   -0.45127E-06   -0.11468E-08  1043   0.247E-03
  39 F= -.69256667E+03 E0= -.69198982E+03  d E =-.343467E-04  mag=     2.7564
