       N       E                     dE             d eps       ncg     rms          rms(c)
DAV:   1     0.901674463934E+04    0.90167E+04   -0.34267E+05 24896   0.112E+03
DAV:   2     0.780292163357E+03   -0.82365E+04   -0.74209E+04 31008   0.304E+02
DAV:   3    -0.911237549269E+03   -0.16915E+04   -0.16691E+04 29584   0.149E+02
DAV:   4    -0.995970764566E+03   -0.84733E+02   -0.84153E+02 33392   0.410E+01
DAV:   5    -0.999338617861E+03   -0.33679E+01   -0.33586E+01 40064   0.649E+00    0.176E+02
RMM:   6    -0.944300578908E+03    0.55038E+02   -0.27755E+03 27035   0.917E+01    0.354E+02
RMM:   7    -0.730829621010E+03    0.21347E+03   -0.33178E+02 24334   0.305E+01    0.211E+02
RMM:   8    -0.906893525567E+03   -0.17606E+03   -0.31096E+02 24391   0.278E+01    0.215E+02
RMM:   9    -0.661593330838E+03    0.24530E+03   -0.16185E+02 24327   0.205E+01    0.145E+02
RMM:  10    -0.556603028309E+03    0.10499E+03   -0.78398E+01 24350   0.151E+01    0.835E+01
RMM:  11    -0.532773490943E+03    0.23830E+02   -0.28549E+01 24386   0.820E+00    0.792E+01
RMM:  12    -0.529819853966E+03    0.29536E+01   -0.15558E+01 24592   0.641E+00    0.750E+01
RMM:  13    -0.522692526191E+03    0.71273E+01   -0.16242E+01 24546   0.647E+00    0.637E+01
RMM:  14    -0.515333046879E+03    0.73595E+01   -0.13019E+01 24753   0.593E+00    0.528E+01
RMM:  15    -0.499641758980E+03    0.15691E+02   -0.95798E+00 24366   0.488E+00    0.448E+01
RMM:  16    -0.490201887017E+03    0.94399E+01   -0.44509E+00 24572   0.336E+00    0.389E+01
RMM:  17    -0.481559105131E+03    0.86428E+01   -0.27555E+00 25040   0.250E+00    0.363E+01
RMM:  18    -0.471658965166E+03    0.99001E+01   -0.26493E+00 25306   0.244E+00    0.342E+01
RMM:  19    -0.464241198255E+03    0.74178E+01   -0.21198E+00 25126   0.233E+00    0.323E+01
RMM:  20    -0.458150450123E+03    0.60907E+01   -0.16879E+00 25346   0.196E+00    0.302E+01
RMM:  21    -0.455283064113E+03    0.28674E+01   -0.12047E+00 25402   0.174E+00    0.296E+01
RMM:  22    -0.453131140227E+03    0.21519E+01   -0.12047E+00 25963   0.170E+00    0.281E+01
RMM:  23    -0.456720337059E+03   -0.35892E+01   -0.13170E+00 26998   0.175E+00    0.279E+01
RMM:  24    -0.463472504774E+03   -0.67522E+01   -0.12707E+00 26567   0.174E+00    0.265E+01
RMM:  25    -0.475823918229E+03   -0.12351E+02   -0.22835E+00 28529   0.217E+00    0.261E+01
RMM:  26    -0.492315163740E+03   -0.16491E+02   -0.34275E+00 29913   0.257E+00    0.261E+01
RMM:  27    -0.509781779442E+03   -0.17467E+02   -0.40085E+00 30073   0.262E+00    0.253E+01
RMM:  28    -0.528784948958E+03   -0.19003E+02   -0.54834E+00 32114   0.292E+00    0.249E+01
RMM:  29    -0.543632142337E+03   -0.14847E+02   -0.48309E+00 31649   0.276E+00    0.237E+01
RMM:  30    -0.559574125065E+03   -0.15942E+02   -0.50679E+00 32330   0.281E+00    0.232E+01
RMM:  31    -0.576441338652E+03   -0.16867E+02   -0.60143E+00 33248   0.309E+00    0.228E+01
RMM:  32    -0.594201551513E+03   -0.17760E+02   -0.72952E+00 34301   0.343E+00    0.220E+01
RMM:  33    -0.611301366775E+03   -0.17100E+02   -0.99038E+00 35499   0.375E+00    0.212E+01
RMM:  34    -0.619191543655E+03   -0.78902E+01   -0.55852E+00 33909   0.291E+00    0.191E+01
RMM:  35    -0.623218822521E+03   -0.40273E+01   -0.17875E+00 31103   0.183E+00    0.181E+01
RMM:  36    -0.625783277280E+03   -0.25645E+01   -0.85078E-01 29147   0.135E+00    0.162E+01
RMM:  37    -0.629413905784E+03   -0.36306E+01   -0.69026E-01 28399   0.116E+00    0.156E+01
RMM:  38    -0.631564828561E+03   -0.21509E+01   -0.54997E-01 28315   0.106E+00    0.149E+01
RMM:  39    -0.634782853189E+03   -0.32180E+01   -0.61863E-01 29738   0.104E+00    0.140E+01
RMM:  40    -0.640097331278E+03   -0.53145E+01   -0.93492E-01 31264   0.125E+00    0.134E+01
RMM:  41    -0.644765607523E+03   -0.46683E+01   -0.21269E+00 34207   0.171E+00    0.141E+01
RMM:  42    -0.646722903278E+03   -0.19573E+01   -0.10453E+00 31475   0.118E+00    0.144E+01
RMM:  43    -0.648502965440E+03   -0.17801E+01   -0.44787E-01 28795   0.795E-01    0.141E+01
RMM:  44    -0.649732437888E+03   -0.12295E+01   -0.53694E-01 29857   0.850E-01    0.143E+01
RMM:  45    -0.651821886519E+03   -0.20894E+01   -0.95028E-01 31769   0.110E+00    0.153E+01
RMM:  46    -0.654739402705E+03   -0.29175E+01   -0.84519E-01 31907   0.108E+00    0.153E+01
RMM:  47    -0.658299206289E+03   -0.35598E+01   -0.71668E-01 31607   0.101E+00    0.142E+01
RMM:  48    -0.660481340226E+03   -0.21821E+01   -0.70319E-01 31093   0.964E-01    0.123E+01
RMM:  49    -0.662001490233E+03   -0.15202E+01   -0.47812E-01 30111   0.816E-01    0.113E+01
RMM:  50    -0.663874951910E+03   -0.18735E+01   -0.32377E-01 29126   0.656E-01    0.995E+00
RMM:  51    -0.663497271365E+03    0.37768E+00   -0.74528E-01 34490   0.116E+00    0.588E+00
RMM:  52    -0.665349015550E+03   -0.18517E+01   -0.25111E-01 29507   0.626E-01    0.546E+00
RMM:  53    -0.666544262723E+03   -0.11952E+01   -0.30798E-01 30189   0.656E-01    0.516E+00
RMM:  54    -0.669128586567E+03   -0.25843E+01   -0.29495E-01 29302   0.580E-01    0.420E+00
RMM:  55    -0.669687239478E+03   -0.55865E+00   -0.64989E-02 26271   0.357E-01    0.361E+00
RMM:  56    -0.670089040375E+03   -0.40180E+00   -0.18154E-01 29419   0.449E-01    0.351E+00
RMM:  57    -0.669934675006E+03    0.15437E+00   -0.42241E-02 25937   0.283E-01    0.292E+00
RMM:  58    -0.669780562465E+03    0.15411E+00   -0.43105E-02 26740   0.288E-01    0.282E+00
RMM:  59    -0.669475276520E+03    0.30529E+00   -0.36330E-02 26844   0.290E-01    0.244E+00
RMM:  60    -0.669670309028E+03   -0.19503E+00   -0.41127E-02 27541   0.257E-01    0.223E+00
RMM:  61    -0.669855178445E+03   -0.18487E+00   -0.27810E-02 26402   0.261E-01    0.220E+00
RMM:  62    -0.669869989565E+03   -0.14811E-01   -0.18145E-02 25722   0.195E-01    0.158E+00
RMM:  63    -0.670005399792E+03   -0.13541E+00   -0.11083E-02 25359   0.144E-01    0.147E+00
RMM:  64    -0.670087165668E+03   -0.81766E-01   -0.79451E-03 25122   0.122E-01    0.129E+00
RMM:  65    -0.670182967946E+03   -0.95802E-01   -0.64288E-03 25106   0.105E-01    0.122E+00
RMM:  66    -0.670250113974E+03   -0.67146E-01   -0.47155E-03 24674   0.947E-02    0.120E+00
RMM:  67    -0.670295253300E+03   -0.45139E-01   -0.28799E-03 23872   0.759E-02    0.111E+00
RMM:  68    -0.670383036519E+03   -0.87783E-01   -0.37946E-03 25719   0.658E-02    0.107E+00
RMM:  69    -0.670488715122E+03   -0.10568E+00   -0.32209E-03 26016   0.677E-02    0.105E+00
RMM:  70    -0.670444042711E+03    0.44672E-01   -0.52543E-03 27277   0.732E-02    0.996E-01
RMM:  71    -0.670327029778E+03    0.11701E+00   -0.39189E-03 26752   0.666E-02    0.980E-01
RMM:  72    -0.670206438984E+03    0.12059E+00   -0.39614E-03 26368   0.681E-02    0.939E-01
RMM:  73    -0.670388295371E+03   -0.18186E+00   -0.43795E-03 27343   0.705E-02    0.897E-01
RMM:  74    -0.670501342115E+03   -0.11305E+00   -0.32393E-03 27760   0.723E-02    0.814E-01
RMM:  75    -0.670492549950E+03    0.87922E-02   -0.20611E-03 25906   0.631E-02    0.744E-01
RMM:  76    -0.670457811642E+03    0.34738E-01   -0.18497E-03 25060   0.618E-02    0.674E-01
RMM:  77    -0.670459874576E+03   -0.20629E-02   -0.34948E-03 27860   0.767E-02    0.595E-01
RMM:  78    -0.670487588178E+03   -0.27714E-01   -0.39231E-03 28288   0.753E-02    0.469E-01
RMM:  79    -0.670581535128E+03   -0.93947E-01   -0.51103E-03 27963   0.721E-02    0.378E-01
RMM:  80    -0.670609067476E+03   -0.27532E-01   -0.27644E-03 25316   0.532E-02
   1 F= -.67060907E+03 E0= -.67019669E+03  d E =-.670609E+03  mag=    80.2789
       N       E                     dE             d eps       ncg     rms          rms(c)
DAV:   1    -0.668755807627E+03    0.18257E+01   -0.28846E+02 27392   0.152E+01    0.599E+00
RMM:   2    -0.670042215515E+03   -0.12864E+01   -0.13008E+01 24322   0.264E+00    0.435E+00
RMM:   3    -0.670325242309E+03   -0.28303E+00   -0.20223E+00 24650   0.142E+00    0.521E+00
RMM:   4    -0.670281575755E+03    0.43667E-01   -0.24803E-01 24894   0.749E-01    0.236E+00
RMM:   5    -0.670331264589E+03   -0.49689E-01   -0.65700E-02 24400   0.297E-01    0.143E+00
RMM:   6    -0.670389349322E+03   -0.58085E-01   -0.39142E-02 24178   0.279E-01    0.168E+00
RMM:   7    -0.670427226141E+03   -0.37877E-01   -0.18475E-02 24153   0.192E-01    0.109E+00
RMM:   8    -0.670447744017E+03   -0.20518E-01   -0.71128E-03 23899   0.119E-01    0.575E-01
RMM:   9    -0.670462036727E+03   -0.14293E-01   -0.30683E-03 23875   0.745E-02    0.290E-01
RMM:  10    -0.670474852585E+03   -0.12816E-01   -0.13106E-03 25045   0.418E-02    0.168E-01
RMM:  11    -0.670486487596E+03   -0.11635E-01   -0.58686E-04 22299   0.273E-02    0.142E-01
RMM:  12    -0.670499092165E+03   -0.12605E-01   -0.27878E-04 18737   0.211E-02    0.109E-01
RMM:  13    -0.670514322734E+03   -0.15231E-01   -0.17623E-04 16797   0.163E-02    0.987E-02
RMM:  14    -0.670526496558E+03   -0.12174E-01   -0.11366E-04 15368   0.135E-02    0.858E-02
RMM:  15    -0.670540493297E+03   -0.13997E-01   -0.91112E-05 15289   0.109E-02    0.832E-02
RMM:  16    -0.670552483230E+03   -0.11990E-01   -0.77668E-05 14701   0.102E-02    0.793E-02
RMM:  17    -0.670566389735E+03   -0.13907E-01   -0.13900E-04 15649   0.116E-02    0.757E-02
RMM:  18    -0.670574375601E+03   -0.79859E-02   -0.12979E-04 15561   0.108E-02    0.675E-02
RMM:  19    -0.670580434226E+03   -0.60586E-02   -0.69567E-05 14136   0.833E-03    0.649E-02
RMM:  20    -0.670586962245E+03   -0.65280E-02   -0.44083E-05 13716   0.794E-03    0.625E-02
RMM:  21    -0.670595367135E+03   -0.84049E-02   -0.45787E-05 13850   0.752E-03    0.594E-02
RMM:  22    -0.670605175448E+03   -0.98083E-02   -0.43969E-05 13608   0.695E-03    0.576E-02
RMM:  23    -0.670615433047E+03   -0.10258E-01   -0.30865E-05 13261   0.654E-03    0.555E-02
RMM:  24    -0.670630185905E+03   -0.14753E-01   -0.32177E-05 13248   0.664E-03    0.515E-02
RMM:  25    -0.670652428146E+03   -0.22242E-01   -0.49148E-05 13546   0.714E-03    0.485E-02
RMM:  26    -0.670676185669E+03   -0.23758E-01   -0.61634E-05 13467   0.678E-03    0.425E-02
RMM:  27    -0.670687014584E+03   -0.10829E-01   -0.21943E-05 12287   0.561E-03    0.414E-02
RMM:  28    -0.670696899784E+03   -0.98852E-02   -0.15388E-05 12146   0.481E-03    0.380E-02
RMM:  29    -0.670708581460E+03   -0.11682E-01   -0.18008E-05 12866   0.482E-03    0.360E-02
RMM:  30    -0.670718544399E+03   -0.99629E-02   -0.15755E-05 12588   0.468E-03    0.332E-02
RMM:  31    -0.670727197176E+03   -0.86528E-02   -0.11916E-05 12236   0.427E-03    0.307E-02
RMM:  32    -0.670734559156E+03   -0.73620E-02   -0.11346E-05 11985   0.393E-03    0.286E-02
RMM:  33    -0.670744729212E+03   -0.10170E-01   -0.14335E-05 12606   0.425E-03    0.280E-02
RMM:  34    -0.670756755196E+03   -0.12026E-01   -0.15366E-05 12501   0.429E-03    0.254E-02
RMM:  35    -0.670763994175E+03   -0.72390E-02   -0.10300E-05 11765   0.401E-03    0.234E-02
RMM:  36    -0.670770839294E+03   -0.68451E-02   -0.10805E-05 11666   0.389E-03    0.207E-02
RMM:  37    -0.670775169944E+03   -0.43307E-02   -0.86211E-06 10759   0.352E-03    0.180E-02
RMM:  38    -0.670778240343E+03   -0.30704E-02   -0.62670E-06 10818   0.328E-03    0.171E-02
RMM:  39    -0.670780148494E+03   -0.19082E-02   -0.41585E-06 10405   0.302E-03    0.151E-02
RMM:  40    -0.670781490913E+03   -0.13424E-02   -0.36784E-06 10043   0.288E-03    0.139E-02
RMM:  41    -0.670782536645E+03   -0.10457E-02   -0.29366E-06  9359   0.274E-03    0.127E-02
RMM:  42    -0.670783618233E+03   -0.10816E-02   -0.46669E-06 10339   0.288E-03    0.115E-02
RMM:  43    -0.670785143009E+03   -0.15248E-02   -0.53596E-06 10551   0.299E-03    0.107E-02
RMM:  44    -0.670786629748E+03   -0.14867E-02   -0.35729E-06  9640   0.276E-03    0.853E-03
RMM:  45    -0.670787879072E+03   -0.12493E-02   -0.18294E-06  8249   0.251E-03    0.711E-03
RMM:  46    -0.670789375503E+03   -0.14964E-02   -0.29784E-06  8431   0.254E-03    0.655E-03
RMM:  47    -0.670790327514E+03   -0.95201E-03   -0.30741E-06  8671   0.260E-03    0.561E-03
RMM:  48    -0.670791017925E+03   -0.69041E-03   -0.32625E-06  8573   0.260E-03    0.443E-03
RMM:  49    -0.670791256463E+03   -0.23854E-03   -0.23326E-06  7956   0.249E-03    0.398E-03
RMM:  50    -0.670791377462E+03   -0.12100E-03   -0.30321E-06  8368   0.252E-03    0.362E-03
RMM:  51    -0.670791464195E+03   -0.86733E-04   -0.20920E-06  7763   0.240E-03
   2 F= -.67079146E+03 E0= -.67037860E+03  d E =-.182397E+00  mag=    79.9776
       N       E                     dE             d eps       ncg     rms          rms(c)
DAV:   1    -0.670979989704E+03   -0.18861E+00   -0.46882E+01 26752   0.567E+00    0.213E+00
RMM:   2    -0.671072772048E+03   -0.92782E-01   -0.11190E+00 24329   0.942E-01    0.146E+00
RMM:   3    -0.671104118582E+03   -0.31347E-01   -0.17484E-01 24214   0.447E-01    0.159E+00
RMM:   4    -0.671101661746E+03    0.24568E-02   -0.31957E-02 23912   0.266E-01    0.944E-01
RMM:   5    -0.671106788217E+03   -0.51265E-02   -0.94756E-03 22994   0.130E-01    0.542E-01
RMM:   6    -0.671108333106E+03   -0.15449E-02   -0.39446E-03 22815   0.885E-02    0.505E-01
RMM:   7    -0.671109055823E+03   -0.72272E-03   -0.22085E-03 22627   0.627E-02    0.381E-01
RMM:   8    -0.671108828960E+03    0.22686E-03   -0.70570E-04 20487   0.389E-02    0.163E-01
RMM:   9    -0.671108985811E+03   -0.15685E-03   -0.34102E-04 18162   0.244E-02    0.737E-02
RMM:  10    -0.671109198444E+03   -0.21263E-03   -0.12039E-04 14813   0.148E-02    0.401E-02
RMM:  11    -0.671109365792E+03   -0.16735E-03   -0.48700E-05 13316   0.102E-02    0.337E-02
RMM:  12    -0.671109508887E+03   -0.14310E-03   -0.24891E-05 12845   0.750E-03    0.181E-02
RMM:  13    -0.671109671083E+03   -0.16220E-03   -0.14888E-05 12366   0.551E-03    0.172E-02
RMM:  14    -0.671109788821E+03   -0.11774E-03   -0.81054E-06 11760   0.449E-03    0.935E-03
RMM:  15    -0.671109879210E+03   -0.90389E-04   -0.44245E-06 10414   0.338E-03
   3 F= -.67110988E+03 E0= -.67069720E+03  d E =-.500812E+00  mag=    79.9770
       N       E                     dE             d eps       ncg     rms          rms(c)
DAV:   1    -0.671222574268E+03   -0.11279E+00   -0.69758E+00 26048   0.224E+00    0.872E-01
RMM:   2    -0.671233673684E+03   -0.11099E-01   -0.15950E-01 24160   0.364E-01    0.657E-01
RMM:   3    -0.671238378999E+03   -0.47053E-02   -0.24287E-02 23196   0.187E-01    0.746E-01
RMM:   4    -0.671237416395E+03    0.96260E-03   -0.63215E-03 22043   0.113E-01    0.358E-01
RMM:   5    -0.671238501321E+03   -0.10849E-02   -0.15166E-03 21182   0.512E-02    0.239E-01
RMM:   6    -0.671238884048E+03   -0.38273E-03   -0.65386E-04 20332   0.374E-02    0.217E-01
RMM:   7    -0.671239038162E+03   -0.15411E-03   -0.36810E-04 18650   0.256E-02    0.145E-01
RMM:   8    -0.671239125117E+03   -0.86954E-04   -0.13540E-04 15209   0.182E-02
   4 F= -.67123913E+03 E0= -.67082662E+03  d E =-.630058E+00  mag=    79.9770
       N       E                     dE             d eps       ncg     rms          rms(c)
DAV:   1    -0.671422314808E+03   -0.18328E+00   -0.15050E+01 25440   0.331E+00    0.132E+00
RMM:   2    -0.671444864785E+03   -0.22550E-01   -0.35729E-01 24304   0.545E-01    0.107E+00
RMM:   3    -0.671456507321E+03   -0.11643E-01   -0.58678E-02 23716   0.286E-01    0.114E+00
RMM:   4    -0.671454362243E+03    0.21451E-02   -0.11990E-02 22787   0.167E-01    0.561E-01
RMM:   5    -0.671456921002E+03   -0.25588E-02   -0.37342E-03 22436   0.802E-02    0.386E-01
RMM:   6    -0.671457565095E+03   -0.64409E-03   -0.15493E-03 21942   0.575E-02    0.345E-01
RMM:   7    -0.671457705578E+03   -0.14048E-03   -0.84611E-04 21062   0.392E-02    0.222E-01
RMM:   8    -0.671457850306E+03   -0.14473E-03   -0.32313E-04 18128   0.280E-02    0.113E-01
RMM:   9    -0.671457997457E+03   -0.14715E-03   -0.13251E-04 14956   0.172E-02    0.509E-02
RMM:  10    -0.671458163985E+03   -0.16653E-03   -0.47642E-05 13206   0.104E-02    0.273E-02
RMM:  11    -0.671458314475E+03   -0.15049E-03   -0.21185E-05 12418   0.674E-03    0.240E-02
RMM:  12    -0.671458470431E+03   -0.15596E-03   -0.12006E-05 12150   0.542E-03    0.142E-02
RMM:  13    -0.671458599349E+03   -0.12892E-03   -0.69253E-06 11409   0.401E-03    0.126E-02
RMM:  14    -0.671458697189E+03   -0.97840E-04   -0.38332E-06 10509   0.337E-03
   5 F= -.67145870E+03 E0= -.67104619E+03  d E =-.849630E+00  mag=    79.9773
       N       E                     dE             d eps       ncg     rms          rms(c)
DAV:   1    -0.671470445137E+03   -0.11846E-01   -0.37877E+00 26016   0.168E+00    0.689E-01
RMM:   2    -0.671475972689E+03   -0.55276E-02   -0.92746E-02 23994   0.279E-01    0.582E-01
RMM:   3    -0.671478762651E+03   -0.27900E-02   -0.14895E-02 22627   0.151E-01    0.624E-01
RMM:   4    -0.671477956601E+03    0.80605E-03   -0.35256E-03 21531   0.889E-02    0.287E-01
RMM:   5    -0.671478721718E+03   -0.76512E-03   -0.98068E-04 20460   0.409E-02    0.201E-01
RMM:   6    -0.671478901489E+03   -0.17977E-03   -0.43644E-04 19252   0.304E-02    0.188E-01
RMM:   7    -0.671478865372E+03    0.36117E-04   -0.24270E-04 17130   0.216E-02    0.110E-01
RMM:   8    -0.671478908679E+03   -0.43307E-04   -0.94115E-05 14322   0.155E-02
   6 F= -.67147891E+03 E0= -.67106654E+03  d E =-.869841E+00  mag=    79.9775
       N       E                     dE             d eps       ncg     rms          rms(c)
DAV:   1    -0.670427700522E+03    0.10512E+01   -0.16523E+02 24832   0.112E+01    0.452E+00
RMM:   2    -0.670941920734E+03   -0.51422E+00   -0.66283E+00 24328   0.180E+00    0.335E+00
RMM:   3    -0.671094742920E+03   -0.15282E+00   -0.99840E-01 24532   0.101E+00    0.422E+00
RMM:   4    -0.671036478329E+03    0.58265E-01   -0.12387E-01 25052   0.541E-01    0.155E+00
RMM:   5    -0.671038127461E+03   -0.16491E-02   -0.38602E-02 24392   0.203E-01    0.979E-01
RMM:   6    -0.671044222619E+03   -0.60952E-02   -0.20023E-02 23691   0.195E-01    0.111E+00
RMM:   7    -0.671043443784E+03    0.77884E-03   -0.90549E-03 23370   0.143E-01    0.639E-01
RMM:   8    -0.671044016091E+03   -0.57231E-03   -0.30542E-03 23459   0.708E-02    0.424E-01
RMM:   9    -0.671044895094E+03   -0.87900E-03   -0.13250E-03 22217   0.510E-02    0.217E-01
RMM:  10    -0.671046269019E+03   -0.13739E-02   -0.56877E-04 20434   0.316E-02    0.998E-02
RMM:  11    -0.671047883697E+03   -0.16147E-02   -0.24669E-04 17216   0.177E-02    0.692E-02
RMM:  12    -0.671049319331E+03   -0.14356E-02   -0.11525E-04 15304   0.144E-02    0.589E-02
RMM:  13    -0.671050862400E+03   -0.15431E-02   -0.79679E-05 14725   0.123E-02    0.455E-02
RMM:  14    -0.671051494679E+03   -0.63228E-03   -0.36759E-05 13708   0.928E-03    0.283E-02
RMM:  15    -0.671052082682E+03   -0.58800E-03   -0.18526E-05 12850   0.626E-03    0.239E-02
RMM:  16    -0.671052476531E+03   -0.39385E-03   -0.10270E-05 12108   0.473E-03    0.175E-02
RMM:  17    -0.671052990173E+03   -0.51364E-03   -0.87023E-06 11808   0.408E-03    0.143E-02
RMM:  18    -0.671053445484E+03   -0.45531E-03   -0.79261E-06 11900   0.388E-03    0.125E-02
RMM:  19    -0.671053865294E+03   -0.41981E-03   -0.74032E-06 11257   0.362E-03    0.979E-03
RMM:  20    -0.671054140496E+03   -0.27520E-03   -0.45166E-06  9900   0.304E-03    0.818E-03
RMM:  21    -0.671054397421E+03   -0.25693E-03   -0.39039E-06 10033   0.291E-03    0.726E-03
RMM:  22    -0.671054648876E+03   -0.25145E-03   -0.42660E-06 10084   0.287E-03    0.630E-03
RMM:  23    -0.671054827091E+03   -0.17822E-03   -0.31476E-06  9312   0.272E-03    0.565E-03
RMM:  24    -0.671054980012E+03   -0.15292E-03   -0.23741E-06  8321   0.251E-03    0.484E-03
RMM:  25    -0.671055121338E+03   -0.14133E-03   -0.17922E-06  7751   0.240E-03    0.398E-03
RMM:  26    -0.671055338434E+03   -0.21710E-03   -0.24884E-06  8437   0.250E-03    0.355E-03
RMM:  27    -0.671055525447E+03   -0.18701E-03   -0.22172E-06  8316   0.245E-03    0.345E-03
RMM:  28    -0.671055674843E+03   -0.14940E-03   -0.13779E-06  7247   0.231E-03    0.280E-03
RMM:  29    -0.671055787246E+03   -0.11240E-03   -0.91220E-07  6662   0.222E-03    0.267E-03
RMM:  30    -0.671055913684E+03   -0.12644E-03   -0.83254E-07  6416   0.220E-03    0.241E-03
RMM:  31    -0.671056077239E+03   -0.16355E-03   -0.13189E-06  6894   0.224E-03    0.227E-03
RMM:  32    -0.671056225555E+03   -0.14832E-03   -0.11515E-06  6748   0.223E-03    0.198E-03
RMM:  33    -0.671056358188E+03   -0.13263E-03   -0.78958E-07  6376   0.222E-03    0.177E-03
RMM:  34    -0.671056462312E+03   -0.10412E-03   -0.54960E-07  6015   0.218E-03    0.163E-03
RMM:  35    -0.671056594826E+03   -0.13251E-03   -0.48301E-07  5930   0.220E-03    0.149E-03
RMM:  36    -0.671056718108E+03   -0.12328E-03   -0.48322E-07  5909   0.221E-03    0.133E-03
RMM:  37    -0.671056789564E+03   -0.71457E-04   -0.18218E-07  5634   0.218E-03
   7 F= -.67105679E+03 E0= -.67064266E+03  d E =0.422119E+00  mag=    79.9820
       N       E                     dE             d eps       ncg     rms          rms(c)
DAV:   1    -0.671180855987E+03   -0.12414E+00   -0.99401E+01 25024   0.763E+00    0.309E+00
RMM:   2    -0.671374318837E+03   -0.19346E+00   -0.27058E+00 24320   0.138E+00    0.239E+00
RMM:   3    -0.671461116821E+03   -0.86798E-01   -0.49116E-01 24529   0.696E-01    0.275E+00
RMM:   4    -0.671447024412E+03    0.14092E-01   -0.71203E-02 24636   0.405E-01    0.125E+00
RMM:   5    -0.671461434362E+03   -0.14410E-01   -0.17608E-02 23453   0.178E-01    0.577E-01
RMM:   6    -0.671470192072E+03   -0.87577E-02   -0.91439E-03 23224   0.121E-01    0.656E-01
RMM:   7    -0.671471575934E+03   -0.13839E-02   -0.36472E-03 22212   0.970E-02    0.322E-01
RMM:   8    -0.671472852565E+03   -0.12766E-02   -0.15461E-03 22071   0.512E-02    0.172E-01
RMM:   9    -0.671473719576E+03   -0.86701E-03   -0.57067E-04 20657   0.279E-02    0.171E-01
RMM:  10    -0.671474106475E+03   -0.38690E-03   -0.19688E-04 16733   0.190E-02    0.758E-02
RMM:  11    -0.671474647498E+03   -0.54102E-03   -0.70200E-05 14934   0.119E-02    0.403E-02
RMM:  12    -0.671475233620E+03   -0.58612E-03   -0.43569E-05 14096   0.935E-03    0.395E-02
RMM:  13    -0.671475837267E+03   -0.60365E-03   -0.29407E-05 13384   0.806E-03    0.245E-02
RMM:  14    -0.671476172769E+03   -0.33550E-03   -0.15327E-05 12709   0.575E-03    0.196E-02
RMM:  15    -0.671476459985E+03   -0.28722E-03   -0.86627E-06 11821   0.453E-03    0.152E-02
RMM:  16    -0.671476729106E+03   -0.26912E-03   -0.61479E-06 11132   0.356E-03    0.126E-02
RMM:  17    -0.671477061916E+03   -0.33281E-03   -0.64324E-06 11348   0.341E-03    0.106E-02
RMM:  18    -0.671477386803E+03   -0.32489E-03   -0.69199E-06 10849   0.327E-03    0.949E-03
RMM:  19    -0.671477674444E+03   -0.28764E-03   -0.76535E-06 11042   0.330E-03    0.855E-03
RMM:  20    -0.671477879473E+03   -0.20503E-03   -0.57002E-06  9960   0.303E-03    0.724E-03
RMM:  21    -0.671478035119E+03   -0.15565E-03   -0.50114E-06 10053   0.296E-03    0.648E-03
RMM:  22    -0.671478155476E+03   -0.12036E-03   -0.50101E-06 10055   0.291E-03    0.585E-03
RMM:  23    -0.671478228649E+03   -0.73173E-04   -0.34725E-06  9234   0.273E-03
   8 F= -.67147823E+03 E0= -.67106532E+03  d E =0.680030E-03  mag=    79.9832
       N       E                     dE             d eps       ncg     rms          rms(c)
DAV:   1    -0.671514740155E+03   -0.36585E-01   -0.20607E+00 26624   0.121E+00    0.487E-01
RMM:   2    -0.671517554694E+03   -0.28145E-02   -0.52253E-02 24137   0.201E-01    0.417E-01
RMM:   3    -0.671519170529E+03   -0.16158E-02   -0.76960E-03 22027   0.109E-01    0.465E-01
RMM:   4    -0.671518635090E+03    0.53544E-03   -0.18552E-03 20567   0.633E-02    0.170E-01
RMM:   5    -0.671518990322E+03   -0.35523E-03   -0.44777E-04 17613   0.265E-02    0.953E-02
RMM:   6    -0.671519176659E+03   -0.18634E-03   -0.22376E-04 16248   0.211E-02    0.111E-01
RMM:   7    -0.671519245675E+03   -0.69016E-04   -0.96941E-05 14498   0.157E-02    0.649E-02
RMM:   8    -0.671519313840E+03   -0.68165E-04   -0.33276E-05 13162   0.867E-03
   9 F= -.67151931E+03 E0= -.67110660E+03  d E =-.404052E-01  mag=    79.9832
       N       E                     dE             d eps       ncg     rms          rms(c)
DAV:   1    -0.671520957417E+03   -0.17117E-02   -0.14275E-01 26704   0.323E-01    0.130E-01
RMM:   2    -0.671521075377E+03   -0.11796E-03   -0.37396E-03 20378   0.549E-02    0.122E-01
RMM:   3    -0.671521152908E+03   -0.77531E-04   -0.55602E-04 17657   0.308E-02    0.121E-01
RMM:   4    -0.671521115317E+03    0.37591E-04   -0.13935E-04 14199   0.179E-02    0.497E-02
RMM:   5    -0.671521208036E+03   -0.92720E-04   -0.36366E-05 12826   0.825E-03    0.466E-02
RMM:   6    -0.671521259929E+03   -0.51893E-04   -0.18940E-05 12396   0.672E-03    0.310E-02
RMM:   7    -0.671521319714E+03   -0.59785E-04   -0.71719E-06 11704   0.451E-03    0.202E-02
RMM:   8    -0.671521345348E+03   -0.25634E-04   -0.43192E-06 10783   0.381E-03
  10 F= -.67152135E+03 E0= -.67110869E+03  d E =-.424367E-01  mag=    79.9833
       N       E                     dE             d eps       ncg     rms          rms(c)
DAV:   1    -0.671144868972E+03    0.37645E+00   -0.91808E+01 24688   0.833E+00    0.357E+00
RMM:   2    -0.671401255697E+03   -0.25639E+00   -0.28916E+00 24328   0.152E+00    0.292E+00
RMM:   3    -0.671482323228E+03   -0.81068E-01   -0.51363E-01 24513   0.763E-01    0.298E+00
RMM:   4    -0.671458568415E+03    0.23755E-01   -0.85738E-02 24970   0.447E-01    0.164E+00
RMM:   5    -0.671461456316E+03   -0.28879E-02   -0.37004E-02 24373   0.217E-01    0.970E-01
RMM:   6    -0.671466422096E+03   -0.49658E-02   -0.14938E-02 23867   0.178E-01    0.111E+00
RMM:   7    -0.671463379230E+03    0.30429E-02   -0.67579E-03 23615   0.120E-01    0.572E-01
RMM:   8    -0.671463683835E+03   -0.30460E-03   -0.24209E-03 23504   0.592E-02    0.273E-01
RMM:   9    -0.671465457674E+03   -0.17738E-02   -0.90782E-04 21625   0.415E-02    0.173E-01
RMM:  10    -0.671467303588E+03   -0.18459E-02   -0.36216E-04 18704   0.254E-02    0.819E-02
RMM:  11    -0.671469664739E+03   -0.23612E-02   -0.17844E-04 16310   0.159E-02    0.671E-02
RMM:  12    -0.671471516318E+03   -0.18516E-02   -0.10380E-04 15205   0.149E-02    0.574E-02
RMM:  13    -0.671473094241E+03   -0.15779E-02   -0.59229E-05 14592   0.115E-02    0.419E-02
RMM:  14    -0.671473731761E+03   -0.63752E-03   -0.26416E-05 13579   0.805E-03    0.259E-02
RMM:  15    -0.671474198679E+03   -0.46692E-03   -0.12444E-05 12567   0.540E-03    0.195E-02
RMM:  16    -0.671474667574E+03   -0.46890E-03   -0.73098E-06 11811   0.413E-03    0.152E-02
RMM:  17    -0.671475389553E+03   -0.72198E-03   -0.76817E-06 11615   0.372E-03    0.125E-02
RMM:  18    -0.671476150725E+03   -0.76117E-03   -0.94378E-06 12050   0.371E-03    0.109E-02
RMM:  19    -0.671476544927E+03   -0.39420E-03   -0.45298E-06 10720   0.311E-03    0.947E-03
RMM:  20    -0.671476849220E+03   -0.30429E-03   -0.28618E-06  9536   0.278E-03    0.795E-03
RMM:  21    -0.671477180108E+03   -0.33089E-03   -0.34288E-06  9582   0.278E-03    0.749E-03
RMM:  22    -0.671477446707E+03   -0.26660E-03   -0.37289E-06  9734   0.277E-03    0.633E-03
RMM:  23    -0.671477645340E+03   -0.19863E-03   -0.22323E-06  8429   0.253E-03    0.541E-03
RMM:  24    -0.671477796283E+03   -0.15094E-03   -0.12075E-06  7431   0.234E-03    0.492E-03
RMM:  25    -0.671477957840E+03   -0.16156E-03   -0.10428E-06  7142   0.230E-03    0.449E-03
RMM:  26    -0.671478160993E+03   -0.20315E-03   -0.17852E-06  7872   0.239E-03    0.416E-03
RMM:  27    -0.671478335708E+03   -0.17472E-03   -0.15262E-06  7500   0.233E-03    0.378E-03
RMM:  28    -0.671478482545E+03   -0.14684E-03   -0.11080E-06  6885   0.223E-03    0.350E-03
RMM:  29    -0.671478610076E+03   -0.12753E-03   -0.74478E-07  6369   0.218E-03    0.332E-03
RMM:  30    -0.671478762107E+03   -0.15203E-03   -0.88566E-07  6468   0.220E-03    0.314E-03
RMM:  31    -0.671478944952E+03   -0.18284E-03   -0.13306E-06  6859   0.223E-03    0.292E-03
RMM:  32    -0.671479113706E+03   -0.16875E-03   -0.78711E-07  6356   0.219E-03    0.277E-03
RMM:  33    -0.671479271301E+03   -0.15759E-03   -0.64434E-07  6080   0.217E-03    0.266E-03
RMM:  34    -0.671479437689E+03   -0.16639E-03   -0.52376E-07  5894   0.216E-03    0.252E-03
RMM:  35    -0.671479626759E+03   -0.18907E-03   -0.52810E-07  5854   0.218E-03    0.232E-03
RMM:  36    -0.671479776020E+03   -0.14926E-03   -0.31581E-07  5648   0.217E-03    0.219E-03
RMM:  37    -0.671479873691E+03   -0.97671E-04   -0.19602E-07  5498   0.217E-03
  11 F= -.67147987E+03 E0= -.67106545E+03  d E =0.414717E-01  mag=    79.9965
       N       E                     dE             d eps       ncg     rms          rms(c)
DAV:   1    -0.671422244814E+03    0.57531E-01   -0.33920E+01 24896   0.467E+00    0.223E+00
RMM:   2    -0.671489179372E+03   -0.66935E-01   -0.83555E-01 24320   0.884E-01    0.165E+00
RMM:   3    -0.671520656149E+03   -0.31477E-01   -0.19877E-01 24527   0.425E-01    0.169E+00
RMM:   4    -0.671514799407E+03    0.58567E-02   -0.32453E-02 23946   0.277E-01    0.110E+00
RMM:   5    -0.671518503121E+03   -0.37037E-02   -0.10227E-02 23115   0.142E-01    0.483E-01
RMM:   6    -0.671522439397E+03   -0.39363E-02   -0.46262E-03 23248   0.921E-02    0.624E-01
RMM:   7    -0.671522386168E+03    0.53230E-04   -0.20610E-03 22239   0.708E-02    0.309E-01
RMM:   8    -0.671523154191E+03   -0.76802E-03   -0.78628E-04 21167   0.356E-02    0.171E-01
RMM:   9    -0.671523682379E+03   -0.52819E-03   -0.27496E-04 17804   0.238E-02    0.886E-02
RMM:  10    -0.671524325940E+03   -0.64356E-03   -0.12072E-04 15241   0.155E-02    0.493E-02
RMM:  11    -0.671525021394E+03   -0.69545E-03   -0.49676E-05 14556   0.101E-02    0.361E-02
RMM:  12    -0.671525444467E+03   -0.42307E-03   -0.28327E-05 13352   0.790E-03    0.281E-02
RMM:  13    -0.671525873395E+03   -0.42893E-03   -0.18374E-05 13014   0.653E-03    0.223E-02
RMM:  14    -0.671526103436E+03   -0.23004E-03   -0.91383E-06 11922   0.484E-03    0.129E-02
RMM:  15    -0.671526295640E+03   -0.19220E-03   -0.50945E-06 10673   0.350E-03    0.109E-02
RMM:  16    -0.671526522757E+03   -0.22712E-03   -0.38334E-06 10111   0.305E-03    0.893E-03
RMM:  17    -0.671526832200E+03   -0.30944E-03   -0.48721E-06 10008   0.298E-03    0.756E-03
RMM:  18    -0.671527107942E+03   -0.27574E-03   -0.43195E-06  9840   0.289E-03    0.707E-03
RMM:  19    -0.671527380193E+03   -0.27225E-03   -0.40899E-06  9612   0.285E-03    0.617E-03
RMM:  20    -0.671527608550E+03   -0.22836E-03   -0.34872E-06  8906   0.272E-03    0.527E-03
RMM:  21    -0.671527798072E+03   -0.18952E-03   -0.35972E-06  9021   0.269E-03    0.445E-03
RMM:  22    -0.671527948363E+03   -0.15029E-03   -0.33441E-06  8898   0.263E-03    0.396E-03
RMM:  23    -0.671528057074E+03   -0.10871E-03   -0.22730E-06  8092   0.249E-03    0.312E-03
RMM:  24    -0.671528147236E+03   -0.90162E-04   -0.15579E-06  7621   0.239E-03
  12 F= -.67152815E+03 E0= -.67111465E+03  d E =-.680189E-02  mag=    79.9964
       N       E                     dE             d eps       ncg     rms          rms(c)
DAV:   1    -0.671483578234E+03    0.44479E-01   -0.30979E+01 25872   0.507E+00    0.205E+00
RMM:   2    -0.671542540112E+03   -0.58962E-01   -0.69251E-01 24320   0.909E-01    0.130E+00
RMM:   3    -0.671564398452E+03   -0.21858E-01   -0.12214E-01 24219   0.364E-01    0.107E+00
RMM:   4    -0.671565124890E+03   -0.72644E-03   -0.21762E-02 23868   0.231E-01    0.990E-01
RMM:   5    -0.671565487540E+03   -0.36265E-03   -0.93377E-03 22749   0.137E-01    0.409E-01
RMM:   6    -0.671566431566E+03   -0.94403E-03   -0.39021E-03 22723   0.863E-02    0.378E-01
RMM:   7    -0.671566522167E+03   -0.90601E-04   -0.14496E-03 21831   0.537E-02    0.224E-01
RMM:   8    -0.671566751674E+03   -0.22951E-03   -0.65020E-04 20734   0.325E-02    0.143E-01
RMM:   9    -0.671567041207E+03   -0.28953E-03   -0.22607E-04 17019   0.189E-02    0.843E-02
RMM:  10    -0.671567282252E+03   -0.24104E-03   -0.78414E-05 14678   0.133E-02    0.530E-02
RMM:  11    -0.671567644738E+03   -0.36249E-03   -0.44673E-05 13758   0.999E-03    0.385E-02
RMM:  12    -0.671567912853E+03   -0.26812E-03   -0.25839E-05 13129   0.769E-03    0.222E-02
RMM:  13    -0.671568144564E+03   -0.23171E-03   -0.13438E-05 12624   0.574E-03    0.180E-02
RMM:  14    -0.671568256262E+03   -0.11170E-03   -0.70604E-06 11885   0.447E-03    0.108E-02
RMM:  15    -0.671568359062E+03   -0.10280E-03   -0.34138E-06 10306   0.319E-03    0.786E-03
RMM:  16    -0.671568456285E+03   -0.97224E-04   -0.19089E-06  9389   0.278E-03
  13 F= -.67156846E+03 E0= -.67115480E+03  d E =-.403090E-01  mag=    79.9976
       N       E                     dE             d eps       ncg     rms          rms(c)
DAV:   1    -0.671581996650E+03   -0.13638E-01   -0.52066E+00 26256   0.202E+00    0.841E-01
RMM:   2    -0.671590365258E+03   -0.83686E-02   -0.10224E-01 24312   0.359E-01    0.516E-01
RMM:   3    -0.671594362685E+03   -0.39974E-02   -0.18752E-02 23333   0.141E-01    0.390E-01
RMM:   4    -0.671595147907E+03   -0.78522E-03   -0.34981E-03 22496   0.903E-02    0.407E-01
RMM:   5    -0.671595347913E+03   -0.20001E-03   -0.13598E-03 21267   0.581E-02    0.180E-01
RMM:   6    -0.671595696322E+03   -0.34841E-03   -0.54551E-04 19694   0.328E-02    0.161E-01
RMM:   7    -0.671595820783E+03   -0.12446E-03   -0.22651E-04 16982   0.223E-02    0.124E-01
RMM:   8    -0.671595847704E+03   -0.26922E-04   -0.85120E-05 14336   0.141E-02
  14 F= -.67159585E+03 E0= -.67118228E+03  d E =-.677005E-01  mag=    79.9977
       N       E                     dE             d eps       ncg     rms          rms(c)
DAV:   1    -0.671572068454E+03    0.23752E-01   -0.24158E+01 25408   0.415E+00    0.174E+00
RMM:   2    -0.671616992190E+03   -0.44924E-01   -0.51035E-01 24320   0.699E-01    0.104E+00
RMM:   3    -0.671638794518E+03   -0.21802E-01   -0.92410E-02 24262   0.315E-01    0.119E+00
RMM:   4    -0.671636621386E+03    0.21731E-02   -0.16573E-02 23668   0.199E-01    0.837E-01
RMM:   5    -0.671636961369E+03   -0.33998E-03   -0.52366E-03 23163   0.101E-01    0.585E-01
RMM:   6    -0.671636391357E+03    0.57001E-03   -0.23450E-03 22284   0.721E-02    0.373E-01
RMM:   7    -0.671636001592E+03    0.38976E-03   -0.13511E-03 21186   0.509E-02    0.202E-01
RMM:   8    -0.671636026849E+03   -0.25257E-04   -0.46610E-04 19102   0.279E-02
  15 F= -.67163603E+03 E0= -.67122196E+03  d E =-.401791E-01  mag=    79.9987
       N       E                     dE             d eps       ncg     rms          rms(c)
DAV:   1    -0.671634512893E+03    0.14887E-02   -0.51308E-01 26896   0.618E-01    0.264E-01
RMM:   2    -0.671635435441E+03   -0.92255E-03   -0.10012E-02 22755   0.106E-01    0.217E-01
RMM:   3    -0.671635921904E+03   -0.48646E-03   -0.19307E-03 20965   0.546E-02    0.208E-01
RMM:   4    -0.671635973499E+03   -0.51594E-04   -0.43628E-04 18290   0.330E-02    0.927E-02
RMM:   5    -0.671636181079E+03   -0.20758E-03   -0.14668E-04 14956   0.168E-02    0.872E-02
RMM:   6    -0.671636251707E+03   -0.70628E-04   -0.65799E-05 13698   0.128E-02    0.582E-02
RMM:   7    -0.671636372630E+03   -0.12092E-03   -0.31069E-05 13207   0.831E-03    0.331E-02
RMM:   8    -0.671636433482E+03   -0.60852E-04   -0.12433E-05 12112   0.564E-03
  16 F= -.67163643E+03 E0= -.67122213E+03  d E =-.405858E-01  mag=    79.9994
       N       E                     dE             d eps       ncg     rms          rms(c)
DAV:   1    -0.671637173560E+03   -0.80093E-03   -0.21798E-01 26688   0.397E-01    0.166E-01
RMM:   2    -0.671637756800E+03   -0.58324E-03   -0.40729E-03 20785   0.639E-02    0.937E-02
RMM:   3    -0.671638134213E+03   -0.37741E-03   -0.67617E-04 17241   0.285E-02    0.113E-01
RMM:   4    -0.671638181247E+03   -0.47034E-04   -0.15620E-04 14869   0.186E-02    0.883E-02
RMM:   5    -0.671638274167E+03   -0.92920E-04   -0.45768E-05 13479   0.108E-02    0.480E-02
RMM:   6    -0.671638318052E+03   -0.43885E-04   -0.23710E-05 12267   0.792E-03    0.300E-02
RMM:   7    -0.671638378987E+03   -0.60935E-04   -0.99237E-06 11434   0.521E-03    0.161E-02
RMM:   8    -0.671638405251E+03   -0.26265E-04   -0.25745E-06  9662   0.303E-03
  17 F= -.67163841E+03 E0= -.67122415E+03  d E =-.425575E-01  mag=    79.9999
       N       E                     dE             d eps       ncg     rms          rms(c)
DAV:   1    -0.671617677769E+03    0.20701E-01   -0.83141E+00 25120   0.238E+00    0.104E+00
RMM:   2    -0.671631534936E+03   -0.13857E-01   -0.16980E-01 24320   0.389E-01    0.627E-01
RMM:   3    -0.671639304161E+03   -0.77692E-02   -0.34291E-02 23939   0.195E-01    0.797E-01
RMM:   4    -0.671637695073E+03    0.16091E-02   -0.63785E-03 22380   0.122E-01    0.403E-01
RMM:   5    -0.671638325325E+03   -0.63025E-03   -0.16343E-03 21582   0.563E-02    0.290E-01
RMM:   6    -0.671638387947E+03   -0.62622E-04   -0.70388E-04 20564   0.393E-02    0.218E-01
RMM:   7    -0.671638368996E+03    0.18951E-04   -0.35778E-04 18154   0.259E-02    0.121E-01
RMM:   8    -0.671638380516E+03   -0.11520E-04   -0.14002E-04 15535   0.173E-02
  18 F= -.67163838E+03 E0= -.67122388E+03  d E =0.247355E-04  mag=    80.0008
       N       E                     dE             d eps       ncg     rms          rms(c)
DAV:   1    -0.671644764416E+03   -0.63954E-02   -0.30328E+00 25568   0.144E+00    0.620E-01
RMM:   2    -0.671650484021E+03   -0.57196E-02   -0.57155E-02 24207   0.232E-01    0.378E-01
RMM:   3    -0.671653796076E+03   -0.33121E-02   -0.11153E-02 22709   0.114E-01    0.468E-01
RMM:   4    -0.671653511961E+03    0.28411E-03   -0.23348E-03 21417   0.727E-02    0.264E-01
RMM:   5    -0.671654012561E+03   -0.50060E-03   -0.63669E-04 19903   0.361E-02    0.211E-01
RMM:   6    -0.671654035330E+03   -0.22769E-04   -0.25729E-04 17197   0.254E-02    0.110E-01
RMM:   7    -0.671654192049E+03   -0.15672E-03   -0.14750E-04 15495   0.167E-02    0.778E-02
RMM:   8    -0.671654239502E+03   -0.47454E-04   -0.49320E-05 13627   0.108E-02
  19 F= -.67165424E+03 E0= -.67123983E+03  d E =-.158343E-01  mag=    80.0012
       N       E                     dE             d eps       ncg     rms          rms(c)
DAV:   1    -0.671682202830E+03   -0.28011E-01   -0.62658E-01 26912   0.854E-01    0.216E-01
RMM:   2    -0.671683371208E+03   -0.11684E-02   -0.12675E-02 23944   0.142E-01    0.136E-01
RMM:   3    -0.671683684266E+03   -0.31306E-03   -0.17146E-03 22122   0.588E-02    0.163E-01
RMM:   4    -0.671683618721E+03    0.65545E-04   -0.38831E-04 18649   0.312E-02    0.990E-02
RMM:   5    -0.671683616668E+03    0.20526E-05   -0.12894E-04 15047   0.162E-02    0.778E-02
RMM:   6    -0.671683616258E+03    0.41025E-06   -0.63300E-05 14119   0.124E-02    0.621E-02
RMM:   7    -0.671683635951E+03   -0.19693E-04   -0.38273E-05 13599   0.999E-03    0.339E-02
RMM:   8    -0.671683644996E+03   -0.90450E-05   -0.13931E-05 12461   0.654E-03
  20 F= -.67168364E+03 E0= -.67126932E+03  d E =-.294055E-01  mag=    80.0017
       N       E                     dE             d eps       ncg     rms          rms(c)
DAV:   1    -0.671686121126E+03   -0.24852E-02   -0.89596E-02 26896   0.322E-01    0.812E-02
RMM:   2    -0.671686298003E+03   -0.17688E-03   -0.18181E-03 21513   0.538E-02    0.489E-02
RMM:   3    -0.671686345153E+03   -0.47150E-04   -0.24859E-04 16189   0.226E-02    0.537E-02
RMM:   4    -0.671686347241E+03   -0.20880E-05   -0.59122E-05 13657   0.133E-02    0.344E-02
RMM:   5    -0.671686364756E+03   -0.17515E-04   -0.17635E-05 12677   0.680E-03    0.180E-02
RMM:   6    -0.671686392346E+03   -0.27590E-04   -0.10230E-05 12115   0.494E-03    0.195E-02
RMM:   7    -0.671686411074E+03   -0.18728E-04   -0.48370E-06 11377   0.409E-03    0.102E-02
RMM:   8    -0.671686419964E+03   -0.88899E-05   -0.12722E-06  7831   0.246E-03
  21 F= -.67168642E+03 E0= -.67127213E+03  d E =-.321805E-01  mag=    80.0021
       N       E                     dE             d eps       ncg     rms          rms(c)
DAV:   1    -0.671717636216E+03   -0.31225E-01   -0.62670E-01 25440   0.742E-01    0.256E-01
RMM:   2    -0.671718945504E+03   -0.13093E-02   -0.12292E-02 24070   0.124E-01    0.155E-01
RMM:   3    -0.671719288328E+03   -0.34282E-03   -0.15207E-03 20843   0.509E-02    0.146E-01
RMM:   4    -0.671719255505E+03    0.32824E-04   -0.36021E-04 17829   0.301E-02    0.112E-01
RMM:   5    -0.671719242822E+03    0.12683E-04   -0.13514E-04 15264   0.181E-02    0.554E-02
RMM:   6    -0.671719256640E+03   -0.13818E-04   -0.74605E-05 14090   0.121E-02    0.602E-02
RMM:   7    -0.671719254379E+03    0.22617E-05   -0.31972E-05 13335   0.956E-03    0.451E-02
RMM:   8    -0.671719250456E+03    0.39227E-05   -0.10474E-05 12217   0.539E-03
  22 F= -.67171925E+03 E0= -.67130489E+03  d E =-.328305E-01  mag=    80.0026
       N       E                     dE             d eps       ncg     rms          rms(c)
DAV:   1    -0.671748331275E+03   -0.29077E-01   -0.33508E+00 24912   0.172E+00    0.591E-01
RMM:   2    -0.671754568588E+03   -0.62373E-02   -0.66396E-02 24322   0.285E-01    0.357E-01
RMM:   3    -0.671757133972E+03   -0.25654E-02   -0.81745E-03 23770   0.116E-01    0.336E-01
RMM:   4    -0.671756962897E+03    0.17108E-03   -0.18575E-03 21905   0.675E-02    0.253E-01
RMM:   5    -0.671756942258E+03    0.20640E-04   -0.68716E-04 19835   0.382E-02    0.118E-01
RMM:   6    -0.671756977592E+03   -0.35334E-04   -0.37623E-04 18392   0.262E-02    0.119E-01
RMM:   7    -0.671756963135E+03    0.14456E-04   -0.15870E-04 15906   0.204E-02    0.952E-02
RMM:   8    -0.671756923605E+03    0.39530E-04   -0.56593E-05 14110   0.118E-02
  23 F= -.67175692E+03 E0= -.67134246E+03  d E =-.705036E-01  mag=    80.0032
       N       E                     dE             d eps       ncg     rms          rms(c)
DAV:   1    -0.671758725287E+03   -0.17622E-02   -0.32061E-01 26160   0.531E-01    0.186E-01
RMM:   2    -0.671759441449E+03   -0.71616E-03   -0.62306E-03 23406   0.892E-02    0.122E-01
RMM:   3    -0.671759607357E+03   -0.16591E-03   -0.80834E-04 19150   0.389E-02    0.129E-01
RMM:   4    -0.671759592364E+03    0.14993E-04   -0.20415E-04 16188   0.235E-02    0.720E-02
RMM:   5    -0.671759626147E+03   -0.33784E-04   -0.70610E-05 13884   0.126E-02    0.428E-02
RMM:   6    -0.671759647762E+03   -0.21615E-04   -0.35758E-05 13149   0.859E-03    0.408E-02
RMM:   7    -0.671759659124E+03   -0.11362E-04   -0.14771E-05 12527   0.654E-03    0.346E-02
RMM:   8    -0.671759664929E+03   -0.58045E-05   -0.46525E-06 11390   0.402E-03
  24 F= -.67175966E+03 E0= -.67134523E+03  d E =-.732450E-01  mag=    80.0038
       N       E                     dE             d eps       ncg     rms          rms(c)
DAV:   1    -0.671760439659E+03   -0.78053E-03   -0.38472E-02 27024   0.184E-01    0.639E-02
RMM:   2    -0.671760543783E+03   -0.10412E-03   -0.75245E-04 17512   0.310E-02    0.404E-02
RMM:   3    -0.671760558733E+03   -0.14951E-04   -0.94515E-05 14607   0.141E-02    0.436E-02
RMM:   4    -0.671760555440E+03    0.32932E-05   -0.23453E-05 12659   0.797E-03    0.271E-02
RMM:   5    -0.671760564700E+03   -0.92597E-05   -0.75483E-06 11585   0.450E-03    0.196E-02
RMM:   6    -0.671760574716E+03   -0.10016E-04   -0.38685E-06 10765   0.365E-03    0.156E-02
RMM:   7    -0.671760586387E+03   -0.11671E-04   -0.20313E-06  9157   0.288E-03    0.888E-03
RMM:   8    -0.671760595751E+03   -0.93644E-05   -0.21505E-07  5748   0.211E-03
  25 F= -.67176060E+03 E0= -.67134613E+03  d E =-.741758E-01  mag=    80.0043
       N       E                     dE             d eps       ncg     rms          rms(c)
DAV:   1    -0.671771518917E+03   -0.10933E-01   -0.31722E-01 25344   0.492E-01    0.186E-01
RMM:   2    -0.671772147204E+03   -0.62829E-03   -0.62177E-03 22716   0.760E-02    0.111E-01
RMM:   3    -0.671772223908E+03   -0.76703E-04   -0.70295E-04 17948   0.329E-02    0.859E-02
RMM:   4    -0.671772209213E+03    0.14695E-04   -0.16965E-04 15616   0.202E-02    0.881E-02
RMM:   5    -0.671772180834E+03    0.28378E-04   -0.64785E-05 13773   0.129E-02    0.435E-02
RMM:   6    -0.671772198911E+03   -0.18077E-04   -0.29014E-05 12893   0.829E-03    0.496E-02
RMM:   7    -0.671772209719E+03   -0.10808E-04   -0.15354E-05 12471   0.646E-03    0.236E-02
RMM:   8    -0.671772225593E+03   -0.15874E-04   -0.43806E-06 11067   0.374E-03
  26 F= -.67177223E+03 E0= -.67135775E+03  d E =-.116298E-01  mag=    80.0049
       N       E                     dE             d eps       ncg     rms          rms(c)
DAV:   1    -0.671772498947E+03   -0.28923E-03   -0.67190E-03 25936   0.719E-02    0.272E-02
RMM:   2    -0.671772530259E+03   -0.31312E-04   -0.13306E-04 14796   0.117E-02    0.194E-02
RMM:   3    -0.671772537599E+03   -0.73402E-05   -0.17437E-05 12212   0.629E-03    0.194E-02
RMM:   4    -0.671772542670E+03   -0.50711E-05   -0.45176E-06 10359   0.384E-03    0.105E-02
RMM:   5    -0.671772557539E+03   -0.14869E-04   -0.10938E-06  7303   0.247E-03    0.736E-03
RMM:   6    -0.671772572026E+03   -0.14487E-04   -0.56212E-07  6723   0.228E-03    0.622E-03
RMM:   7    -0.671772589050E+03   -0.17024E-04   -0.18293E-07  5745   0.207E-03    0.381E-03
RMM:   8    -0.671772597309E+03   -0.82594E-05   -0.19014E-08  4962   0.197E-03
  27 F= -.67177260E+03 E0= -.67135813E+03  d E =-.120016E-01  mag=    80.0054
       N       E                     dE             d eps       ncg     rms          rms(c)
DAV:   1    -0.671783229262E+03   -0.10640E-01   -0.82765E-02 26704   0.310E-01    0.757E-02
RMM:   2    -0.671783396314E+03   -0.16705E-03   -0.19827E-03 21516   0.560E-02    0.503E-02
RMM:   3    -0.671783446759E+03   -0.50445E-04   -0.30558E-04 16160   0.238E-02    0.564E-02
RMM:   4    -0.671783439015E+03    0.77444E-05   -0.65155E-05 13621   0.134E-02    0.321E-02
RMM:   5    -0.671783444501E+03   -0.54860E-05   -0.19231E-05 12659   0.703E-03    0.252E-02
RMM:   6    -0.671783459755E+03   -0.15255E-04   -0.85285E-06 11669   0.457E-03    0.201E-02
RMM:   7    -0.671783480704E+03   -0.20949E-04   -0.50490E-06 11363   0.380E-03    0.167E-02
RMM:   8    -0.671783497900E+03   -0.17195E-04   -0.18129E-06  9392   0.284E-03
  28 F= -.67178350E+03 E0= -.67136907E+03  d E =-.109006E-01  mag=    80.0058
       N       E                     dE             d eps       ncg     rms          rms(c)
DAV:   1    -0.671788074150E+03   -0.45934E-02   -0.16986E-01 26416   0.442E-01    0.109E-01
RMM:   2    -0.671788422752E+03   -0.34860E-03   -0.40272E-03 22720   0.799E-02    0.721E-02
RMM:   3    -0.671788526644E+03   -0.10389E-03   -0.62964E-04 18397   0.338E-02    0.779E-02
RMM:   4    -0.671788512571E+03    0.14073E-04   -0.13298E-04 14808   0.185E-02    0.450E-02
RMM:   5    -0.671788517621E+03   -0.50501E-05   -0.40774E-05 13252   0.103E-02    0.347E-02
RMM:   6    -0.671788534690E+03   -0.17069E-04   -0.18505E-05 12373   0.646E-03    0.230E-02
RMM:   7    -0.671788564142E+03   -0.29452E-04   -0.11724E-05 12205   0.550E-03    0.216E-02
RMM:   8    -0.671788580775E+03   -0.16633E-04   -0.43405E-06 10965   0.373E-03
  29 F= -.67178858E+03 E0= -.67137421E+03  d E =-.159835E-01  mag=    80.0062
       N       E                     dE             d eps       ncg     rms          rms(c)
DAV:   1    -0.671788685874E+03   -0.12173E-03   -0.27647E-03 26016   0.567E-02    0.153E-02
RMM:   2    -0.671788717721E+03   -0.31847E-04   -0.67124E-05 14127   0.108E-02    0.193E-02
RMM:   3    -0.671788729585E+03   -0.11864E-04   -0.10887E-05 12288   0.555E-03    0.149E-02
RMM:   4    -0.671788744044E+03   -0.14459E-04   -0.17514E-06  8637   0.281E-03    0.657E-03
RMM:   5    -0.671788758754E+03   -0.14710E-04   -0.14506E-07  5198   0.192E-03    0.510E-03
RMM:   6    -0.671788775870E+03   -0.17116E-04   -0.17154E-07  5575   0.197E-03    0.455E-03
RMM:   7    -0.671788792808E+03   -0.16938E-04   -0.26004E-08  4946   0.185E-03    0.230E-03
RMM:   8    -0.671788805900E+03   -0.13092E-04   -0.10554E-08  4883   0.191E-03
  30 F= -.67178881E+03 E0= -.67137443E+03  d E =-.162086E-01  mag=    80.0066
       N       E                     dE             d eps       ncg     rms          rms(c)
DAV:   1    -0.671790411026E+03   -0.16182E-02   -0.14218E-02 26864   0.138E-01    0.371E-02
RMM:   2    -0.671790440851E+03   -0.29825E-04   -0.31297E-04 16407   0.249E-02    0.225E-02
RMM:   3    -0.671790453185E+03   -0.12334E-04   -0.42707E-05 14291   0.110E-02    0.194E-02
RMM:   4    -0.671790456732E+03   -0.35474E-05   -0.89263E-06 12567   0.544E-03    0.143E-02
RMM:   5    -0.671790464360E+03   -0.76280E-05   -0.27067E-06 10750   0.323E-03    0.914E-03
RMM:   6    -0.671790472652E+03   -0.82920E-05   -0.62047E-07  6900   0.227E-03    0.902E-03
RMM:   7    -0.671790482324E+03   -0.96713E-05   -0.31212E-07  6159   0.217E-03    0.537E-03
RMM:   8    -0.671790490872E+03   -0.85486E-05   -0.78597E-08  5168   0.205E-03
  31 F= -.67179049E+03 E0= -.67137611E+03  d E =-.168497E-02  mag=    80.0070
       N       E                     dE             d eps       ncg     rms          rms(c)
DAV:   1    -0.671791143270E+03   -0.66095E-03   -0.20902E-02 26944   0.168E-01    0.449E-02
RMM:   2    -0.671791183363E+03   -0.40093E-04   -0.46358E-04 17851   0.304E-02    0.273E-02
RMM:   3    -0.671791197984E+03   -0.14621E-04   -0.65226E-05 14587   0.132E-02    0.236E-02
RMM:   4    -0.671791200617E+03   -0.26338E-05   -0.14010E-05 12940   0.681E-03    0.179E-02
RMM:   5    -0.671791206256E+03   -0.56387E-05   -0.43428E-06 11666   0.382E-03    0.114E-02
RMM:   6    -0.671791212897E+03   -0.66408E-05   -0.15065E-06  8514   0.260E-03    0.113E-02
RMM:   7    -0.671791221168E+03   -0.82715E-05   -0.85005E-07  7837   0.244E-03    0.621E-03
RMM:   8    -0.671791228428E+03   -0.72601E-05   -0.12647E-07  5510   0.217E-03
  32 F= -.67179123E+03 E0= -.67137685E+03  d E =-.242253E-02  mag=    80.0074
       N       E                     dE             d eps       ncg     rms          rms(c)
DAV:   1    -0.671792530901E+03   -0.13097E-02   -0.10259E-02 27040   0.116E-01    0.409E-02
RMM:   2    -0.671792553704E+03   -0.22803E-04   -0.22233E-04 15703   0.211E-02    0.253E-02
RMM:   3    -0.671792568536E+03   -0.14832E-04   -0.31436E-05 14436   0.979E-03    0.244E-02
RMM:   4    -0.671792568629E+03   -0.93598E-07   -0.90587E-06 12155   0.542E-03    0.141E-02
RMM:   5    -0.671792573869E+03   -0.52396E-05   -0.25878E-06  9957   0.318E-03    0.852E-03
RMM:   6    -0.671792579320E+03   -0.54515E-05   -0.10561E-06  8078   0.259E-03    0.706E-03
RMM:   7    -0.671792585037E+03   -0.57165E-05   -0.36831E-07  6484   0.232E-03    0.545E-03
RMM:   8    -0.671792589040E+03   -0.40033E-05   -0.15772E-08  4885   0.209E-03
  33 F= -.67179259E+03 E0= -.67137821E+03  d E =-.136061E-02  mag=    80.0078
       N       E                     dE             d eps       ncg     rms          rms(c)
DAV:   1    -0.671795384674E+03   -0.27996E-02   -0.92327E-02 25568   0.349E-01    0.123E-01
RMM:   2    -0.671795584856E+03   -0.20018E-03   -0.19586E-03 23884   0.630E-02    0.751E-02
RMM:   3    -0.671795665386E+03   -0.80531E-04   -0.29383E-04 16824   0.267E-02    0.733E-02
RMM:   4    -0.671795650772E+03    0.14614E-04   -0.88826E-05 14965   0.173E-02    0.407E-02
RMM:   5    -0.671795647250E+03    0.35223E-05   -0.26679E-05 13680   0.839E-03    0.242E-02
RMM:   6    -0.671795644073E+03    0.31772E-05   -0.13465E-05 13005   0.598E-03    0.215E-02
RMM:   7    -0.671795641597E+03    0.24755E-05   -0.77605E-06 12221   0.492E-03    0.155E-02
RMM:   8    -0.671795641345E+03    0.25239E-06   -0.26402E-06 10437   0.324E-03
  34 F= -.67179564E+03 E0= -.67138126E+03  d E =-.441292E-02  mag=    80.0083
       N       E                     dE             d eps       ncg     rms          rms(c)
DAV:   1    -0.671796188014E+03   -0.54642E-03   -0.36962E-01 25600   0.697E-01    0.248E-01
RMM:   2    -0.671797043195E+03   -0.85518E-03   -0.78080E-03 24320   0.125E-01    0.149E-01
RMM:   3    -0.671797330995E+03   -0.28780E-03   -0.11551E-03 22739   0.527E-02    0.135E-01
RMM:   4    -0.671797286114E+03    0.44881E-04   -0.32086E-04 17956   0.298E-02    0.843E-02
RMM:   5    -0.671797265558E+03    0.20556E-04   -0.11155E-04 15313   0.169E-02    0.507E-02
RMM:   6    -0.671797255875E+03    0.96834E-05   -0.54908E-05 14544   0.117E-02    0.532E-02
RMM:   7    -0.671797234857E+03    0.21018E-04   -0.30228E-05 14143   0.923E-03    0.369E-02
RMM:   8    -0.671797224645E+03    0.10211E-04   -0.10945E-05 12987   0.568E-03
  35 F= -.67179722E+03 E0= -.67138284E+03  d E =-.599622E-02  mag=    80.0089
       N       E                     dE             d eps       ncg     rms          rms(c)
DAV:   1    -0.671797326089E+03   -0.91233E-04   -0.24543E-02 27504   0.180E-01    0.658E-02
RMM:   2    -0.671797407766E+03   -0.81677E-04   -0.52567E-04 18429   0.328E-02    0.484E-02
RMM:   3    -0.671797448606E+03   -0.40840E-04   -0.89999E-05 15022   0.161E-02    0.569E-02
RMM:   4    -0.671797447330E+03    0.12764E-05   -0.28533E-05 13514   0.961E-03    0.182E-02
RMM:   5    -0.671797465361E+03   -0.18031E-04   -0.74565E-06 12055   0.448E-03    0.156E-02
RMM:   6    -0.671797480315E+03   -0.14954E-04   -0.34217E-06 11037   0.348E-03    0.124E-02
RMM:   7    -0.671797495668E+03   -0.15353E-04   -0.15956E-06  9502   0.285E-03    0.102E-02
RMM:   8    -0.671797506817E+03   -0.11149E-04   -0.16805E-07  6076   0.223E-03
  36 F= -.67179751E+03 E0= -.67138311E+03  d E =-.627839E-02  mag=    80.0094
       N       E                     dE             d eps       ncg     rms          rms(c)
DAV:   1    -0.671797942662E+03   -0.44699E-03   -0.13243E-03 25328   0.381E-02    0.148E-02
RMM:   2    -0.671797952847E+03   -0.10185E-04   -0.28651E-05 14223   0.698E-03    0.127E-02
RMM:   3    -0.671797958813E+03   -0.59665E-05   -0.41520E-06 11315   0.369E-03    0.167E-02
RMM:   4    -0.671797960466E+03   -0.16531E-05   -0.51884E-07  7054   0.231E-03    0.426E-03
RMM:   5    -0.671797967906E+03   -0.74394E-05   -0.73564E-08  5160   0.197E-03    0.469E-03
RMM:   6    -0.671797976579E+03   -0.86734E-05   -0.53396E-08  4918   0.191E-03    0.287E-03
RMM:   7    -0.671797986729E+03   -0.10150E-04   -0.94800E-08  5251   0.197E-03    0.215E-03
RMM:   8    -0.671797994240E+03   -0.75107E-05   -0.18231E-08  4886   0.192E-03
  37 F= -.67179799E+03 E0= -.67138360E+03  d E =-.487423E-03  mag=    80.0099
       N       E                     dE             d eps       ncg     rms          rms(c)
DAV:   1    -0.671799278049E+03   -0.12913E-02   -0.11831E-02 26816   0.113E-01    0.428E-02
RMM:   2    -0.671799302087E+03   -0.24037E-04   -0.24921E-04 15610   0.198E-02    0.260E-02
RMM:   3    -0.671799311778E+03   -0.96909E-05   -0.32191E-05 14314   0.928E-03    0.255E-02
RMM:   4    -0.671799310679E+03    0.10985E-05   -0.91911E-06 11894   0.529E-03    0.148E-02
RMM:   5    -0.671799314342E+03   -0.36624E-05   -0.21945E-06  9240   0.295E-03    0.895E-03
RMM:   6    -0.671799319255E+03   -0.49132E-05   -0.90026E-07  7752   0.249E-03    0.965E-03
RMM:   7    -0.671799324342E+03   -0.50873E-05   -0.20177E-07  5740   0.220E-03    0.533E-03
RMM:   8    -0.671799328761E+03   -0.44187E-05   -0.79645E-08  5136   0.208E-03
  38 F= -.67179933E+03 E0= -.67138492E+03  d E =-.182194E-02  mag=    80.0104
       N       E                     dE             d eps       ncg     rms          rms(c)
DAV:   1    -0.671801787223E+03   -0.24629E-02   -0.47333E-02 25872   0.227E-01    0.861E-02
RMM:   2    -0.671801887312E+03   -0.10009E-03   -0.98612E-04 20118   0.393E-02    0.515E-02
RMM:   3    -0.671801912727E+03   -0.25415E-04   -0.12839E-04 15154   0.175E-02    0.503E-02
RMM:   4    -0.671801904860E+03    0.78673E-05   -0.40794E-05 14059   0.113E-02    0.300E-02
RMM:   5    -0.671801901204E+03    0.36564E-05   -0.11035E-05 12475   0.552E-03    0.161E-02
RMM:   6    -0.671801902312E+03   -0.11087E-05   -0.58785E-06 11625   0.415E-03    0.189E-02
RMM:   7    -0.671801903065E+03   -0.75251E-06   -0.31155E-06 11096   0.346E-03    0.117E-02
RMM:   8    -0.671801905136E+03   -0.20708E-05   -0.45279E-07  6688   0.230E-03
  39 F= -.67180191E+03 E0= -.67138748E+03  d E =-.439832E-02  mag=    80.0110
       N       E                     dE             d eps       ncg     rms          rms(c)
DAV:   1    -0.671804000703E+03   -0.20976E-02   -0.18952E-01 25232   0.454E-01    0.173E-01
RMM:   2    -0.671804411761E+03   -0.41106E-03   -0.39326E-03 23982   0.783E-02    0.102E-01
RMM:   3    -0.671804531848E+03   -0.12009E-03   -0.50895E-04 18485   0.334E-02    0.961E-02
RMM:   4    -0.671804507065E+03    0.24782E-04   -0.15021E-04 15598   0.212E-02    0.644E-02
RMM:   5    -0.671804491110E+03    0.15955E-04   -0.47415E-05 14445   0.111E-02    0.389E-02
RMM:   6    -0.671804488426E+03    0.26841E-05   -0.23303E-05 13789   0.774E-03    0.437E-02
RMM:   7    -0.671804473148E+03    0.15278E-04   -0.13048E-05 13146   0.625E-03    0.194E-02
RMM:   8    -0.671804472796E+03    0.35251E-06   -0.48124E-06 11617   0.402E-03
  40 F= -.67180447E+03 E0= -.67139001E+03  d E =-.696598E-02  mag=    80.0116
       N       E                     dE             d eps       ncg     rms          rms(c)
DAV:   1    -0.671807472665E+03   -0.29995E-02   -0.20538E-02 27136   0.133E-01    0.516E-02
RMM:   2    -0.671807505138E+03   -0.32473E-04   -0.44864E-04 16058   0.228E-02    0.306E-02
RMM:   3    -0.671807508463E+03   -0.33248E-05   -0.53847E-05 14463   0.107E-02    0.262E-02
RMM:   4    -0.671807508857E+03   -0.39488E-06   -0.13129E-05 12218   0.614E-03    0.213E-02
RMM:   5    -0.671807513242E+03   -0.43842E-05   -0.37533E-06 11234   0.362E-03    0.149E-02
RMM:   6    -0.671807518805E+03   -0.55633E-05   -0.13929E-06  8431   0.268E-03    0.968E-03
RMM:   7    -0.671807531099E+03   -0.12294E-04   -0.61746E-07  7025   0.238E-03    0.553E-03
RMM:   8    -0.671807537642E+03   -0.65430E-05   -0.46250E-08  5176   0.207E-03
  41 F= -.67180754E+03 E0= -.67139304E+03  d E =-.306485E-02  mag=    80.0122
       N       E                     dE             d eps       ncg     rms          rms(c)
DAV:   1    -0.671810032364E+03   -0.25013E-02   -0.17070E-01 25056   0.381E-01    0.147E-01
RMM:   2    -0.671810368896E+03   -0.33653E-03   -0.36523E-03 23187   0.647E-02    0.879E-02
RMM:   3    -0.671810440229E+03   -0.71333E-04   -0.45902E-04 16984   0.282E-02    0.825E-02
RMM:   4    -0.671810426710E+03    0.13519E-04   -0.11288E-04 15035   0.182E-02    0.618E-02
RMM:   5    -0.671810423023E+03    0.36876E-05   -0.33364E-05 13831   0.919E-03    0.378E-02
RMM:   6    -0.671810430056E+03   -0.70333E-05   -0.16288E-05 12886   0.647E-03    0.352E-02
RMM:   7    -0.671810437660E+03   -0.76038E-05   -0.90058E-06 12475   0.536E-03    0.167E-02
RMM:   8    -0.671810444683E+03   -0.70236E-05   -0.32160E-06 10869   0.353E-03
  42 F= -.67181044E+03 E0= -.67139587E+03  d E =-.597189E-02  mag=    80.0129
       N       E                     dE             d eps       ncg     rms          rms(c)
DAV:   1    -0.671810669509E+03   -0.23185E-03   -0.97342E-03 26768   0.909E-02    0.352E-02
RMM:   2    -0.671810723812E+03   -0.54304E-04   -0.20448E-04 15046   0.156E-02    0.253E-02
RMM:   3    -0.671810747280E+03   -0.23467E-04   -0.27932E-05 13742   0.791E-03    0.278E-02
RMM:   4    -0.671810754402E+03   -0.71223E-05   -0.70253E-06 11554   0.464E-03    0.143E-02
RMM:   5    -0.671810769428E+03   -0.15026E-04   -0.10933E-06  7590   0.249E-03    0.116E-02
RMM:   6    -0.671810780161E+03   -0.10733E-04   -0.52435E-07  6760   0.228E-03    0.659E-03
RMM:   7    -0.671810794392E+03   -0.14231E-04   -0.19771E-07  5756   0.215E-03    0.441E-03
RMM:   8    -0.671810803561E+03   -0.91689E-05   -0.52264E-08  5079   0.206E-03
  43 F= -.67181080E+03 E0= -.67139625E+03  d E =-.633077E-02  mag=    80.0135
       N       E                     dE             d eps       ncg     rms          rms(c)
DAV:   1    -0.671812999429E+03   -0.22050E-02   -0.62411E-03 26992   0.896E-02    0.252E-02
RMM:   2    -0.671813021947E+03   -0.22518E-04   -0.14030E-04 14981   0.166E-02    0.179E-02
RMM:   3    -0.671813029800E+03   -0.78529E-05   -0.18989E-05 13365   0.758E-03    0.190E-02
RMM:   4    -0.671813033146E+03   -0.33467E-05   -0.43908E-06 11879   0.396E-03    0.114E-02
RMM:   5    -0.671813042429E+03   -0.92830E-05   -0.10173E-06  7816   0.249E-03    0.859E-03
RMM:   6    -0.671813051966E+03   -0.95372E-05   -0.27189E-07  6290   0.222E-03    0.588E-03
RMM:   7    -0.671813063146E+03   -0.11180E-04   -0.94362E-08  5324   0.213E-03    0.410E-03
RMM:   8    -0.671813073482E+03   -0.10336E-04   -0.14780E-07  5455   0.212E-03
  44 F= -.67181307E+03 E0= -.67139851E+03  d E =-.226992E-02  mag=    80.0141
       N       E                     dE             d eps       ncg     rms          rms(c)
DAV:   1    -0.671817211165E+03   -0.41480E-02   -0.55927E-02 26128   0.268E-01    0.753E-02
RMM:   2    -0.671817343496E+03   -0.13233E-03   -0.12335E-03 22387   0.495E-02    0.509E-02
RMM:   3    -0.671817379232E+03   -0.35737E-04   -0.18498E-04 15435   0.203E-02    0.576E-02
RMM:   4    -0.671817373668E+03    0.55647E-05   -0.46931E-05 13967   0.125E-02    0.314E-02
RMM:   5    -0.671817381014E+03   -0.73458E-05   -0.15550E-05 13037   0.624E-03    0.264E-02
RMM:   6    -0.671817389886E+03   -0.88727E-05   -0.74549E-06 12193   0.494E-03    0.185E-02
RMM:   7    -0.671817405982E+03   -0.16096E-04   -0.48572E-06 11572   0.385E-03    0.122E-02
RMM:   8    -0.671817418141E+03   -0.12159E-04   -0.14892E-06  9099   0.279E-03
  45 F= -.67181742E+03 E0= -.67140282E+03  d E =-.661458E-02  mag=    80.0146
       N       E                     dE             d eps       ncg     rms          rms(c)
DAV:   1    -0.671814571574E+03    0.28344E-02   -0.22401E-01 26224   0.536E-01    0.151E-01
RMM:   2    -0.671815062593E+03   -0.49102E-03   -0.48899E-03 23902   0.991E-02    0.101E-01
RMM:   3    -0.671815199096E+03   -0.13650E-03   -0.72757E-04 21137   0.405E-02    0.108E-01
RMM:   4    -0.671815175235E+03    0.23861E-04   -0.18012E-04 15871   0.224E-02    0.672E-02
RMM:   5    -0.671815175293E+03   -0.58673E-07   -0.66119E-05 14271   0.133E-02    0.536E-02
RMM:   6    -0.671815176734E+03   -0.14403E-05   -0.29528E-05 13618   0.912E-03    0.365E-02
RMM:   7    -0.671815194115E+03   -0.17381E-04   -0.19393E-05 13196   0.710E-03    0.239E-02
RMM:   8    -0.671815208749E+03   -0.14635E-04   -0.76049E-06 12194   0.491E-03
  46 F= -.67181521E+03 E0= -.67140055E+03  d E =-.440519E-02  mag=    80.0150
       N       E                     dE             d eps       ncg     rms          rms(c)
DAV:   1    -0.671818025338E+03   -0.28312E-02   -0.92305E-02 27216   0.345E-01    0.985E-02
RMM:   2    -0.671818249829E+03   -0.22449E-03   -0.20582E-03 23001   0.637E-02    0.674E-02
RMM:   3    -0.671818328387E+03   -0.78558E-04   -0.30637E-04 16657   0.260E-02    0.778E-02
RMM:   4    -0.671818317326E+03    0.11060E-04   -0.75149E-05 14515   0.156E-02    0.401E-02
RMM:   5    -0.671818333719E+03   -0.16393E-04   -0.26474E-05 13473   0.807E-03    0.343E-02
RMM:   6    -0.671818338786E+03   -0.50673E-05   -0.12310E-05 12555   0.620E-03    0.245E-02
RMM:   7    -0.671818343598E+03   -0.48121E-05   -0.79937E-06 12169   0.474E-03    0.155E-02
RMM:   8    -0.671818343862E+03   -0.26356E-06   -0.24804E-06 10300   0.324E-03
  47 F= -.67181834E+03 E0= -.67140373E+03  d E =-.754030E-02  mag=    80.0154
       N       E                     dE             d eps       ncg     rms          rms(c)
DAV:   1    -0.671820193176E+03   -0.18496E-02   -0.10789E-02 27040   0.130E-01    0.412E-02
RMM:   2    -0.671820232449E+03   -0.39273E-04   -0.26067E-04 16298   0.256E-02    0.300E-02
RMM:   3    -0.671820251487E+03   -0.19038E-04   -0.42919E-05 14323   0.117E-02    0.305E-02
RMM:   4    -0.671820254294E+03   -0.28070E-05   -0.11732E-05 12627   0.635E-03    0.141E-02
RMM:   5    -0.671820262318E+03   -0.80243E-05   -0.35506E-06 11421   0.347E-03    0.111E-02
RMM:   6    -0.671820268544E+03   -0.62254E-05   -0.11086E-06  8657   0.260E-03    0.829E-03
RMM:   7    -0.671820272744E+03   -0.41998E-05   -0.46506E-07  6989   0.237E-03    0.625E-03
RMM:   8    -0.671820275612E+03   -0.28680E-05   -0.37030E-08  5127   0.213E-03
  48 F= -.67182028E+03 E0= -.67140566E+03  d E =-.193175E-02  mag=    80.0158
       N       E                     dE             d eps       ncg     rms          rms(c)
DAV:   1    -0.671822441643E+03   -0.21689E-02   -0.96702E-02 26576   0.389E-01    0.123E-01
RMM:   2    -0.671822743126E+03   -0.30148E-03   -0.23227E-03 23692   0.770E-02    0.878E-02
RMM:   3    -0.671822862040E+03   -0.11891E-03   -0.40666E-04 19249   0.322E-02    0.904E-02
RMM:   4    -0.671822852252E+03    0.97882E-05   -0.11018E-04 15129   0.191E-02    0.417E-02
RMM:   5    -0.671822871937E+03   -0.19686E-04   -0.35702E-05 13936   0.988E-03    0.347E-02
RMM:   6    -0.671822879734E+03   -0.77961E-05   -0.15817E-05 13193   0.683E-03    0.279E-02
RMM:   7    -0.671822882368E+03   -0.26347E-05   -0.10583E-05 13105   0.537E-03    0.190E-02
RMM:   8    -0.671822881247E+03    0.11213E-05   -0.37255E-06 11560   0.357E-03
  49 F= -.67182288E+03 E0= -.67140825E+03  d E =-.453738E-02  mag=    80.0161
       N       E                     dE             d eps       ncg     rms          rms(c)
DAV:   1    -0.671824269858E+03   -0.13875E-02   -0.19994E-02 27072   0.159E-01    0.627E-02
RMM:   2    -0.671824333283E+03   -0.63425E-04   -0.45611E-04 17918   0.298E-02    0.384E-02
RMM:   3    -0.671824359914E+03   -0.26631E-04   -0.63622E-05 14526   0.133E-02    0.335E-02
RMM:   4    -0.671824358440E+03    0.14743E-05   -0.18789E-05 12990   0.801E-03    0.214E-02
RMM:   5    -0.671824357734E+03    0.70641E-06   -0.55379E-06 11899   0.434E-03    0.124E-02
RMM:   6    -0.671824358736E+03   -0.10021E-05   -0.23946E-06 10419   0.305E-03    0.131E-02
RMM:   7    -0.671824360695E+03   -0.19595E-05   -0.13414E-06  9600   0.273E-03    0.759E-03
RMM:   8    -0.671824363693E+03   -0.29979E-05   -0.11802E-07  5731   0.213E-03
  50 F= -.67182436E+03 E0= -.67140973E+03  d E =-.148245E-02  mag=    80.0164
       N       E                     dE             d eps       ncg     rms          rms(c)
DAV:   1    -0.671824769896E+03   -0.40920E-03   -0.17370E-02 26992   0.148E-01    0.579E-02
RMM:   2    -0.671824826275E+03   -0.56379E-04   -0.39608E-04 17291   0.276E-02    0.332E-02
RMM:   3    -0.671824850024E+03   -0.23750E-04   -0.52105E-05 14466   0.120E-02    0.258E-02
RMM:   4    -0.671824850475E+03   -0.45076E-06   -0.13639E-05 12838   0.677E-03    0.230E-02
RMM:   5    -0.671824848634E+03    0.18408E-05   -0.43838E-06 11827   0.391E-03    0.133E-02
RMM:   6    -0.671824848439E+03    0.19558E-06   -0.15315E-06  9542   0.274E-03    0.104E-02
RMM:   7    -0.671824849304E+03   -0.86566E-06   -0.91657E-07  8746   0.257E-03    0.461E-03
RMM:   8    -0.671824852076E+03   -0.27721E-05   -0.44064E-08  5329   0.214E-03
  51 F= -.67182485E+03 E0= -.67141021E+03  d E =-.197083E-02  mag=    80.0168
       N       E                     dE             d eps       ncg     rms          rms(c)
DAV:   1    -0.671826044220E+03   -0.11949E-02   -0.21956E-02 27408   0.178E-01    0.791E-02
RMM:   2    -0.671826128459E+03   -0.84240E-04   -0.46955E-04 19921   0.356E-02    0.466E-02
RMM:   3    -0.671826167100E+03   -0.38641E-04   -0.71566E-05 14693   0.145E-02    0.332E-02
RMM:   4    -0.671826166953E+03    0.14668E-06   -0.22498E-05 13539   0.921E-03    0.246E-02
RMM:   5    -0.671826168925E+03   -0.19716E-05   -0.77053E-06 12339   0.505E-03    0.139E-02
RMM:   6    -0.671826170436E+03   -0.15115E-05   -0.38093E-06 11788   0.356E-03    0.122E-02
RMM:   7    -0.671826170640E+03   -0.20349E-06   -0.19786E-06 11087   0.306E-03    0.776E-03
RMM:   8    -0.671826170480E+03    0.15926E-06   -0.36214E-08  5522   0.200E-03
  52 F= -.67182617E+03 E0= -.67141154E+03  d E =-.131840E-02  mag=    80.0172
       N       E                     dE             d eps       ncg     rms          rms(c)
DAV:   1    -0.671826988071E+03   -0.81743E-03   -0.19760E-01 26944   0.534E-01    0.237E-01
RMM:   2    -0.671827771427E+03   -0.78336E-03   -0.41763E-03 24058   0.107E-01    0.140E-01
RMM:   3    -0.671828038679E+03   -0.26725E-03   -0.66527E-04 21803   0.420E-02    0.101E-01
RMM:   4    -0.671828022027E+03    0.16652E-04   -0.18044E-04 16488   0.238E-02    0.715E-02
RMM:   5    -0.671828010831E+03    0.11195E-04   -0.70494E-05 14624   0.147E-02    0.472E-02
RMM:   6    -0.671828005495E+03    0.53360E-05   -0.33325E-05 14242   0.938E-03    0.442E-02
RMM:   7    -0.671827992724E+03    0.12772E-04   -0.18548E-05 13670   0.746E-03    0.240E-02
RMM:   8    -0.671827985835E+03    0.68890E-05   -0.61363E-06 12228   0.451E-03
  53 F= -.67182799E+03 E0= -.67141338E+03  d E =-.313376E-02  mag=    80.0177
       N       E                     dE             d eps       ncg     rms          rms(c)
DAV:   1    -0.671828875829E+03   -0.88311E-03   -0.13385E-02 27984   0.133E-01    0.720E-02
RMM:   2    -0.671828931708E+03   -0.55878E-04   -0.26930E-04 17400   0.264E-02    0.437E-02
RMM:   3    -0.671828958356E+03   -0.26648E-04   -0.40031E-05 14461   0.118E-02    0.336E-02
RMM:   4    -0.671828955602E+03    0.27535E-05   -0.13345E-05 13058   0.721E-03    0.222E-02
RMM:   5    -0.671828951085E+03    0.45169E-05   -0.46087E-06 11901   0.393E-03    0.177E-02
RMM:   6    -0.671828947000E+03    0.40852E-05   -0.26616E-06 11333   0.335E-03    0.107E-02
RMM:   7    -0.671828942784E+03    0.42161E-05   -0.99079E-07  8753   0.260E-03    0.413E-03
RMM:   8    -0.671828940734E+03    0.20503E-05   -0.37843E-08  5402   0.217E-03
  54 F= -.67182894E+03 E0= -.67141434E+03  d E =-.954899E-03  mag=    80.0182
       N       E                     dE             d eps       ncg     rms          rms(c)
DAV:   1    -0.671830087484E+03   -0.11447E-02   -0.12048E-01 26880   0.399E-01    0.214E-01
RMM:   2    -0.671830636870E+03   -0.54939E-03   -0.23309E-03 23918   0.785E-02    0.123E-01
RMM:   3    -0.671830825774E+03   -0.18890E-03   -0.33348E-04 18629   0.309E-02    0.707E-02
RMM:   4    -0.671830823335E+03    0.24396E-05   -0.10501E-04 15103   0.194E-02    0.643E-02
RMM:   5    -0.671830808759E+03    0.14576E-04   -0.44329E-05 14392   0.120E-02    0.366E-02
RMM:   6    -0.671830805330E+03    0.34291E-05   -0.21056E-05 13986   0.758E-03    0.365E-02
RMM:   7    -0.671830792333E+03    0.12997E-04   -0.10449E-05 12968   0.577E-03    0.172E-02
RMM:   8    -0.671830787850E+03    0.44834E-05   -0.31568E-06 11717   0.348E-03
  55 F= -.67183079E+03 E0= -.67141619E+03  d E =-.280201E-02  mag=    80.0188
       N       E                     dE             d eps       ncg     rms          rms(c)
DAV:   1    -0.671826626233E+03    0.41661E-02   -0.48205E-01 26496   0.798E-01    0.428E-01
RMM:   2    -0.671828899585E+03   -0.22734E-02   -0.93040E-03 24248   0.157E-01    0.248E-01
RMM:   3    -0.671829546196E+03   -0.64661E-03   -0.13443E-03 23877   0.625E-02    0.139E-01
RMM:   4    -0.671829529737E+03    0.16459E-04   -0.42007E-04 20214   0.363E-02    0.117E-01
RMM:   5    -0.671829476089E+03    0.53647E-04   -0.15982E-04 16175   0.219E-02    0.615E-02
RMM:   6    -0.671829455041E+03    0.21048E-04   -0.88846E-05 14783   0.158E-02    0.528E-02
RMM:   7    -0.671829431165E+03    0.23877E-04   -0.40558E-05 14428   0.116E-02    0.282E-02
RMM:   8    -0.671829419873E+03    0.11292E-04   -0.11526E-05 13143   0.598E-03
  56 F= -.67182942E+03 E0= -.67141483E+03  d E =-.143404E-02  mag=    80.0195
       N       E                     dE             d eps       ncg     rms          rms(c)
DAV:   1    -0.671829604570E+03   -0.17341E-03   -0.23783E-01 27600   0.560E-01    0.301E-01
RMM:   2    -0.671830685904E+03   -0.10813E-02   -0.45805E-03 24135   0.110E-01    0.174E-01
RMM:   3    -0.671831036029E+03   -0.35013E-03   -0.65004E-04 22058   0.439E-02    0.109E-01
RMM:   4    -0.671831032172E+03    0.38566E-05   -0.20538E-04 17028   0.258E-02    0.868E-02
RMM:   5    -0.671831028728E+03    0.34445E-05   -0.81022E-05 14652   0.162E-02    0.594E-02
RMM:   6    -0.671831041317E+03   -0.12590E-04   -0.40302E-05 14350   0.104E-02    0.497E-02
RMM:   7    -0.671831039812E+03    0.15055E-05   -0.21288E-05 13949   0.793E-03    0.220E-02
RMM:   8    -0.671831045739E+03   -0.59269E-05   -0.63916E-06 12338   0.477E-03
  57 F= -.67183105E+03 E0= -.67141644E+03  d E =-.305990E-02  mag=    80.0202
       N       E                     dE             d eps       ncg     rms          rms(c)
DAV:   1    -0.671832809865E+03   -0.17701E-02   -0.46358E-02 27376   0.245E-01    0.136E-01
RMM:   2    -0.671833031662E+03   -0.22180E-03   -0.89765E-04 22610   0.494E-02    0.784E-02
RMM:   3    -0.671833109260E+03   -0.77598E-04   -0.12772E-04 15341   0.195E-02    0.457E-02
RMM:   4    -0.671833108876E+03    0.38370E-06   -0.45580E-05 14362   0.134E-02    0.393E-02
RMM:   5    -0.671833106149E+03    0.27269E-05   -0.17614E-05 13287   0.762E-03    0.219E-02
RMM:   6    -0.671833105532E+03    0.61747E-06   -0.91310E-06 12689   0.515E-03    0.172E-02
RMM:   7    -0.671833104109E+03    0.14226E-05   -0.37987E-06 11863   0.387E-03    0.116E-02
RMM:   8    -0.671833102199E+03    0.19097E-05   -0.43618E-07  7388   0.237E-03
  58 F= -.67183310E+03 E0= -.67141846E+03  d E =-.205646E-02  mag=    80.0208
       N       E                     dE             d eps       ncg     rms          rms(c)
DAV:   1    -0.671833184819E+03   -0.80710E-04   -0.37584E-01 26640   0.696E-01    0.387E-01
RMM:   2    -0.671835088300E+03   -0.19035E-02   -0.73168E-03 24249   0.142E-01    0.228E-01
RMM:   3    -0.671835609690E+03   -0.52139E-03   -0.11074E-03 23468   0.574E-02    0.144E-01
RMM:   4    -0.671835584815E+03    0.24875E-04   -0.35626E-04 19471   0.337E-02    0.107E-01
RMM:   5    -0.671835573026E+03    0.11790E-04   -0.14379E-04 15738   0.201E-02    0.848E-02
RMM:   6    -0.671835550576E+03    0.22449E-04   -0.67893E-05 14481   0.138E-02    0.610E-02
RMM:   7    -0.671835526111E+03    0.24466E-04   -0.38305E-05 14400   0.104E-02    0.311E-02
RMM:   8    -0.671835516151E+03    0.99596E-05   -0.12677E-05 13330   0.665E-03
  59 F= -.67183552E+03 E0= -.67142076E+03  d E =-.447041E-02  mag=    80.0215
       N       E                     dE             d eps       ncg     rms          rms(c)
DAV:   1    -0.671837258228E+03   -0.17321E-02   -0.96986E-02 27728   0.360E-01    0.186E-01
RMM:   2    -0.671837674230E+03   -0.41600E-03   -0.18277E-03 23934   0.701E-02    0.106E-01
RMM:   3    -0.671837817437E+03   -0.14321E-03   -0.27049E-04 17458   0.280E-02    0.701E-02
RMM:   4    -0.671837804902E+03    0.12534E-04   -0.88573E-05 14794   0.184E-02    0.527E-02
RMM:   5    -0.671837781709E+03    0.23194E-04   -0.33727E-05 14314   0.104E-02    0.262E-02
RMM:   6    -0.671837766163E+03    0.15546E-04   -0.17869E-05 13743   0.703E-03    0.236E-02
RMM:   7    -0.671837755166E+03    0.10997E-04   -0.77607E-06 12323   0.529E-03    0.130E-02
RMM:   8    -0.671837750965E+03    0.42012E-05   -0.22447E-06 10953   0.311E-03
  60 F= -.67183775E+03 E0= -.67142297E+03  d E =-.223481E-02  mag=    80.0222
       N       E                     dE             d eps       ncg     rms          rms(c)
DAV:   1    -0.671837878659E+03   -0.12349E-03   -0.80117E-02 27376   0.327E-01    0.169E-01
RMM:   2    -0.671838223882E+03   -0.34522E-03   -0.15067E-03 23714   0.636E-02    0.966E-02
RMM:   3    -0.671838350163E+03   -0.12628E-03   -0.22307E-04 16522   0.250E-02    0.699E-02
RMM:   4    -0.671838339802E+03    0.10361E-04   -0.68450E-05 14587   0.160E-02    0.549E-02
RMM:   5    -0.671838319986E+03    0.19816E-04   -0.25947E-05 14183   0.866E-03    0.376E-02
RMM:   6    -0.671838305390E+03    0.14596E-04   -0.14413E-05 13347   0.678E-03    0.233E-02
RMM:   7    -0.671838295265E+03    0.10125E-04   -0.85589E-06 12554   0.513E-03    0.133E-02
RMM:   8    -0.671838291668E+03    0.35968E-05   -0.25010E-06 11312   0.334E-03
  61 F= -.67183829E+03 E0= -.67142349E+03  d E =-.277552E-02  mag=    80.0228
       N       E                     dE             d eps       ncg     rms          rms(c)
DAV:   1    -0.671839486950E+03   -0.11917E-02   -0.75630E-02 27232   0.324E-01    0.164E-01
RMM:   2    -0.671839798026E+03   -0.31108E-03   -0.15250E-03 23963   0.642E-02    0.925E-02
RMM:   3    -0.671839924467E+03   -0.12644E-03   -0.23123E-04 16552   0.261E-02    0.720E-02
RMM:   4    -0.671839916435E+03    0.80317E-05   -0.77748E-05 14675   0.174E-02    0.454E-02
RMM:   5    -0.671839915467E+03    0.96764E-06   -0.26819E-05 14230   0.885E-03    0.313E-02
RMM:   6    -0.671839916460E+03   -0.99232E-06   -0.13502E-05 13567   0.632E-03    0.304E-02
RMM:   7    -0.671839909802E+03    0.66576E-05   -0.73835E-06 12465   0.490E-03    0.155E-02
RMM:   8    -0.671839907585E+03    0.22170E-05   -0.21267E-06 10770   0.305E-03
  62 F= -.67183991E+03 E0= -.67142513E+03  d E =-.161592E-02  mag=    80.0235
       N       E                     dE             d eps       ncg     rms          rms(c)
DAV:   1    -0.671839967674E+03   -0.57871E-04   -0.29893E-02 27888   0.204E-01    0.103E-01
RMM:   2    -0.671840084817E+03   -0.11714E-03   -0.60660E-04 21618   0.403E-02    0.576E-02
RMM:   3    -0.671840138243E+03   -0.53426E-04   -0.86133E-05 14817   0.162E-02    0.401E-02
RMM:   4    -0.671840138164E+03    0.79162E-07   -0.30498E-05 14313   0.110E-02    0.306E-02
RMM:   5    -0.671840139204E+03   -0.10403E-05   -0.99389E-06 12890   0.562E-03    0.182E-02
RMM:   6    -0.671840142116E+03   -0.29118E-05   -0.51083E-06 12104   0.405E-03    0.199E-02
RMM:   7    -0.671840140635E+03    0.14808E-05   -0.27940E-06 11671   0.333E-03    0.911E-03
RMM:   8    -0.671840140942E+03   -0.30734E-06   -0.12972E-07  6019   0.215E-03
  63 F= -.67184014E+03 E0= -.67142539E+03  d E =-.184927E-02  mag=    80.0242
       N       E                     dE             d eps       ncg     rms          rms(c)
DAV:   1    -0.671840951073E+03   -0.81044E-03   -0.75278E-02 26320   0.329E-01    0.155E-01
RMM:   2    -0.671841248427E+03   -0.29735E-03   -0.15187E-03 23957   0.631E-02    0.914E-02
RMM:   3    -0.671841375328E+03   -0.12690E-03   -0.23041E-04 16553   0.259E-02    0.880E-02
RMM:   4    -0.671841350381E+03    0.24947E-04   -0.73194E-05 14622   0.170E-02    0.476E-02
RMM:   5    -0.671841346159E+03    0.42226E-05   -0.24989E-05 14233   0.829E-03    0.355E-02
RMM:   6    -0.671841344512E+03    0.16466E-05   -0.14806E-05 13496   0.695E-03    0.241E-02
RMM:   7    -0.671841346511E+03   -0.19986E-05   -0.87291E-06 12519   0.529E-03    0.148E-02
RMM:   8    -0.671841348330E+03   -0.18189E-05   -0.26037E-06 11438   0.334E-03
  64 F= -.67184135E+03 E0= -.67142664E+03  d E =-.120739E-02  mag=    80.0249
       N       E                     dE             d eps       ncg     rms          rms(c)
DAV:   1    -0.671841353144E+03   -0.66333E-05   -0.49916E-04 26320   0.272E-02    0.135E-02
RMM:   2    -0.671841357325E+03   -0.41812E-05   -0.12076E-05 14140   0.574E-03    0.112E-02
RMM:   3    -0.671841360496E+03   -0.31707E-05   -0.21102E-06 11102   0.312E-03    0.124E-02
RMM:   4    -0.671841360469E+03    0.27008E-07   -0.66810E-08  5516   0.203E-03    0.482E-03
RMM:   5    -0.671841362470E+03   -0.20014E-05   -0.51348E-08  4903   0.205E-03    0.391E-03
RMM:   6    -0.671841366980E+03   -0.45099E-05   -0.68603E-09  4590   0.189E-03    0.336E-03
RMM:   7    -0.671841372244E+03   -0.52638E-05   -0.12138E-08  4714   0.200E-03    0.261E-03
RMM:   8    -0.671841376954E+03   -0.47102E-05   -0.40752E-08  4834   0.205E-03
  65 F= -.67184138E+03 E0= -.67142667E+03  d E =-.123601E-02  mag=    80.0255
       N       E                     dE             d eps       ncg     rms          rms(c)
DAV:   1    -0.671841922779E+03   -0.55054E-03   -0.11887E-02 26576   0.140E-01    0.560E-02
RMM:   2    -0.671841968093E+03   -0.45313E-04   -0.28674E-04 17108   0.279E-02    0.367E-02
RMM:   3    -0.671841988415E+03   -0.20322E-04   -0.43987E-05 14473   0.128E-02    0.363E-02
RMM:   4    -0.671841985960E+03    0.24550E-05   -0.12984E-05 13478   0.726E-03    0.185E-02
RMM:   5    -0.671841987658E+03   -0.16983E-05   -0.44032E-06 12094   0.379E-03    0.177E-02
[...]
RMM:   8    -0.671841988949E+03   -0.62445E-06   -0.57487E-08  5283   0.217E-03
  66 F= -.67184199E+03 E0= -.67142729E+03  d E =-.611994E-03  mag=    80.0262
       N       E                     dE             d eps       ncg     rms          rms(c)
DAV:   1    -0.671842136248E+03   -0.14792E-03   -0.14266E-02 26480   0.153E-01    0.615E-02
RMM:   2    -0.671842187725E+03   -0.51477E-04   -0.34561E-04 18219   0.305E-02    0.404E-02
RMM:   3    -0.671842210541E+03   -0.22816E-04   -0.53613E-05 14533   0.138E-02    0.396E-02
RMM:   4    -0.671842206535E+03    0.40061E-05   -0.15887E-05 13873   0.803E-03    0.210E-02
RMM:   5    -0.671842206041E+03    0.49407E-06   -0.54913E-06 12438   0.409E-03    0.193E-02
RMM:   6    -0.671842204081E+03    0.19595E-05   -0.27088E-06 11493   0.333E-03    0.110E-02
RMM:   7    -0.671842202888E+03    0.11930E-05   -0.15184E-06 10044   0.274E-03    0.687E-03
RMM:   8    -0.671842202228E+03    0.66077E-06   -0.59044E-08  5510   0.216E-03
  67 F= -.67184220E+03 E0= -.67142750E+03  d E =-.825273E-03  mag=    80.0268
       N       E                     dE             d eps       ncg     rms          rms(c)
DAV:   1    -0.671842614257E+03   -0.41137E-03   -0.82488E-03 27168   0.112E-01    0.527E-02
RMM:   2    -0.671842647850E+03   -0.33593E-04   -0.20570E-04 15907   0.223E-02    0.345E-02
RMM:   3    -0.671842663854E+03   -0.16004E-04   -0.29551E-05 14424   0.105E-02    0.314E-02
RMM:   4    -0.671842661750E+03    0.21043E-05   -0.96669E-06 13190   0.621E-03    0.186E-02
RMM:   5    -0.671842662805E+03   -0.10547E-05   -0.33747E-06 11654   0.347E-03    0.162E-02
RMM:   6    -0.671842663737E+03   -0.93179E-06   -0.12980E-06  9505   0.274E-03    0.920E-03
RMM:   7    -0.671842666180E+03   -0.24433E-05   -0.55015E-07  7341   0.246E-03    0.530E-03
RMM:   8    -0.671842668755E+03   -0.25756E-05   -0.34090E-08  5001   0.216E-03
  68 F= -.67184267E+03 E0= -.67142798E+03  d E =-.466528E-03  mag=    80.0275
       N       E                     dE             d eps       ncg     rms          rms(c)
DAV:   1    -0.671842818850E+03   -0.15267E-03   -0.18863E-02 25792   0.170E-01    0.795E-02
RMM:   2    -0.671842896956E+03   -0.78106E-04   -0.46338E-04 19422   0.336E-02    0.519E-02
RMM:   3    -0.671842931170E+03   -0.34215E-04   -0.67995E-05 14654   0.150E-02    0.443E-02
RMM:   4    -0.671842926773E+03    0.43972E-05   -0.24363E-05 14188   0.984E-03    0.264E-02
RMM:   5    -0.671842927886E+03   -0.11129E-05   -0.79291E-06 12773   0.510E-03    0.166E-02
RMM:   6    -0.671842930298E+03   -0.24117E-05   -0.42839E-06 12037   0.377E-03    0.146E-02
RMM:   7    -0.671842932083E+03   -0.17853E-05   -0.22845E-06 11279   0.312E-03    0.111E-02
RMM:   8    -0.671842934075E+03   -0.19916E-05   -0.72517E-08  5500   0.209E-03
  69 F= -.67184293E+03 E0= -.67142826E+03  d E =-.731847E-03  mag=    80.0281
       N       E                     dE             d eps       ncg     rms          rms(c)
DAV:   1    -0.671843278392E+03   -0.34631E-03   -0.12139E-02 26576   0.141E-01    0.605E-02
RMM:   2    -0.671843322716E+03   -0.44324E-04   -0.31442E-04 17080   0.281E-02    0.410E-02
RMM:   3    -0.671843346567E+03   -0.23852E-04   -0.46482E-05 14559   0.130E-02    0.378E-02
RMM:   4    -0.671843344063E+03    0.25039E-05   -0.15080E-05 13848   0.770E-03    0.216E-02
RMM:   5    -0.671843345728E+03   -0.16647E-05   -0.51442E-06 12248   0.412E-03    0.191E-02
RMM:   6    -0.671843346014E+03   -0.28592E-06   -0.25308E-06 11228   0.324E-03    0.125E-02
RMM:   7    -0.671843347137E+03   -0.11227E-05   -0.10326E-06  8633   0.260E-03    0.620E-03
RMM:   8    -0.671843348755E+03   -0.16182E-05   -0.55520E-08  5209   0.219E-03
  70 F= -.67184335E+03 E0= -.67142869E+03  d E =-.414680E-03  mag=    80.0287
       N       E                     dE             d eps       ncg     rms          rms(c)
DAV:   1    -0.671843402738E+03   -0.55601E-04   -0.52708E-03 27248   0.930E-02    0.400E-02
RMM:   2    -0.671843422320E+03   -0.19582E-04   -0.13913E-04 15176   0.185E-02    0.270E-02
RMM:   3    -0.671843433202E+03   -0.10882E-04   -0.19902E-05 14341   0.873E-03    0.236E-02
RMM:   4    -0.671843432610E+03    0.59186E-06   -0.62138E-06 12557   0.501E-03    0.136E-02
RMM:   5    -0.671843434562E+03   -0.19521E-05   -0.18573E-06 10570   0.292E-03    0.796E-03
RMM:   6    -0.671843436525E+03   -0.19628E-05   -0.23810E-07  6029   0.229E-03    0.583E-03
RMM:   7    -0.671843438635E+03   -0.21099E-05   -0.19585E-07  5655   0.218E-03    0.655E-03
RMM:   8    -0.671843439655E+03   -0.10203E-05   -0.11810E-08  4704   0.204E-03
  71 F= -.67184344E+03 E0= -.67142879E+03  d E =-.505580E-03  mag=    80.0294
       N       E                     dE             d eps       ncg     rms          rms(c)
DAV:   1    -0.671843603412E+03   -0.16478E-03   -0.58864E-03 26272   0.101E-01    0.393E-02
RMM:   2    -0.671843622315E+03   -0.18903E-04   -0.16274E-04 15208   0.204E-02    0.277E-02
RMM:   3    -0.671843633736E+03   -0.11421E-04   -0.23893E-05 14375   0.974E-03    0.268E-02
RMM:   4    -0.671843631709E+03    0.20275E-05   -0.73442E-06 13019   0.553E-03    0.139E-02
RMM:   5    -0.671843630441E+03    0.12675E-05   -0.23458E-06 11255   0.310E-03    0.970E-03
RMM:   6    -0.671843628950E+03    0.14910E-05   -0.65055E-07  7486   0.247E-03    0.729E-03
RMM:   7    -0.671843628167E+03    0.78324E-06   -0.25509E-07  6272   0.234E-03    0.582E-03
RMM:   8    -0.671843628111E+03    0.55879E-07   -0.21232E-08  4686   0.211E-03
  72 F= -.67184363E+03 E0= -.67142898E+03  d E =-.188456E-03  mag=    80.0300
       N       E                     dE             d eps       ncg     rms          rms(c)
DAV:   1    -0.671843645346E+03   -0.17180E-04   -0.14075E-03 26672   0.493E-02    0.194E-02
RMM:   2    -0.671843650670E+03   -0.53234E-05   -0.41486E-05 14554   0.104E-02    0.146E-02
RMM:   3    -0.671843654176E+03   -0.35060E-05   -0.61552E-06 13423   0.502E-03    0.143E-02
RMM:   4    -0.671843653883E+03    0.29244E-06   -0.16672E-06 10646   0.296E-03    0.717E-03
RMM:   5    -0.671843654927E+03   -0.10435E-05   -0.21130E-08  4663   0.188E-03    0.649E-03
RMM:   6    -0.671843655457E+03   -0.52992E-06   -0.12754E-08  4663   0.190E-03    0.554E-03
RMM:   7    -0.671843656945E+03   -0.14883E-05   -0.11116E-08  4625   0.186E-03    0.301E-03
RMM:   8    -0.671843658788E+03   -0.18431E-05   -0.61536E-09  4531   0.196E-03
  73 F= -.67184366E+03 E0= -.67142902E+03  d E =-.219133E-03  mag=    80.0306
       N       E                     dE             d eps       ncg     rms          rms(c)
DAV:   1    -0.671843808409E+03   -0.15146E-03   -0.51575E-03 25728   0.917E-02    0.401E-02
RMM:   2    -0.671843824613E+03   -0.16204E-04   -0.14492E-04 15116   0.184E-02    0.264E-02
RMM:   3    -0.671843834241E+03   -0.96280E-05   -0.19224E-05 14306   0.841E-03    0.250E-02
RMM:   4    -0.671843832331E+03    0.19106E-05   -0.57210E-06 12799   0.484E-03    0.151E-02
RMM:   5    -0.671843831825E+03    0.50617E-06   -0.19119E-06 10532   0.286E-03    0.140E-02
RMM:   6    -0.671843831379E+03    0.44610E-06   -0.79952E-07  8241   0.257E-03    0.780E-03
RMM:   7    -0.671843832079E+03   -0.70035E-06   -0.18314E-07  5678   0.225E-03    0.500E-03
RMM:   8    -0.671843833335E+03   -0.12564E-05   -0.27829E-08  4718   0.209E-03
  74 F= -.67184383E+03 E0= -.67142921E+03  d E =-.174547E-03  mag=    80.0312
       N       E                     dE             d eps       ncg     rms          rms(c)
DAV:   1    -0.671843864737E+03   -0.32658E-04   -0.68613E-03 25600   0.106E-01    0.464E-02
RMM:   2    -0.671843885851E+03   -0.21114E-04   -0.19494E-04 15439   0.214E-02    0.323E-02
RMM:   3    -0.671843897883E+03   -0.12032E-04   -0.28281E-05 14382   0.102E-02    0.310E-02
RMM:   4    -0.671843894547E+03    0.33365E-05   -0.88190E-06 13461   0.594E-03    0.170E-02
RMM:   5    -0.671843893046E+03    0.15004E-05   -0.29245E-06 11480   0.325E-03    0.158E-02
RMM:   6    -0.671843891622E+03    0.14249E-05   -0.12612E-06  9351   0.272E-03    0.984E-03
RMM:   7    -0.671843890993E+03    0.62864E-06   -0.35771E-07  6438   0.235E-03    0.587E-03
RMM:   8    -0.671843891675E+03   -0.68219E-06   -0.30813E-08  4850   0.215E-03
  75 F= -.67184389E+03 E0= -.67142928E+03  d E =-.232887E-03  mag=    80.0318
       N       E                     dE             d eps       ncg     rms          rms(c)
DAV:   1    -0.671844031503E+03   -0.14051E-03   -0.33501E-03 26192   0.720E-02    0.345E-02
RMM:   2    -0.671844041435E+03   -0.99321E-05   -0.10047E-04 14933   0.151E-02    0.245E-02
RMM:   3    -0.671844048442E+03   -0.70068E-05   -0.15158E-05 14192   0.751E-03    0.244E-02
RMM:   4    -0.671844046098E+03    0.23441E-05   -0.46796E-06 11862   0.451E-03    0.121E-02
RMM:   5    -0.671844046956E+03   -0.85821E-06   -0.74959E-07  7857   0.250E-03    0.104E-02
RMM:   6    -0.671844047088E+03   -0.13178E-06   -0.39160E-07  6438   0.239E-03    0.896E-03
RMM:   7    -0.671844048640E+03   -0.15520E-05   -0.72406E-08  5081   0.219E-03    0.422E-03
RMM:   8    -0.671844050779E+03   -0.21392E-05   -0.77671E-08  5081   0.217E-03
  76 F= -.67184405E+03 E0= -.67142945E+03  d E =-.159104E-03  mag=    80.0324
       N       E                     dE             d eps       ncg     rms          rms(c)
DAV:   1    -0.671844092662E+03   -0.44022E-04   -0.25169E-02 25024   0.197E-01    0.942E-02
RMM:   2    -0.671844176423E+03   -0.83761E-04   -0.73064E-04 21728   0.410E-02    0.628E-02
RMM:   3    -0.671844223906E+03   -0.47483E-04   -0.10789E-04 14889   0.181E-02    0.610E-02
RMM:   4    -0.671844211605E+03    0.12301E-04   -0.39505E-05 14419   0.128E-02    0.317E-02
RMM:   5    -0.671844204991E+03    0.66138E-05   -0.12025E-05 13447   0.598E-03    0.204E-02
RMM:   6    -0.671844200644E+03    0.43474E-05   -0.73882E-06 12718   0.479E-03    0.182E-02
RMM:   7    -0.671844198292E+03    0.23521E-05   -0.39185E-06 11877   0.392E-03    0.139E-02
RMM:   8    -0.671844197402E+03    0.88988E-06   -0.57779E-07  7524   0.244E-03
  77 F= -.67184420E+03 E0= -.67142962E+03  d E =-.305727E-03  mag=    80.0330
       N       E                     dE             d eps       ncg     rms          rms(c)
DAV:   1    -0.671844346653E+03   -0.14836E-03   -0.65726E-03 26128   0.102E-01    0.470E-02
RMM:   2    -0.671844365942E+03   -0.19290E-04   -0.19391E-04 15451   0.210E-02    0.318E-02
RMM:   3    -0.671844377167E+03   -0.11224E-04   -0.27228E-05 14442   0.100E-02    0.298E-02
RMM:   4    -0.671844373521E+03    0.36457E-05   -0.86330E-06 13385   0.594E-03    0.161E-02
RMM:   5    -0.671844369723E+03    0.37979E-05   -0.28878E-06 11562   0.329E-03    0.109E-02
RMM:   6    -0.671844367453E+03    0.22701E-05   -0.13648E-06  9386   0.274E-03    0.956E-03
RMM:   7    -0.671844365834E+03    0.16186E-05   -0.45668E-07  7137   0.245E-03    0.643E-03
RMM:   8    -0.671844366145E+03   -0.31060E-06   -0.31521E-08  4831   0.210E-03
  78 F= -.67184437E+03 E0= -.67142979E+03  d E =-.168743E-03  mag=    80.0336
       N       E                     dE             d eps       ncg     rms          rms(c)
DAV:   1    -0.671844395764E+03   -0.29929E-04   -0.61367E-03 26704   0.988E-02    0.454E-02
RMM:   2    -0.671844414926E+03   -0.19162E-04   -0.18142E-04 15358   0.203E-02    0.316E-02
RMM:   3    -0.671844426640E+03   -0.11714E-04   -0.26235E-05 14410   0.982E-03    0.306E-02
RMM:   4    -0.671844422300E+03    0.43395E-05   -0.82185E-06 13277   0.578E-03    0.159E-02
RMM:   5    -0.671844420763E+03    0.15371E-05   -0.26166E-06 11384   0.311E-03    0.144E-02
RMM:   6    -0.671844418094E+03    0.26692E-05   -0.11302E-06  8954   0.266E-03    0.108E-02
RMM:   7    -0.671844417122E+03    0.97230E-06   -0.26280E-07  6189   0.234E-03    0.581E-03
RMM:   8    -0.671844417153E+03   -0.31199E-07   -0.37347E-08  4958   0.218E-03
  79 F= -.67184442E+03 E0= -.67142984E+03  d E =-.219751E-03  mag=    80.0343
       N       E                     dE             d eps       ncg     rms          rms(c)
DAV:   1    -0.671844545922E+03   -0.12880E-03   -0.90106E-03 26464   0.120E-01    0.542E-02
RMM:   2    -0.671844575962E+03   -0.30040E-04   -0.26517E-04 16178   0.246E-02    0.385E-02
RMM:   3    -0.671844590646E+03   -0.14685E-04   -0.39910E-05 14526   0.119E-02    0.369E-02
RMM:   4    -0.671844585856E+03    0.47903E-05   -0.12616E-05 13823   0.709E-03    0.182E-02
RMM:   5    -0.671844584037E+03    0.18193E-05   -0.41579E-06 11956   0.377E-03    0.129E-02
RMM:   6    -0.671844582479E+03    0.15576E-05   -0.24488E-06 11251   0.312E-03    0.108E-02
RMM:   7    -0.671844581947E+03    0.53179E-06   -0.10434E-06  8987   0.266E-03    0.703E-03
RMM:   8    -0.671844582003E+03   -0.55414E-07   -0.47688E-08  4959   0.201E-03
  80 F= -.67184458E+03 E0= -.67143002E+03  d E =-.164850E-03  mag=    80.0349
       N       E                     dE             d eps       ncg     rms          rms(c)
DAV:   1    -0.671844594045E+03   -0.12098E-04   -0.23282E-03 27504   0.610E-02    0.277E-02
RMM:   2    -0.671844602025E+03   -0.79796E-05   -0.70413E-05 14727   0.126E-02    0.210E-02
RMM:   3    -0.671844607281E+03   -0.52559E-05   -0.10412E-05 14020   0.620E-03    0.221E-02
RMM:   4    -0.671844605047E+03    0.22338E-05   -0.29294E-06 11617   0.360E-03    0.109E-02
RMM:   5    -0.671844606081E+03   -0.10338E-05   -0.18604E-07  5774   0.212E-03    0.973E-03
RMM:   6    -0.671844606265E+03   -0.18440E-06   -0.12926E-07  5689   0.213E-03    0.619E-03
RMM:   7    -0.671844607890E+03   -0.16252E-05   -0.27235E-08  4813   0.199E-03    0.385E-03
RMM:   8    -0.671844609427E+03   -0.15371E-05   -0.34375E-08  4738   0.209E-03
  81 F= -.67184461E+03 E0= -.67143005E+03  d E =-.192274E-03  mag=    80.0356
       N       E                     dE             d eps       ncg     rms          rms(c)
DAV:   1    -0.671844707604E+03   -0.99714E-04   -0.55020E-03 26432   0.951E-02    0.411E-02
RMM:   2    -0.671844728446E+03   -0.20842E-04   -0.16704E-04 15267   0.197E-02    0.299E-02
RMM:   3    -0.671844737403E+03   -0.89565E-05   -0.25191E-05 14346   0.973E-03    0.316E-02
RMM:   4    -0.671844734920E+03    0.24829E-05   -0.72504E-06 13171   0.546E-03    0.150E-02
RMM:   5    -0.671844735494E+03   -0.57463E-06   -0.24225E-06 10806   0.300E-03    0.162E-02
RMM:   6    -0.671844735854E+03   -0.35996E-06   -0.13896E-06  9908   0.278E-03    0.855E-03
RMM:   7    -0.671844737399E+03   -0.15451E-05   -0.25278E-07  5999   0.225E-03    0.503E-03
RMM:   8    -0.671844739525E+03   -0.21253E-05   -0.31821E-08  4860   0.206E-03
  82 F= -.67184474E+03 E0= -.67143020E+03  d E =-.130097E-03  mag=    80.0362
       N       E                     dE             d eps       ncg     rms          rms(c)
DAV:   1    -0.671844747364E+03   -0.99647E-05   -0.15585E-03 27376   0.508E-02    0.221E-02
RMM:   2    -0.671844755485E+03   -0.81211E-05   -0.49867E-05 14551   0.108E-02    0.181E-02
RMM:   3    -0.671844758707E+03   -0.32214E-05   -0.78720E-06 13698   0.555E-03    0.166E-02
RMM:   4    -0.671844758887E+03   -0.18021E-06   -0.21514E-06 10976   0.320E-03    0.787E-03
RMM:   5    -0.671844761229E+03   -0.23423E-05   -0.44654E-08  5042   0.196E-03    0.575E-03
RMM:   6    -0.671844764411E+03   -0.31823E-05   -0.38758E-08  4832   0.184E-03    0.474E-03
RMM:   7    -0.671844766818E+03   -0.24070E-05   -0.15841E-08  4647   0.192E-03    0.404E-03
RMM:   8    -0.671844769048E+03   -0.22296E-05   -0.18011E-08  4621   0.198E-03
  83 F= -.67184477E+03 E0= -.67143024E+03  d E =-.159621E-03  mag=    80.0368
       N       E                     dE             d eps       ncg     rms          rms(c)
DAV:   1    -0.671844851728E+03   -0.84909E-04   -0.63029E-03 26352   0.101E-01    0.439E-02
RMM:   2    -0.671844877851E+03   -0.26124E-04   -0.19552E-04 15409   0.207E-02    0.308E-02
RMM:   3    -0.671844888056E+03   -0.10205E-04   -0.27450E-05 14387   0.997E-03    0.300E-02
RMM:   4    -0.671844887211E+03    0.84424E-06   -0.81652E-06 13387   0.577E-03    0.155E-02
RMM:   5    -0.671844889894E+03   -0.26822E-05   -0.28264E-06 11449   0.322E-03    0.139E-02
RMM:   6    -0.671844892562E+03   -0.26682E-05   -0.13241E-06  9366   0.273E-03    0.112E-02
RMM:   7    -0.671844894667E+03   -0.21048E-05   -0.26497E-07  6155   0.232E-03    0.655E-03
RMM:   8    -0.671844897019E+03   -0.23521E-05   -0.49918E-08  5008   0.220E-03
  84 F= -.67184490E+03 E0= -.67143038E+03  d E =-.127971E-03  mag=    80.0374
       N       E                     dE             d eps       ncg     rms          rms(c)
DAV:   1    -0.671844903193E+03   -0.85267E-05   -0.11731E-03 27088   0.438E-02    0.192E-02
RMM:   2    -0.671844911447E+03   -0.82534E-05   -0.39114E-05 14547   0.936E-03    0.159E-02
RMM:   3    -0.671844915066E+03   -0.36191E-05   -0.60007E-06 13264   0.487E-03    0.148E-02
RMM:   4    -0.671844916132E+03   -0.10659E-05   -0.15623E-06 10262   0.292E-03    0.722E-03
RMM:   5    -0.671844920291E+03   -0.41593E-05   -0.29452E-08  4687   0.186E-03    0.658E-03
RMM:   6    -0.671844923411E+03   -0.31199E-05   -0.19674E-08  4635   0.183E-03    0.611E-03
RMM:   7    -0.671844927789E+03   -0.43777E-05   -0.17032E-08  4691   0.182E-03    0.326E-03
RMM:   8    -0.671844930959E+03   -0.31707E-05   -0.59278E-09  4631   0.189E-03
  85 F= -.67184493E+03 E0= -.67143041E+03  d E =-.161911E-03  mag=    80.0380
       N       E                     dE             d eps       ncg     rms          rms(c)
DAV:   1    -0.671845013001E+03   -0.85212E-04   -0.67160E-03 26208   0.106E-01    0.422E-02
RMM:   2    -0.671845040552E+03   -0.27551E-04   -0.21054E-04 15483   0.216E-02    0.313E-02
RMM:   3    -0.671845052724E+03   -0.12172E-04   -0.29988E-05 14410   0.103E-02    0.314E-02
RMM:   4    -0.671845052214E+03    0.51036E-06   -0.88644E-06 13447   0.603E-03    0.163E-02
RMM:   5    -0.671845058950E+03   -0.67363E-05   -0.29859E-06 11511   0.329E-03    0.143E-02
RMM:   6    -0.671845063549E+03   -0.45989E-05   -0.14235E-06  9562   0.274E-03    0.116E-02
RMM:   7    -0.671845069477E+03   -0.59283E-05   -0.32650E-07  6495   0.237E-03    0.686E-03
RMM:   8    -0.671845072935E+03   -0.34580E-05   -0.65960E-08  5197   0.221E-03
  86 F= -.67184507E+03 E0= -.67143056E+03  d E =-.141976E-03  mag=    80.0385
       N       E                     dE             d eps       ncg     rms          rms(c)
DAV:   1    -0.671845077810E+03   -0.83325E-05   -0.55463E-04 26864   0.307E-02    0.125E-02
RMM:   2    -0.671845085558E+03   -0.77477E-05   -0.20016E-05 14267   0.675E-03    0.113E-02
RMM:   3    -0.671845089245E+03   -0.36876E-05   -0.26771E-06 11876   0.341E-03    0.960E-03
RMM:   4    -0.671845092037E+03   -0.27916E-05   -0.18243E-07  5923   0.220E-03    0.432E-03
RMM:   5    -0.671845097172E+03   -0.51353E-05   -0.80331E-09  4260   0.186E-03    0.497E-03
RMM:   6    -0.671845102365E+03   -0.51926E-05   -0.56774E-09  4424   0.183E-03    0.399E-03
RMM:   7    -0.671845109267E+03   -0.69025E-05   -0.44934E-09  4466   0.194E-03    0.226E-03
RMM:   8    -0.671845114063E+03   -0.47958E-05   -0.29826E-09  4377   0.196E-03
  87 F= -.67184511E+03 E0= -.67143060E+03  d E =-.183104E-03  mag=    80.0390
       N       E                     dE             d eps       ncg     rms          rms(c)
DAV:   1    -0.671845180646E+03   -0.71379E-04   -0.67864E-03 25664   0.106E-01    0.426E-02
RMM:   2    -0.671845209481E+03   -0.28835E-04   -0.22287E-04 15465   0.217E-02    0.333E-02
RMM:   3    -0.671845221547E+03   -0.12066E-04   -0.31801E-05 14421   0.106E-02    0.331E-02
RMM:   4    -0.671845221530E+03    0.17229E-07   -0.95463E-06 13572   0.621E-03    0.172E-02
RMM:   5    -0.671845230168E+03   -0.86380E-05   -0.31184E-06 11615   0.334E-03    0.144E-02
RMM:   6    -0.671845236672E+03   -0.65034E-05   -0.16174E-06  9829   0.281E-03    0.125E-02
RMM:   7    -0.671845244337E+03   -0.76653E-05   -0.38327E-07  6689   0.240E-03    0.732E-03
RMM:   8    -0.671845248647E+03   -0.43097E-05   -0.76111E-08  5188   0.220E-03
  88 F= -.67184525E+03 E0= -.67143075E+03  d E =-.134584E-03  mag=    80.0395
