       N       E                     dE             d eps       ncg     rms          rms(c)
DAV:   1     0.154636048510E+04    0.15464E+04   -0.67840E+04157696   0.139E+03
DAV:   2     0.250561019572E+02   -0.15213E+04   -0.13670E+04167488   0.381E+02
DAV:   3    -0.163870573606E+03   -0.18893E+03   -0.18417E+03179104   0.149E+02
DAV:   4    -0.173181727480E+03   -0.93112E+01   -0.92443E+01235952   0.303E+01
DAV:   5    -0.173421053283E+03   -0.23933E+00   -0.23908E+00225280   0.422E+00    0.747E+01
DAV:   6    -0.160607122591E+03    0.12814E+02   -0.23983E+02227664   0.136E+02    0.128E+02
DAV:   7    -0.113990293872E+03    0.46617E+02   -0.11378E+02207760   0.988E+01    0.262E+01
DAV:   8    -0.118234135685E+03   -0.42438E+01   -0.20623E+01213536   0.194E+01    0.195E+01
DAV:   9    -0.118666846632E+03   -0.43271E+00   -0.23091E+00227008   0.105E+01    0.113E+01
DAV:  10    -0.118930081114E+03   -0.26323E+00   -0.91661E-01217008   0.115E+01    0.815E+00
DAV:  11    -0.118916997757E+03    0.13083E-01   -0.61276E-01199584   0.110E+01    0.469E+00
DAV:  12    -0.118912869791E+03    0.41280E-02   -0.19811E-01212096   0.557E+00    0.144E+00
DAV:  13    -0.118924081275E+03   -0.11211E-01   -0.42503E-02209824   0.108E+00    0.569E-01
DAV:  14    -0.118926515652E+03   -0.24344E-02   -0.82099E-03235984   0.650E-01    0.387E-01
DAV:  15    -0.118927435045E+03   -0.91939E-03   -0.42372E-03235440   0.604E-01    0.371E-01
DAV:  16    -0.118927413677E+03    0.21368E-04   -0.28975E-03216288   0.511E-01    0.160E-01
DAV:  17    -0.118927480808E+03   -0.67132E-04   -0.49889E-04166848   0.202E-01
   1 F= -.11892748E+03 E0= -.11886865E+03  d E =-.118927E+03  mag=    13.3210
       N       E                     dE             d eps       ncg     rms          rms(c)
DAV:   1    -0.118926901272E+03    0.51240E-03   -0.46426E+00158672   0.630E+00    0.687E-01
DAV:   2    -0.118939505424E+03   -0.12604E-01   -0.12591E-01186624   0.125E+00    0.437E-01
DAV:   3    -0.118939304719E+03    0.20070E-03   -0.31710E-03216800   0.469E-01    0.402E-01
DAV:   4    -0.118939051832E+03    0.25289E-03   -0.92230E-04222112   0.368E-01    0.220E-01
DAV:   5    -0.118939028990E+03    0.22842E-04   -0.95754E-04235648   0.347E-01
   2 F= -.11893903E+03 E0= -.11887857E+03  d E =-.115482E-01  mag=    13.3391
       N       E                     dE             d eps       ncg     rms          rms(c)
DAV:   1    -0.118932138081E+03    0.69138E-02   -0.27992E+00158624   0.490E+00    0.540E-01
DAV:   2    -0.118939909364E+03   -0.77713E-02   -0.77022E-02189392   0.114E+00    0.447E-01
DAV:   3    -0.118939870088E+03    0.39275E-04   -0.41084E-03208384   0.691E-01    0.376E-01
DAV:   4    -0.118939543851E+03    0.32624E-03   -0.14125E-03208176   0.417E-01    0.195E-01
DAV:   5    -0.118939562399E+03   -0.18547E-04   -0.10966E-03207008   0.308E-01    0.184E-01
DAV:   6    -0.118939476350E+03    0.86049E-04   -0.58342E-04163360   0.235E-01
   3 F= -.11893948E+03 E0= -.11887763E+03  d E =-.119955E-01  mag=    13.3505
