 ----------------------------------------------------
    OOO  PPPP  EEEEE N   N M   M PPPP
   O   O P   P E     NN  N MM MM P   P
   O   O PPPP  EEEEE N N N M M M PPPP   -- VERSION
   O   O P     E     N  NN M   M P
    OOO  P     EEEEE N   N M   M P
 ----------------------------------------------------
 running   16 mpi-ranks, with    4 threads/rank
 distrk:  each k-point on   16 cores,    1 groups
 distr:  one band on    1 cores,   16 groups
 vasp.6.2.1 16May21 (build Jul 28 2021 23:24:15) complex                        
  
 POSCAR found type information on POSCAR H IrO 
 POSCAR found :  3 types and     106 ions
 scaLAPACK will be used
 -----------------------------------------------------------------------------
|                                                                             |
|           W    W    AA    RRRRR   N    N  II  N    N   GGGG   !!!           |
|           W    W   A  A   R    R  NN   N  II  NN   N  G    G  !!!           |
|           W    W  A    A  R    R  N N  N  II  N N  N  G       !!!           |
|           W WW W  AAAAAA  RRRRR   N  N N  II  N  N N  G  GGG   !            |
|           WW  WW  A    A  R   R   N   NN  II  N   NN  G    G                |
|           W    W  A    A  R    R  N    N  II  N    N   GGGG   !!!           |
|                                                                             |
|     The real-space projection scheme for the treatment of the non-local     |
|     pseudopotentials has been switched on but on file POTCAR I have not     |
|     found any entries, signalling me that you have never performed a        |
|     real-space optimization of all non-local projectors! BE WARNED that     |
|     a calculation using the real-space projection scheme together with      |
|     non-local projectors which were not real-space optimized (according     |
|     to the plane-wave cutoff used in this calculation) might give more      |
|     or less inaccurate results. I hope you know what you are doing.         |
|                                                                             |
 -----------------------------------------------------------------------------

 LDA part: xc-table for Pade appr. of Perdew
 POSCAR, INCAR and KPOINTS ok, starting setup
 FFT: planning ...
 WAVECAR not read
 WARNING: random wavefunctions but no delay for mixing, default for NELMDL
 entering main loop
       N       E                     dE             d eps       ncg     rms          rms(c)
DAV:   1     0.783943817214E+04    0.78394E+04   -0.31223E+05 13664   0.127E+03
DAV:   2     0.604960507520E+03   -0.72345E+04   -0.65439E+04 14544   0.374E+02
DAV:   3    -0.790409248302E+03   -0.13954E+04   -0.13370E+04 16992   0.165E+02
DAV:   4    -0.866625638251E+03   -0.76216E+02   -0.74246E+02 19088   0.429E+01
DAV:   5    -0.868137551466E+03   -0.15119E+01   -0.14906E+01 17280   0.562E+00    0.197E+02
RMM:   6    -0.768106485580E+03    0.10003E+03   -0.70820E+02 13480   0.426E+01    0.206E+02
RMM:   7    -0.105739796350E+04   -0.28929E+03   -0.25754E+02 14083   0.261E+01    0.360E+02
RMM:   8    -0.937347253182E+03    0.12005E+03   -0.76806E+01 16188   0.980E+00    0.326E+02
RMM:   9    -0.123274203179E+04   -0.29539E+03   -0.32001E+02 18509   0.235E+01    0.354E+02
RMM:  10    -0.854468202350E+03    0.37827E+03   -0.12150E+02 15854   0.156E+01    0.159E+02
RMM:  11    -0.717491345932E+03    0.13698E+03   -0.54830E+01 13736   0.127E+01    0.896E+01
RMM:  12    -0.743670962108E+03   -0.26180E+02   -0.57005E+01 14663   0.115E+01    0.120E+02
RMM:  13    -0.713786581812E+03    0.29884E+02   -0.12994E+01 14327   0.597E+00    0.108E+02
RMM:  14    -0.653259294384E+03    0.60527E+02   -0.10005E+01 13445   0.448E+00    0.717E+01
RMM:  15    -0.643050416139E+03    0.10209E+02   -0.43890E+00 14091   0.298E+00    0.566E+01
RMM:  16    -0.646844590926E+03   -0.37942E+01   -0.27679E+00 13862   0.247E+00    0.537E+01
RMM:  17    -0.651260773188E+03   -0.44162E+01   -0.48940E+00 15346   0.310E+00    0.417E+01
RMM:  18    -0.657999725368E+03   -0.67390E+01   -0.49065E+00 15774   0.315E+00    0.339E+01
RMM:  19    -0.665139812718E+03   -0.71401E+01   -0.46135E+00 15712   0.305E+00    0.288E+01
RMM:  20    -0.674685778724E+03   -0.95460E+01   -0.51367E+00 15906   0.317E+00    0.229E+01
RMM:  21    -0.680581506631E+03   -0.58957E+01   -0.49412E+00 15970   0.308E+00    0.159E+01
RMM:  22    -0.684425375567E+03   -0.38439E+01   -0.26107E+00 14291   0.230E+00    0.174E+01
RMM:  23    -0.687049577678E+03   -0.26242E+01   -0.10511E+00 13598   0.159E+00    0.186E+01
RMM:  24    -0.688222473472E+03   -0.11729E+01   -0.60210E-01 13573   0.115E+00    0.195E+01
RMM:  25    -0.689497247114E+03   -0.12748E+01   -0.51989E-01 13977   0.107E+00    0.172E+01
RMM:  26    -0.690786437034E+03   -0.12892E+01   -0.29105E-01 13643   0.790E-01    0.157E+01
RMM:  27    -0.692114985445E+03   -0.13285E+01   -0.26512E-01 14267   0.717E-01    0.160E+01
RMM:  28    -0.693026477491E+03   -0.91149E+00   -0.20108E-01 14222   0.623E-01    0.161E+01
RMM:  29    -0.693397958183E+03   -0.37148E+00   -0.89366E-02 13947   0.431E-01    0.162E+01
RMM:  30    -0.695220447297E+03   -0.18225E+01   -0.62884E-01 18041   0.995E-01    0.149E+01
RMM:  31    -0.697438924135E+03   -0.22185E+01   -0.69940E-01 18656   0.105E+00    0.102E+01
RMM:  32    -0.699404509809E+03   -0.19656E+01   -0.23862E-01 16153   0.654E-01    0.805E+00
RMM:  33    -0.700222622354E+03   -0.81811E+00   -0.66552E-02 13933   0.376E-01    0.874E+00
RMM:  34    -0.700929490807E+03   -0.70687E+00   -0.10597E-01 15629   0.440E-01    0.717E+00
RMM:  35    -0.702306354446E+03   -0.13769E+01   -0.18510E-01 17156   0.547E-01    0.639E+00
RMM:  36    -0.703790416451E+03   -0.14841E+01   -0.30351E-01 18105   0.680E-01    0.512E+00
RMM:  37    -0.704601525259E+03   -0.81111E+00   -0.17130E-01 16843   0.517E-01    0.416E+00
RMM:  38    -0.705178215693E+03   -0.57669E+00   -0.74775E-02 14749   0.355E-01    0.418E+00
RMM:  39    -0.705340041268E+03   -0.16183E+00   -0.13124E-01 16278   0.443E-01    0.434E+00
RMM:  40    -0.705695284311E+03   -0.35524E+00   -0.35342E-02 14252   0.260E-01    0.407E+00
RMM:  41    -0.706066248797E+03   -0.37096E+00   -0.24487E-02 14121   0.209E-01    0.365E+00
RMM:  42    -0.706518248677E+03   -0.45200E+00   -0.43682E-02 15921   0.242E-01    0.331E+00
RMM:  43    -0.707032100394E+03   -0.51385E+00   -0.19304E-02 14344   0.190E-01    0.261E+00
RMM:  44    -0.707742286222E+03   -0.71019E+00   -0.74296E-02 17464   0.327E-01    0.195E+00
RMM:  45    -0.707935555201E+03   -0.19327E+00   -0.34535E-02 15909   0.228E-01    0.178E+00
RMM:  46    -0.708012445749E+03   -0.76891E-01   -0.10198E-02 14238   0.136E-01    0.144E+00
RMM:  47    -0.708038226251E+03   -0.25781E-01   -0.24426E-02 16520   0.184E-01    0.169E+00
RMM:  48    -0.708100004039E+03   -0.61778E-01   -0.96580E-03 14651   0.127E-01    0.174E+00
RMM:  49    -0.708212194402E+03   -0.11219E+00   -0.71611E-03 14634   0.110E-01    0.203E+00
RMM:  50    -0.708302834947E+03   -0.90641E-01   -0.34100E-03 13872   0.850E-02    0.204E+00
RMM:  51    -0.708129534070E+03    0.17330E+00   -0.32389E-02 18608   0.205E-01    0.152E+00
RMM:  52    -0.708137787029E+03   -0.82530E-02   -0.14259E-03 13033   0.648E-02    0.138E+00
RMM:  53    -0.708253421556E+03   -0.11563E+00   -0.46054E-03 15185   0.841E-02    0.110E+00
RMM:  54    -0.708423080298E+03   -0.16966E+00   -0.56973E-03 16267   0.836E-02    0.566E-01
RMM:  55    -0.708530204702E+03   -0.10712E+00   -0.14244E-03 13440   0.500E-02    0.323E-01
RMM:  56    -0.708564382009E+03   -0.34177E-01   -0.10917E-03 12870   0.465E-02    0.343E-01
RMM:  57    -0.708615405716E+03   -0.51024E-01   -0.48526E-04 11150   0.330E-02    0.138E-01
RMM:  58    -0.708662012142E+03   -0.46606E-01   -0.37963E-04 10365   0.247E-02    0.123E-01
RMM:  59    -0.708698939567E+03   -0.36927E-01   -0.17836E-04  8830   0.192E-02    0.125E-01
RMM:  60    -0.708722700387E+03   -0.23761E-01   -0.83147E-05  8233   0.136E-02    0.972E-02
RMM:  61    -0.708747716459E+03   -0.25016E-01   -0.85986E-05  8266   0.124E-02    0.624E-02
RMM:  62    -0.708766081802E+03   -0.18365E-01   -0.49355E-05  7441   0.104E-02    0.488E-02
RMM:  63    -0.708781843972E+03   -0.15762E-01   -0.59138E-05  7834   0.883E-03    0.513E-02
RMM:  64    -0.708787166336E+03   -0.53224E-02   -0.36919E-05  6836   0.761E-03    0.355E-02
RMM:  65    -0.708789496542E+03   -0.23302E-02   -0.26883E-05  6713   0.662E-03    0.235E-02
RMM:  66    -0.708790316417E+03   -0.81987E-03   -0.16183E-05  6317   0.568E-03    0.127E-02
RMM:  67    -0.708791190777E+03   -0.87436E-03   -0.71908E-06  5398   0.440E-03    0.123E-02
RMM:  68    -0.708791275334E+03   -0.84557E-04   -0.41453E-06  4264   0.347E-03
   1 F= -.70879128E+03 E0= -.70816596E+03  d E =-.708791E+03  mag=     8.5195
 curvature:   0.00 expect dE= 0.000E+00 dE for cont linesearch  0.000E+00
 trial: gam= 0.00000 g(F)=  0.202E+01 g(S)=  0.000E+00 ort = 0.000E+00 (trialstep = 0.100E+01)
 search vector abs. value=  0.202E+01
 bond charge predicted
       N       E                     dE             d eps       ncg     rms          rms(c)
DAV:   1    -0.706725107676E+03    0.20661E+01   -0.47253E+02 13776   0.275E+01    0.743E+00
RMM:   2    -0.708396736066E+03   -0.16716E+01   -0.15324E+01 13440   0.536E+00    0.950E+00
RMM:   3    -0.709503836089E+03   -0.11071E+01   -0.34389E+00 15242   0.243E+00    0.143E+01
RMM:   4    -0.709070472039E+03    0.43336E+00   -0.53544E-01 13453   0.114E+00    0.127E+01
RMM:   5    -0.708388265379E+03    0.68221E+00   -0.19091E-01 13489   0.813E-01    0.594E+00
RMM:   6    -0.708259341325E+03    0.12892E+00   -0.99276E-02 13596   0.530E-01    0.306E+00
RMM:   7    -0.708233062721E+03    0.26279E-01   -0.80564E-02 13827   0.436E-01    0.294E+00
RMM:   8    -0.708174617071E+03    0.58446E-01   -0.37552E-02 13589   0.341E-01    0.157E+00
RMM:   9    -0.708149477801E+03    0.25139E-01   -0.23747E-02 14097   0.226E-01    0.996E-01
RMM:  10    -0.708142813774E+03    0.66640E-02   -0.58401E-03 13342   0.134E-01    0.621E-01
RMM:  11    -0.708143512646E+03   -0.69887E-03   -0.25963E-03 13569   0.759E-02    0.361E-01
RMM:  12    -0.708144915284E+03   -0.14026E-02   -0.12571E-03 12775   0.509E-02    0.246E-01
RMM:  13    -0.708146593416E+03   -0.16781E-02   -0.72944E-04 12369   0.408E-02    0.231E-01
RMM:  14    -0.708148623765E+03   -0.20303E-02   -0.41168E-04 10714   0.321E-02    0.181E-01
RMM:  15    -0.708150921890E+03   -0.22981E-02   -0.23852E-04  9200   0.238E-02    0.160E-01
RMM:  16    -0.708155725393E+03   -0.48035E-02   -0.14444E-04  8515   0.187E-02    0.133E-01
RMM:  17    -0.708162455565E+03   -0.67302E-02   -0.15302E-04  8575   0.160E-02    0.104E-01
RMM:  18    -0.708176085605E+03   -0.13630E-01   -0.46473E-04  9966   0.213E-02    0.761E-02
RMM:  19    -0.708184734044E+03   -0.86484E-02   -0.20276E-04  8837   0.156E-02    0.723E-02
RMM:  20    -0.708194776253E+03   -0.10042E-01   -0.23493E-04  8918   0.152E-02    0.736E-02
RMM:  21    -0.708208588186E+03   -0.13812E-01   -0.35809E-04  9575   0.178E-02    0.733E-02
RMM:  22    -0.708216976650E+03   -0.83885E-02   -0.16629E-04  8107   0.131E-02    0.602E-02
RMM:  23    -0.708222937320E+03   -0.59607E-02   -0.86466E-05  7816   0.109E-02    0.522E-02
RMM:  24    -0.708228541693E+03   -0.56044E-02   -0.66533E-05  7349   0.921E-03    0.403E-02
RMM:  25    -0.708233170708E+03   -0.46290E-02   -0.51729E-05  7153   0.795E-03    0.252E-02
RMM:  26    -0.708235935381E+03   -0.27647E-02   -0.30965E-05  6712   0.701E-03    0.186E-02
RMM:  27    -0.708237894915E+03   -0.19595E-02   -0.22325E-05  5956   0.571E-03    0.186E-02
RMM:  28    -0.708239132240E+03   -0.12373E-02   -0.13343E-05  5724   0.508E-03    0.180E-02
RMM:  29    -0.708239988880E+03   -0.85664E-03   -0.72074E-06  4842   0.418E-03    0.131E-02
RMM:  30    -0.708240528373E+03   -0.53949E-03   -0.38320E-06  4331   0.365E-03    0.114E-02
RMM:  31    -0.708240950944E+03   -0.42257E-03   -0.22964E-06  3805   0.324E-03    0.822E-03
RMM:  32    -0.708241361369E+03   -0.41043E-03   -0.16600E-06  3498   0.304E-03    0.814E-03
RMM:  33    -0.708241945345E+03   -0.58398E-03   -0.40415E-06  4337   0.328E-03    0.813E-03
RMM:  34    -0.708242417887E+03   -0.47254E-03   -0.39313E-06  4013   0.319E-03    0.594E-03
RMM:  35    -0.708242790631E+03   -0.37274E-03   -0.44250E-06  4105   0.321E-03    0.570E-03
RMM:  36    -0.708243066530E+03   -0.27590E-03   -0.30995E-06  3697   0.308E-03    0.575E-03
RMM:  37    -0.708243342567E+03   -0.27604E-03   -0.38455E-06  3848   0.314E-03    0.550E-03
RMM:  38    -0.708243501445E+03   -0.15888E-03   -0.29809E-06  3666   0.310E-03    0.377E-03
RMM:  39    -0.708243574848E+03   -0.73404E-04   -0.17042E-06  3130   0.297E-03
   2 F= -.70824357E+03 E0= -.70763107E+03  d E =0.547700E+00  mag=     9.0542
 trial-energy change:    0.547700  1 .order    0.408930   -2.023709    2.841569
 step:   0.3758(harm=  0.4159)  dis= 0.05821  next Energy=  -709.164170 (dE=-0.373E+00)
 bond charge predicted
       N       E                     dE             d eps       ncg     rms          rms(c)
DAV:   1    -0.708545883811E+03   -0.30238E+00   -0.18497E+02 14064   0.164E+01    0.512E+00
RMM:   2    -0.709441383485E+03   -0.89550E+00   -0.51158E+00 13440   0.361E+00    0.115E+01
RMM:   3    -0.709663163822E+03   -0.22178E+00   -0.11027E+00 13929   0.157E+00    0.106E+01
RMM:   4    -0.709179872290E+03    0.48329E+00   -0.26094E-01 14098   0.820E-01    0.597E+00
RMM:   5    -0.709051014762E+03    0.12886E+00   -0.87479E-02 13514   0.515E-01    0.409E+00
RMM:   6    -0.709008852591E+03    0.42162E-01   -0.44643E-02 13613   0.344E-01    0.267E+00
RMM:   7    -0.708982946031E+03    0.25907E-01   -0.33833E-02 13849   0.287E-01    0.129E+00
RMM:   8    -0.708987363977E+03   -0.44179E-02   -0.13689E-02 13481   0.209E-01    0.113E+00
RMM:   9    -0.708991812295E+03   -0.44483E-02   -0.61676E-03 13737   0.128E-01    0.781E-01
RMM:  10    -0.708997734097E+03   -0.59218E-02   -0.24698E-03 13828   0.719E-02    0.558E-01
RMM:  11    -0.709001732401E+03   -0.39983E-02   -0.72949E-04 12068   0.419E-02    0.363E-01
RMM:  12    -0.709011614245E+03   -0.98818E-02   -0.70294E-04 12145   0.368E-02    0.213E-01
RMM:  13    -0.709017150253E+03   -0.55360E-02   -0.39645E-04 10722   0.276E-02    0.112E-01
RMM:  14    -0.709020845608E+03   -0.36954E-02   -0.17554E-04  8632   0.203E-02    0.924E-02
RMM:  15    -0.709023638312E+03   -0.27927E-02   -0.62049E-05  7749   0.141E-02    0.660E-02
RMM:  16    -0.709026879917E+03   -0.32416E-02   -0.36219E-05  7288   0.874E-03    0.503E-02
RMM:  17    -0.709030758475E+03   -0.38786E-02   -0.33816E-05  7324   0.785E-03    0.398E-02
RMM:  18    -0.709035487470E+03   -0.47290E-02   -0.44074E-05  7487   0.789E-03    0.282E-02
RMM:  19    -0.709038790122E+03   -0.33027E-02   -0.29284E-05  6630   0.679E-03    0.259E-02
RMM:  20    -0.709041536782E+03   -0.27467E-02   -0.26437E-05  6391   0.618E-03    0.289E-02
RMM:  21    -0.709044268491E+03   -0.27317E-02   -0.31919E-05  6475   0.622E-03    0.288E-02
RMM:  22    -0.709046880568E+03   -0.26121E-02   -0.47116E-05  7268   0.697E-03    0.271E-02
RMM:  23    -0.709048278267E+03   -0.13977E-02   -0.29991E-05  6105   0.617E-03    0.218E-02
RMM:  24    -0.709049065125E+03   -0.78686E-03   -0.20241E-05  5789   0.565E-03    0.163E-02
RMM:  25    -0.709049736787E+03   -0.67166E-03   -0.17904E-05  5497   0.503E-03    0.114E-02
RMM:  26    -0.709050117962E+03   -0.38118E-03   -0.11083E-05  5197   0.472E-03    0.925E-03
RMM:  27    -0.709050406317E+03   -0.28835E-03   -0.73545E-06  4929   0.411E-03    0.644E-03
RMM:  28    -0.709050595967E+03   -0.18965E-03   -0.33740E-06  4051   0.361E-03    0.582E-03
RMM:  29    -0.709050711283E+03   -0.11532E-03   -0.11665E-06  2997   0.304E-03    0.463E-03
RMM:  30    -0.709050855567E+03   -0.14428E-03   -0.37267E-07  2418   0.287E-03    0.383E-03
RMM:  31    -0.709051067002E+03   -0.21144E-03   -0.41737E-07  2434   0.288E-03    0.359E-03
RMM:  32    -0.709051247995E+03   -0.18099E-03   -0.87080E-07  2764   0.293E-03    0.336E-03
RMM:  33    -0.709051364456E+03   -0.11646E-03   -0.90289E-07  2641   0.287E-03    0.289E-03
RMM:  34    -0.709051459137E+03   -0.94681E-04   -0.13636E-06  2856   0.290E-03
   3 F= -.70905146E+03 E0= -.70843384E+03  d E =-.260184E+00  mag=     8.7892
 curvature:  -0.21 expect dE=-0.156E+00 dE for cont linesearch -0.234E-03
 trial: gam= 0.34866 g(F)=  0.753E+00 g(S)=  0.000E+00 ort = 0.479E-01 (trialstep = 0.875E+00)
 search vector abs. value=  0.103E+01
 bond charge predicted
       N       E                     dE             d eps       ncg     rms          rms(c)
DAV:   1    -0.708385610521E+03    0.66575E+00   -0.18701E+02 13568   0.208E+01    0.433E+00
RMM:   2    -0.708804706452E+03   -0.41910E+00   -0.41037E+00 13440   0.364E+00    0.742E+00
RMM:   3    -0.708846777558E+03   -0.42071E-01   -0.76775E-01 14694   0.147E+00    0.371E+00
RMM:   4    -0.709635803177E+03   -0.78903E+00   -0.20848E-01 13596   0.784E-01    0.132E+01
RMM:   5    -0.708867816500E+03    0.76799E+00   -0.93621E-02 13492   0.588E-01    0.534E+00
RMM:   6    -0.708790681856E+03    0.77135E-01   -0.54541E-02 13535   0.364E-01    0.240E+00
RMM:   7    -0.708780715204E+03    0.99667E-02   -0.24582E-02 13500   0.269E-01    0.164E+00
RMM:   8    -0.708783314668E+03   -0.25995E-02   -0.13298E-02 13829   0.194E-01    0.155E+00
RMM:   9    -0.708780226946E+03    0.30877E-02   -0.48312E-03 13679   0.118E-01    0.104E+00
RMM:  10    -0.708780046073E+03    0.18087E-03   -0.21978E-03 13226   0.757E-02    0.692E-01
RMM:  11    -0.708781289121E+03   -0.12430E-02   -0.93798E-04 12701   0.423E-02    0.530E-01
RMM:  12    -0.708782915299E+03   -0.16262E-02   -0.41268E-04 10922   0.312E-02    0.503E-01
RMM:  13    -0.708785937083E+03   -0.30218E-02   -0.10828E-03 12663   0.425E-02    0.308E-01
RMM:  14    -0.708787279222E+03   -0.13421E-02   -0.35849E-04 10607   0.290E-02    0.166E-01
RMM:  15    -0.708787995746E+03   -0.71652E-03   -0.10953E-04  8114   0.189E-02    0.112E-01
RMM:  16    -0.708788781984E+03   -0.78624E-03   -0.47171E-05  7787   0.130E-02    0.866E-02
RMM:  17    -0.708789948058E+03   -0.11661E-02   -0.52474E-05  7806   0.973E-03    0.500E-02
RMM:  18    -0.708790572941E+03   -0.62488E-03   -0.24414E-05  7400   0.827E-03    0.276E-02
RMM:  19    -0.708791053194E+03   -0.48025E-03   -0.14037E-05  6588   0.595E-03    0.149E-02
RMM:  20    -0.708791285220E+03   -0.23203E-03   -0.53177E-06  5294   0.421E-03    0.990E-03
RMM:  21    -0.708791517752E+03   -0.23253E-03   -0.24330E-06  4058   0.323E-03    0.802E-03
RMM:  22    -0.708791786029E+03   -0.26828E-03   -0.17201E-06  3801   0.315E-03    0.658E-03
RMM:  23    -0.708792079609E+03   -0.29358E-03   -0.19233E-06  3751   0.314E-03    0.518E-03
RMM:  24    -0.708792279483E+03   -0.19987E-03   -0.12245E-06  3169   0.301E-03    0.491E-03
RMM:  25    -0.708792501275E+03   -0.22179E-03   -0.14710E-06  3219   0.299E-03    0.458E-03
RMM:  26    -0.708792827611E+03   -0.32634E-03   -0.23333E-06  3493   0.309E-03    0.479E-03
RMM:  27    -0.708793099717E+03   -0.27211E-03   -0.23519E-06  3485   0.311E-03    0.430E-03
RMM:  28    -0.708793342846E+03   -0.24313E-03   -0.21029E-06  3382   0.310E-03    0.357E-03
RMM:  29    -0.708793537618E+03   -0.19477E-03   -0.25950E-06  3572   0.313E-03    0.339E-03
RMM:  30    -0.708793635500E+03   -0.97882E-04   -0.14930E-06  3081   0.305E-03
   4 F= -.70879364E+03 E0= -.70817926E+03  d E =0.257824E+00  mag=     8.6913
 trial-energy change:    0.257824  1 .order   -0.063657   -0.673997    0.546682
 step:   0.4832(harm=  0.4832)  dis= 0.04267  next Energy=  -709.237533 (dE=-0.186E+00)
 bond charge predicted
       N       E                     dE             d eps       ncg     rms          rms(c)
DAV:   1    -0.708871203912E+03   -0.77666E-01   -0.37518E+01 13840   0.936E+00    0.197E+00
RMM:   2    -0.708951287061E+03   -0.80083E-01   -0.75382E-01 13440   0.160E+00    0.357E+00
RMM:   3    -0.708960261779E+03   -0.89747E-02   -0.13512E-01 14322   0.650E-01    0.190E+00
RMM:   4    -0.709098165839E+03   -0.13790E+00   -0.41045E-02 13623   0.340E-01    0.570E+00
RMM:   5    -0.708966375658E+03    0.13179E+00   -0.16897E-02 13483   0.247E-01    0.260E+00
RMM:   6    -0.708953023622E+03    0.13352E-01   -0.10467E-02 13561   0.165E-01    0.153E+00
RMM:   7    -0.708944573475E+03    0.84501E-02   -0.55148E-03 13491   0.132E-01    0.656E-01
RMM:   8    -0.708944334703E+03    0.23877E-03   -0.27457E-03 13359   0.853E-02    0.519E-01
RMM:   9    -0.708944279376E+03    0.55327E-04   -0.91900E-04 12574   0.504E-02
   5 F= -.70894428E+03 E0= -.70832869E+03  d E =0.107180E+00  mag=     8.6953
 curvature:  -0.32 expect dE=-0.121E+01 dE for cont linesearch -0.574E-02
 trial: gam= 5.15365 g(F)=  0.372E+01 g(S)=  0.000E+00 ort =-0.135E+00 (trialstep = 0.277E-01)
 search vector abs. value=  0.298E+02
 bond charge predicted
       N       E                     dE             d eps       ncg     rms          rms(c)
DAV:   1    -0.708985680020E+03   -0.41345E-01   -0.53523E+00 13888   0.351E+00    0.721E-01
RMM:   2    -0.708999453230E+03   -0.13773E-01   -0.10258E-01 13440   0.575E-01    0.145E+00
RMM:   3    -0.709002232170E+03   -0.27789E-02   -0.16248E-02 13551   0.240E-01    0.119E+00
RMM:   4    -0.708999685067E+03    0.25471E-02   -0.55121E-03 14099   0.125E-01    0.997E-01
RMM:   5    -0.708995437372E+03    0.42477E-02   -0.17392E-03 12837   0.751E-02    0.484E-01
RMM:   6    -0.708995172288E+03    0.26508E-03   -0.13971E-03 12808   0.562E-02    0.356E-01
RMM:   7    -0.708994771793E+03    0.40049E-03   -0.74053E-04 12389   0.484E-02    0.188E-01
RMM:   8    -0.708994753803E+03    0.17990E-04   -0.35882E-04 10387   0.320E-02
   6 F= -.70899475E+03 E0= -.70837955E+03  d E =-.504744E-01  mag=     8.7040
 trial-energy change:   -0.050474  1 .order   -0.050343   -0.083698   -0.016988
 step:   0.0347(harm=  0.0347)  dis= 0.01529  next Energy=  -708.996785 (dE=-0.525E-01)
 bond charge predicted
       N       E                     dE             d eps       ncg     rms          rms(c)
DAV:   1    -0.708996890633E+03   -0.21188E-02   -0.34545E-01 13888   0.895E-01    0.194E-01
RMM:   2    -0.708998219707E+03   -0.13291E-02   -0.69673E-03 13427   0.150E-01    0.399E-01
RMM:   3    -0.708998203251E+03    0.16456E-04   -0.12704E-03 13151   0.643E-02    0.367E-01
RMM:   4    -0.708997776769E+03    0.42648E-03   -0.36633E-04  9822   0.324E-02    0.158E-01
RMM:   5    -0.708997900722E+03   -0.12395E-03   -0.13245E-04  8048   0.229E-02    0.177E-01
RMM:   6    -0.708997913017E+03   -0.12296E-04   -0.10782E-04  7950   0.186E-02    0.138E-01
RMM:   7    -0.708997954536E+03   -0.41519E-04   -0.55636E-05  7539   0.156E-02    0.583E-02
RMM:   8    -0.708998008791E+03   -0.54255E-04   -0.31274E-05  7169   0.947E-03
   7 F= -.70899801E+03 E0= -.70838271E+03  d E =-.537294E-01  mag=     8.7109
 curvature:  -0.17 expect dE=-0.409E+00 dE for cont linesearch -0.512E-03
 trial: gam= 0.01977 g(F)=  0.240E+01 g(S)=  0.000E+00 ort = 0.299E+00 (trialstep = 0.291E-01)
 search vector abs. value=  0.242E+01
 bond charge predicted
       N       E                     dE             d eps       ncg     rms          rms(c)
DAV:   1    -0.709058019824E+03   -0.60065E-01   -0.50778E-01 13856   0.116E+00    0.201E-01
RMM:   2    -0.709060349581E+03   -0.23298E-02   -0.11636E-02 13440   0.207E-01    0.692E-01
RMM:   3    -0.709059285868E+03    0.10637E-02   -0.17950E-03 13876   0.812E-02    0.334E-01
RMM:   4    -0.709060962168E+03   -0.16763E-02   -0.48616E-04 12047   0.411E-02    0.631E-01
RMM:   5    -0.709059346732E+03    0.16154E-02   -0.20951E-04  8358   0.290E-02    0.315E-01
RMM:   6    -0.709059168209E+03    0.17852E-03   -0.13344E-04  8080   0.218E-02    0.239E-01
RMM:   7    -0.709059141254E+03    0.26955E-04   -0.81756E-05  7830   0.169E-02    0.156E-01
RMM:   8    -0.709059169659E+03   -0.28405E-04   -0.37517E-05  7428   0.120E-02
   8 F= -.70905917E+03 E0= -.70844370E+03  d E =-.611609E-01  mag=     8.7170
 trial-energy change:   -0.061161  1 .order   -0.060342   -0.069901   -0.050784
 step:   0.0754(harm=  0.1063)  dis= 0.00815  next Energy=  -709.102966 (dE=-0.105E+00)
 bond charge predicted
       N       E                     dE             d eps       ncg     rms          rms(c)
DAV:   1    -0.709108222517E+03   -0.49081E-01   -0.12904E+00 13840   0.185E+00    0.357E-01
RMM:   2    -0.709110842086E+03   -0.26196E-02   -0.29522E-02 13440   0.330E-01    0.601E-01
RMM:   3    -0.709111137676E+03   -0.29559E-03   -0.46562E-03 14231   0.128E-01    0.388E-01
RMM:   4    -0.709119276470E+03   -0.81388E-02   -0.15123E-03 13231   0.677E-02    0.132E+00
RMM:   5    -0.709111386743E+03    0.78897E-02   -0.49302E-04 11843   0.469E-02    0.441E-01
RMM:   6    -0.709111168596E+03    0.21815E-03   -0.34135E-04 10073   0.284E-02    0.374E-01
RMM:   7    -0.709110994066E+03    0.17453E-03   -0.19961E-04  8571   0.256E-02    0.294E-01
RMM:   8    -0.709110986556E+03    0.75096E-05   -0.10447E-04  7995   0.202E-02
   9 F= -.70911099E+03 E0= -.70849525E+03  d E =-.112978E+00  mag=     8.7232
 curvature:  -0.04 expect dE=-0.644E-01 dE for cont linesearch -0.564E-02
 ZBRENT: extrapolating
 opt :   0.0967  next Energy=  -709.116869 (dE=-0.119E+00)
 bond charge predicted
       N       E                     dE             d eps       ncg     rms          rms(c)
DAV:   1    -0.709117926987E+03   -0.69329E-02   -0.27324E-01 13872   0.851E-01    0.272E-01
RMM:   2    -0.709118394628E+03   -0.46764E-03   -0.65552E-03 13440   0.154E-01    0.292E-01
RMM:   3    -0.709118520337E+03   -0.12571E-03   -0.10070E-03 13354   0.610E-02    0.154E-01
RMM:   4    -0.709121812866E+03   -0.32925E-02   -0.52269E-04 12063   0.380E-02    0.812E-01
RMM:   5    -0.709118849418E+03    0.29634E-02   -0.21099E-04  8572   0.292E-02    0.268E-01
RMM:   6    -0.709118719276E+03    0.13014E-03   -0.13865E-04  8160   0.207E-02    0.124E-01
RMM:   7    -0.709118775418E+03   -0.56142E-04   -0.47374E-05  7559   0.135E-02    0.561E-02
RMM:   8    -0.709118822224E+03   -0.46806E-04   -0.15595E-05  6896   0.790E-03
  10 F= -.70911882E+03 E0= -.70850298E+03  d E =-.120813E+00  mag=     8.7298
 curvature:  -0.05 expect dE=-0.765E-01 dE for cont linesearch -0.747E-03
 trial: gam= 0.59137 g(F)=  0.163E+01 g(S)=  0.000E+00 ort = 0.196E+00 (trialstep = 0.381E-01)
 search vector abs. value=  0.271E+01
 bond charge predicted
       N       E                     dE             d eps       ncg     rms          rms(c)
DAV:   1    -0.709176485851E+03   -0.57710E-01   -0.93992E-01 13824   0.152E+00    0.279E-01
RMM:   2    -0.709179781876E+03   -0.32960E-02   -0.21947E-02 13440   0.265E-01    0.682E-01
RMM:   3    -0.709178986048E+03    0.79583E-03   -0.31656E-03 13924   0.104E-01    0.350E-01
RMM:   4    -0.709181776329E+03   -0.27903E-02   -0.86360E-04 12822   0.524E-02    0.756E-01
RMM:   5    -0.709179372091E+03    0.24042E-02   -0.34978E-04 10513   0.363E-02    0.337E-01
RMM:   6    -0.709179320995E+03    0.51095E-04   -0.24199E-04  8951   0.261E-02    0.215E-01
RMM:   7    -0.709179394222E+03   -0.73227E-04   -0.12173E-04  8064   0.213E-02    0.141E-01
RMM:   8    -0.709179464509E+03   -0.70286E-04   -0.55519E-05  7757   0.146E-02
  11 F= -.70917946E+03 E0= -.70856335E+03  d E =-.606423E-01  mag=     8.7306
 trial-energy change:   -0.060642  1 .order   -0.057717   -0.066512   -0.048922
 step:   0.0741(harm=  0.1440)  dis= 0.01002  next Energy=  -709.205067 (dE=-0.862E-01)
 bond charge predicted
       N       E                     dE             d eps       ncg     rms          rms(c)
DAV:   1    -0.709207644316E+03   -0.28250E-01   -0.84048E-01 13872   0.144E+00    0.299E-01
RMM:   2    -0.709209526041E+03   -0.18817E-02   -0.19643E-02 13440   0.251E-01    0.406E-01
RMM:   3    -0.709209815451E+03   -0.28941E-03   -0.28487E-03 13928   0.979E-02    0.237E-01
RMM:   4    -0.709216014940E+03   -0.61995E-02   -0.10789E-03 12910   0.549E-02    0.109E+00
RMM:   5    -0.709210250841E+03    0.57641E-02   -0.39264E-04 11125   0.409E-02    0.354E-01
RMM:   6    -0.709209952296E+03    0.29854E-03   -0.19676E-04  8559   0.241E-02    0.198E-01
RMM:   7    -0.709209997174E+03   -0.44878E-04   -0.11569E-04  8123   0.196E-02    0.105E-01
RMM:   8    -0.709210021133E+03   -0.23959E-04   -0.47278E-05  7819   0.138E-02
  12 F= -.70921002E+03 E0= -.70859385E+03  d E =-.911989E-01  mag=     8.7278
 curvature:  -0.06 expect dE=-0.934E-01 dE for cont linesearch -0.380E-02
 ZBRENT: extrapolating
 opt :   0.0906  next Energy=  -709.213356 (dE=-0.945E-01)
 bond charge predicted
       N       E                     dE             d eps       ncg     rms          rms(c)
DAV:   1    -0.709213048928E+03   -0.30518E-02   -0.17661E-01 14080   0.660E-01    0.159E-01
RMM:   2    -0.709213578117E+03   -0.52919E-03   -0.41595E-03 13415   0.115E-01    0.252E-01
RMM:   3    -0.709213506661E+03    0.71456E-04   -0.61400E-04 11755   0.454E-02    0.129E-01
RMM:   4    -0.709214123068E+03   -0.61641E-03   -0.19380E-04  8171   0.258E-02    0.338E-01
RMM:   5    -0.709213656746E+03    0.46632E-03   -0.13869E-04  7922   0.244E-02    0.196E-01
RMM:   6    -0.709213530212E+03    0.12653E-03   -0.54329E-05  7665   0.155E-02    0.940E-02
RMM:   7    -0.709213527756E+03    0.24555E-05   -0.25410E-05  7223   0.953E-03    0.441E-02
RMM:   8    -0.709213536429E+03   -0.86725E-05   -0.10158E-05  6581   0.675E-03
  13 F= -.70921354E+03 E0= -.70859723E+03  d E =-.947142E-01  mag=     8.7241
 curvature:  -0.06 expect dE=-0.118E+00 dE for cont linesearch -0.255E-04
 trial: gam= 1.39760 g(F)=  0.213E+01 g(S)=  0.000E+00 ort = 0.353E-01 (trialstep = 0.175E-01)
 search vector abs. value=  0.752E+01
 bond charge predicted
       N       E                     dE             d eps       ncg     rms          rms(c)
DAV:   1    -0.709246437191E+03   -0.32909E-01   -0.53761E-01 13744   0.115E+00    0.212E-01
RMM:   2    -0.709247743711E+03   -0.13065E-02   -0.12007E-02 13440   0.197E-01    0.395E-01
RMM:   3    -0.709247774410E+03   -0.30699E-04   -0.17325E-03 13634   0.782E-02    0.221E-01
RMM:   4    -0.709248960105E+03   -0.11857E-02   -0.50737E-04 11916   0.400E-02    0.508E-01
RMM:   5    -0.709247711758E+03    0.12483E-02   -0.19732E-04  8243   0.277E-02    0.232E-01
RMM:   6    -0.709247565570E+03    0.14619E-03   -0.10971E-04  7938   0.202E-02    0.117E-01
RMM:   7    -0.709247544478E+03    0.21091E-04   -0.64594E-05  7761   0.147E-02    0.733E-02
RMM:   8    -0.709247551800E+03   -0.73216E-05   -0.28381E-05  7413   0.113E-02
  14 F= -.70924755E+03 E0= -.70863110E+03  d E =-.340154E-01  mag=     8.7188
 ZBRENT: can't locate minimum, use default step
 trial-energy change:   -0.034015  1 .order   -0.034133   -0.038111   -0.030154
 step:   0.0700(harm=  0.0839)  dis= 0.01701  next Energy=  -709.304809 (dE=-0.913E-01)
 bond charge predicted
       N       E                     dE             d eps       ncg     rms          rms(c)
DAV:   1    -0.709274815013E+03   -0.27271E-01   -0.48354E+00 13872   0.346E+00    0.629E-01
RMM:   2    -0.709285967701E+03   -0.11153E-01   -0.10810E-01 13440   0.591E-01    0.106E+00
RMM:   3    -0.709286881639E+03   -0.91394E-03   -0.15644E-02 14020   0.234E-01    0.594E-01
RMM:   4    -0.709301903100E+03   -0.15021E-01   -0.47833E-03 13854   0.120E-01    0.177E+00
RMM:   5    -0.709286878728E+03    0.15024E-01   -0.17407E-03 12979   0.821E-02    0.685E-01
RMM:   6    -0.709285536784E+03    0.13419E-02   -0.92488E-04 12538   0.511E-02    0.345E-01
RMM:   7    -0.709285579295E+03   -0.42511E-04   -0.61061E-04 11889   0.403E-02    0.239E-01
RMM:   8    -0.709285488427E+03    0.90868E-04   -0.25021E-04  9358   0.295E-02
  15 F= -.70928549E+03 E0= -.70866897E+03  d E =-.719520E-01  mag=     8.7067
 curvature:  -0.14 expect dE=-0.200E+00 dE for cont linesearch -0.199E-03
 trial: gam= 0.46951 g(F)=  0.144E+01 g(S)=  0.000E+00 ort =-0.104E+00 (trialstep = 0.280E-01)
 search vector abs. value=  0.300E+01
 bond charge predicted
       N       E                     dE             d eps       ncg     rms          rms(c)
DAV:   1    -0.709321105703E+03   -0.35526E-01   -0.51795E-01 13888   0.115E+00    0.244E-01
RMM:   2    -0.709322636903E+03   -0.15312E-02   -0.11050E-02 13440   0.197E-01    0.404E-01
RMM:   3    -0.709322943789E+03   -0.30689E-03   -0.17107E-03 13491   0.812E-02    0.381E-01
RMM:   4    -0.709322648851E+03    0.29494E-03   -0.53400E-04 11968   0.415E-02    0.300E-01
RMM:   5    -0.709322236703E+03    0.41215E-03   -0.19640E-04  8376   0.264E-02    0.168E-01
RMM:   6    -0.709322223808E+03    0.12896E-04   -0.15750E-04  8107   0.235E-02    0.179E-01
RMM:   7    -0.709322043045E+03    0.18076E-03   -0.96433E-05  7884   0.203E-02    0.697E-02
RMM:   8    -0.709322047789E+03   -0.47437E-05   -0.33120E-05  7612   0.115E-02
  16 F= -.70932205E+03 E0= -.70870525E+03  d E =-.365594E-01  mag=     8.6935
 ZBRENT: can't locate minimum, use default step
 trial-energy change:   -0.036559  1 .order   -0.036376   -0.039072   -0.033681
 step:   0.1121(harm=  0.2031)  dis= 0.01606  next Energy=  -709.427085 (dE=-0.142E+00)
 bond charge predicted
       N       E                     dE             d eps       ncg     rms          rms(c)
DAV:   1    -0.709358920001E+03   -0.36877E-01   -0.46618E+00 13776   0.345E+00    0.592E-01
RMM:   2    -0.709369053354E+03   -0.10133E-01   -0.96228E-02 13440   0.582E-01    0.106E+00
RMM:   3    -0.709369137852E+03   -0.84498E-04   -0.14123E-02 13852   0.231E-01    0.520E-01
RMM:   4    -0.709382810203E+03   -0.13672E-01   -0.45242E-03 13967   0.117E-01    0.169E+00
RMM:   5    -0.709369235424E+03    0.13575E-01   -0.18855E-03 12984   0.816E-02    0.688E-01
RMM:   6    -0.709367660916E+03    0.15745E-02   -0.84597E-04 12351   0.511E-02    0.382E-01
RMM:   7    -0.709367379500E+03    0.28142E-03   -0.50542E-04 11606   0.381E-02    0.279E-01
RMM:   8    -0.709367122755E+03    0.25675E-03   -0.30797E-04  9946   0.320E-02    0.252E-01
RMM:   9    -0.709366927691E+03    0.19506E-03   -0.11527E-04  8099   0.213E-02    0.163E-01
RMM:  10    -0.709366939805E+03   -0.12114E-04   -0.47865E-05  7711   0.126E-02
  17 F= -.70936694E+03 E0= -.70874995E+03  d E =-.814514E-01  mag=     8.6645
 curvature:  -0.16 expect dE=-0.356E+00 dE for cont linesearch -0.693E-03
 trial: gam= 1.48251 g(F)=  0.223E+01 g(S)=  0.000E+00 ort =-0.114E+00 (trialstep = 0.159E-01)
 search vector abs. value=  0.849E+01
 bond charge predicted
       N       E                     dE             d eps       ncg     rms          rms(c)
DAV:   1    -0.709394932967E+03   -0.28005E-01   -0.45461E-01 13888   0.107E+00    0.223E-01
RMM:   2    -0.709396209947E+03   -0.12770E-02   -0.97450E-03 13440   0.185E-01    0.319E-01
RMM:   3    -0.709396270931E+03   -0.60984E-04   -0.14559E-03 13594   0.720E-02    0.162E-01
RMM:   4    -0.709397115832E+03   -0.84490E-03   -0.43662E-04 11175   0.375E-02    0.448E-01
RMM:   5    -0.709396719306E+03    0.39653E-03   -0.20919E-04  8491   0.268E-02    0.334E-01
RMM:   6    -0.709396353915E+03    0.36539E-03   -0.10737E-04  7927   0.207E-02    0.121E-01
RMM:   7    -0.709396457952E+03   -0.10404E-03   -0.49966E-05  7711   0.133E-02    0.779E-02
RMM:   8    -0.709396623950E+03   -0.16600E-03   -0.32453E-05  7429   0.108E-02    0.677E-02
RMM:   9    -0.709396690803E+03   -0.66853E-04   -0.13045E-05  6741   0.733E-03
  18 F= -.70939669E+03 E0= -.70877974E+03  d E =-.297510E-01  mag=     8.6413
 trial-energy change:   -0.029751  1 .order   -0.028406   -0.032660   -0.024152
 step:   0.0315(harm=  0.0609)  dis= 0.00747  next Energy=  -709.409868 (dE=-0.429E-01)
 bond charge predicted
       N       E                     dE             d eps       ncg     rms          rms(c)
DAV:   1    -0.709414540157E+03   -0.17916E-01   -0.44011E-01 13872   0.105E+00    0.197E-01
RMM:   2    -0.709415943758E+03   -0.14036E-02   -0.92414E-03 13440   0.180E-01    0.391E-01
RMM:   3    -0.709415881120E+03    0.62638E-04   -0.14225E-03 13565   0.713E-02    0.248E-01
RMM:   4    -0.709416214419E+03   -0.33330E-03   -0.37502E-04  9961   0.350E-02    0.312E-01
RMM:   5    -0.709415928856E+03    0.28556E-03   -0.22225E-04  8485   0.278E-02    0.259E-01
RMM:   6    -0.709415833650E+03    0.95206E-04   -0.83065E-05  7819   0.192E-02    0.133E-01
RMM:   7    -0.709415927268E+03   -0.93618E-04   -0.52408E-05  7711   0.129E-02    0.987E-02
RMM:   8    -0.709416042408E+03   -0.11514E-03   -0.35499E-05  7498   0.120E-02    0.670E-02
RMM:   9    -0.709416072546E+03   -0.30138E-04   -0.10480E-05  6644   0.677E-03
  19 F= -.70941607E+03 E0= -.70879929E+03  d E =-.491327E-01  mag=     8.6220
 curvature:  -0.07 expect dE=-0.138E+00 dE for cont linesearch -0.596E-02
 ZBRENT: increasing intervall
 opt :   0.0627  next Energy=  -709.420898 (dE=-0.540E-01)
 bond charge predicted
       N       E                     dE             d eps       ncg     rms          rms(c)
DAV:   1    -0.709418015586E+03   -0.19732E-02   -0.17583E+00 13664   0.211E+00    0.382E-01
RMM:   2    -0.709422310935E+03   -0.42953E-02   -0.36731E-02 13440   0.360E-01    0.711E-01
RMM:   3    -0.709422379342E+03   -0.68407E-04   -0.55623E-03 13979   0.141E-01    0.413E-01
RMM:   4    -0.709426241091E+03   -0.38617E-02   -0.16261E-03 13811   0.708E-02    0.908E-01
RMM:   5    -0.709422489087E+03    0.37520E-02   -0.82896E-04 12459   0.510E-02    0.478E-01
RMM:   6    -0.709421952324E+03    0.53676E-03   -0.28703E-04  9649   0.320E-02    0.259E-01
RMM:   7    -0.709421984287E+03   -0.31962E-04   -0.17629E-04  8369   0.240E-02    0.203E-01
RMM:   8    -0.709422006046E+03   -0.21760E-04   -0.12196E-04  8021   0.215E-02
  20 F= -.70942201E+03 E0= -.70880550E+03  d E =-.550662E-01  mag=     8.6042
 curvature:  -0.06 expect dE=-0.108E+00 dE for cont linesearch -0.470E-03
 trial: gam= 0.32461 g(F)=  0.186E+01 g(S)=  0.000E+00 ort =-0.262E+00 (trialstep = 0.252E-01)
 search vector abs. value=  0.259E+01
 bond charge predicted
       N       E                     dE             d eps       ncg     rms          rms(c)
DAV:   1    -0.709459053288E+03   -0.37069E-01   -0.37289E-01 13872   0.967E-01    0.194E-01
RMM:   2    -0.709460382705E+03   -0.13294E-02   -0.83020E-03 13440   0.162E-01    0.395E-01
RMM:   3    -0.709460442358E+03   -0.59653E-04   -0.11920E-03 13318   0.672E-02    0.244E-01
RMM:   4    -0.709460801325E+03   -0.35897E-03   -0.40387E-04 10461   0.340E-02    0.341E-01
RMM:   5    -0.709460451495E+03    0.34983E-03   -0.16038E-04  8139   0.247E-02    0.183E-01
RMM:   6    -0.709460589275E+03   -0.13778E-03   -0.88846E-05  7893   0.176E-02    0.119E-01
RMM:   7    -0.709460683351E+03   -0.94076E-04   -0.59800E-05  7726   0.150E-02    0.698E-02
RMM:   8    -0.709460823088E+03   -0.13974E-03   -0.28274E-05  7418   0.106E-02    0.710E-02
RMM:   9    -0.709460868519E+03   -0.45431E-04   -0.98587E-06  6581   0.663E-03
  21 F= -.70946087E+03 E0= -.70884468E+03  d E =-.388625E-01  mag=     8.5923
 trial-energy change:   -0.038862  1 .order   -0.037149   -0.044829   -0.029469
 step:   0.0468(harm=  0.0736)  dis= 0.00762  next Energy=  -709.474550 (dE=-0.525E-01)
 bond charge predicted
       N       E                     dE             d eps       ncg     rms          rms(c)
DAV:   1    -0.709478496889E+03   -0.17674E-01   -0.27327E-01 13872   0.827E-01    0.147E-01
RMM:   2    -0.709479450717E+03   -0.95383E-03   -0.60854E-03 13440   0.139E-01    0.311E-01
RMM:   3    -0.709479404990E+03    0.45727E-04   -0.88697E-04 12983   0.558E-02    0.216E-01
RMM:   4    -0.709479403407E+03    0.15829E-05   -0.21424E-04  8377   0.269E-02    0.150E-01
RMM:   5    -0.709479524074E+03   -0.12067E-03   -0.12284E-04  7960   0.218E-02    0.204E-01
RMM:   6    -0.709479559667E+03   -0.35593E-04   -0.56143E-05  7598   0.145E-02    0.929E-02
RMM:   7    -0.709479660942E+03   -0.10128E-03   -0.39387E-05  7339   0.111E-02    0.692E-02
RMM:   8    -0.709479749877E+03   -0.88935E-04   -0.20349E-05  6788   0.928E-03
  22 F= -.70947975E+03 E0= -.70886398E+03  d E =-.577438E-01  mag=     8.5869
 curvature:  -0.04 expect dE=-0.341E-01 dE for cont linesearch -0.392E-02
 ZBRENT: increasing intervall
 opt :   0.0900  next Energy=  -709.474443 (dE=-0.524E-01)
 bond charge predicted
       N       E                     dE             d eps       ncg     rms          rms(c)
DAV:   1    -0.709482977823E+03   -0.33169E-02   -0.10934E+00 13712   0.166E+00    0.286E-01
RMM:   2    -0.709485415387E+03   -0.24376E-02   -0.24255E-02 13440   0.277E-01    0.501E-01
RMM:   3    -0.709485608680E+03   -0.19329E-03   -0.34803E-03 14132   0.110E-01    0.304E-01
RMM:   4    -0.709488025447E+03   -0.24168E-02   -0.98871E-04 13102   0.540E-02    0.679E-01
RMM:   5    -0.709485910791E+03    0.21147E-02   -0.48751E-04 11459   0.386E-02    0.393E-01
RMM:   6    -0.709485613520E+03    0.29727E-03   -0.19244E-04  8574   0.254E-02    0.188E-01
RMM:   7    -0.709485621407E+03   -0.78870E-05   -0.12693E-04  8192   0.196E-02    0.132E-01
RMM:   8    -0.709485631643E+03   -0.10236E-04   -0.65979E-05  7856   0.160E-02
  23 F= -.70948563E+03 E0= -.70887051E+03  d E =-.636256E-01  mag=     8.5876
 curvature:   0.05 expect dE= 0.659E-01 dE for cont linesearch  0.409E-04
 trial: gam= 0.69083 g(F)=  0.131E+01 g(S)=  0.000E+00 ort =-0.459E-01 (trialstep = 0.382E-01)
 search vector abs. value=  0.248E+01
 bond charge predicted
       N       E                     dE             d eps       ncg     rms          rms(c)
DAV:   1    -0.709524966804E+03   -0.39345E-01   -0.80932E-01 13776   0.144E+00    0.263E-01
RMM:   2    -0.709526635435E+03   -0.16686E-02   -0.16606E-02 13440   0.245E-01    0.420E-01
RMM:   3    -0.709526777543E+03   -0.14211E-03   -0.26884E-03 14238   0.966E-02    0.211E-01
RMM:   4    -0.709529243543E+03   -0.24660E-02   -0.75029E-04 12661   0.484E-02    0.693E-01
RMM:   5    -0.709527068277E+03    0.21753E-02   -0.28404E-04  9611   0.325E-02    0.318E-01
RMM:   6    -0.709526820344E+03    0.24793E-03   -0.20317E-04  8590   0.245E-02    0.165E-01
RMM:   7    -0.709526795128E+03    0.25216E-04   -0.10780E-04  7941   0.197E-02    0.102E-01
RMM:   8    -0.709526795150E+03   -0.21639E-07   -0.47432E-05  7747   0.142E-02
  24 F= -.70952680E+03 E0= -.70891221E+03  d E =-.411635E-01  mag=     8.5911
 trial-energy change:   -0.041164  1 .order   -0.040518   -0.048846   -0.032191
 step:   0.0865(harm=  0.1120)  dis= 0.00714  next Energy=  -709.548479 (dE=-0.628E-01)
 bond charge predicted
       N       E                     dE             d eps       ncg     rms          rms(c)
DAV:   1    -0.709544302758E+03   -0.17508E-01   -0.12963E+00 13808   0.183E+00    0.314E-01
RMM:   2    -0.709547036750E+03   -0.27340E-02   -0.26634E-02 13440   0.310E-01    0.576E-01
RMM:   3    -0.709547251775E+03   -0.21502E-03   -0.43858E-03 14422   0.122E-01    0.368E-01
RMM:   4    -0.709552295440E+03   -0.50437E-02   -0.12196E-03 13227   0.618E-02    0.995E-01
RMM:   5    -0.709547399167E+03    0.48963E-02   -0.49473E-04 11889   0.437E-02    0.390E-01
RMM:   6    -0.709547147444E+03    0.25172E-03   -0.25262E-04  9151   0.256E-02    0.267E-01
RMM:   7    -0.709547141899E+03    0.55446E-05   -0.15299E-04  8334   0.222E-02    0.198E-01
RMM:   8    -0.709547161485E+03   -0.19586E-04   -0.82464E-05  7890   0.172E-02
  25 F= -.70954716E+03 E0= -.70893301E+03  d E =-.615298E-01  mag=     8.5969
 curvature:  -0.10 expect dE=-0.811E-01 dE for cont linesearch -0.445E-06
 trial: gam= 0.51583 g(F)=  0.848E+00 g(S)=  0.000E+00 ort =-0.340E-02 (trialstep = 0.478E-01)
 search vector abs. value=  0.151E+01
 bond charge predicted
       N       E                     dE             d eps       ncg     rms          rms(c)
DAV:   1    -0.709573984655E+03   -0.26843E-01   -0.73653E-01 13904   0.134E+00    0.290E-01
RMM:   2    -0.709575832399E+03   -0.18477E-02   -0.15854E-02 13440   0.235E-01    0.466E-01
RMM:   3    -0.709575803422E+03    0.28977E-04   -0.26618E-03 14203   0.948E-02    0.194E-01
RMM:   4    -0.709577500412E+03   -0.16970E-02   -0.78318E-04 12714   0.486E-02    0.604E-01
RMM:   5    -0.709576439448E+03    0.10610E-02   -0.30270E-04 10021   0.319E-02    0.315E-01
RMM:   6    -0.709576228505E+03    0.21094E-03   -0.25719E-04  9192   0.286E-02    0.216E-01
RMM:   7    -0.709576096235E+03    0.13227E-03   -0.13329E-04  7995   0.231E-02    0.767E-02
RMM:   8    -0.709576128461E+03   -0.32225E-04   -0.51718E-05  7672   0.139E-02
  26 F= -.70957613E+03 E0= -.70896203E+03  d E =-.289670E-01  mag=     8.5976
 trial-energy change:   -0.028967  1 .order   -0.028115   -0.040486   -0.015743
 step:   0.0711(harm=  0.0783)  dis= 0.00587  next Energy=  -709.580058 (dE=-0.329E-01)
 bond charge predicted
       N       E                     dE             d eps       ncg     rms          rms(c)
DAV:   1    -0.709580111993E+03   -0.40158E-02   -0.17412E-01 13920   0.652E-01    0.121E-01
RMM:   2    -0.709580472827E+03   -0.36083E-03   -0.37112E-03 13439   0.114E-01    0.190E-01
RMM:   3    -0.709580511897E+03   -0.39070E-04   -0.63734E-04 12148   0.449E-02    0.116E-01
RMM:   4    -0.709581167875E+03   -0.65598E-03   -0.17425E-04  8129   0.239E-02    0.347E-01
RMM:   5    -0.709580585094E+03    0.58278E-03   -0.10391E-04  7832   0.211E-02    0.167E-01
RMM:   6    -0.709580522225E+03    0.62869E-04   -0.38443E-05  7469   0.120E-02    0.707E-02
RMM:   7    -0.709580507814E+03    0.14411E-04   -0.25667E-05  7139   0.882E-03    0.566E-02
RMM:   8    -0.709580487329E+03    0.20485E-04   -0.11736E-05  6688   0.725E-03
  27 F= -.70958049E+03 E0= -.70896644E+03  d E =-.333258E-01  mag=     8.5958
 curvature:  -0.07 expect dE=-0.610E-01 dE for cont linesearch -0.935E-04
 trial: gam= 0.85894 g(F)=  0.927E+00 g(S)=  0.000E+00 ort = 0.463E-01 (trialstep = 0.373E-01)
 search vector abs. value=  0.212E+01
 bond charge predicted
       N       E                     dE             d eps       ncg     rms          rms(c)
DAV:   1    -0.709607688496E+03   -0.27181E-01   -0.63362E-01 13648   0.123E+00    0.212E-01
RMM:   2    -0.709608830456E+03   -0.11420E-02   -0.12663E-02 13440   0.206E-01    0.396E-01
RMM:   3    -0.709608869860E+03   -0.39404E-04   -0.20718E-03 14119   0.834E-02    0.193E-01
RMM:   4    -0.709610812502E+03   -0.19426E-02   -0.61620E-04 12384   0.420E-02    0.661E-01
RMM:   5    -0.709608850538E+03    0.19620E-02   -0.22666E-04  8616   0.301E-02    0.291E-01
RMM:   6    -0.709608457166E+03    0.39337E-03   -0.15706E-04  8317   0.222E-02    0.114E-01
RMM:   7    -0.709608338875E+03    0.11829E-03   -0.84820E-05  7884   0.171E-02    0.109E-01
RMM:   8    -0.709608229934E+03    0.10894E-03   -0.36165E-05  7539   0.126E-02    0.782E-02
RMM:   9    -0.709608211266E+03    0.18668E-04   -0.14392E-05  6702   0.723E-03
  28 F= -.70960821E+03 E0= -.70899403E+03  d E =-.277239E-01  mag=     8.5874
 trial-energy change:   -0.027724  1 .order   -0.027868   -0.036084   -0.019651
 step:   0.0820(harm=  0.0820)  dis= 0.00793  next Energy=  -709.620105 (dE=-0.396E-01)
 bond charge predicted
       N       E                     dE             d eps       ncg     rms          rms(c)
DAV:   1    -0.709613586567E+03   -0.53566E-02   -0.90720E-01 13840   0.147E+00    0.260E-01
RMM:   2    -0.709615095394E+03   -0.15088E-02   -0.18294E-02 13440   0.246E-01    0.457E-01
RMM:   3    -0.709615160039E+03   -0.64646E-04   -0.29876E-03 14380   0.995E-02    0.227E-01
RMM:   4    -0.709618642548E+03   -0.34825E-02   -0.90352E-04 12860   0.505E-02    0.878E-01
RMM:   5    -0.709615158640E+03    0.34839E-02   -0.34425E-04 10472   0.375E-02    0.354E-01
RMM:   6    -0.709614615894E+03    0.54275E-03   -0.21615E-04  8709   0.256E-02    0.166E-01
RMM:   7    -0.709614438047E+03    0.17785E-03   -0.12306E-04  8021   0.208E-02    0.127E-01
RMM:   8    -0.709614286816E+03    0.15123E-03   -0.54986E-05  7791   0.154E-02    0.101E-01
RMM:   9    -0.709614301335E+03   -0.14519E-04   -0.22544E-05  7081   0.886E-03
  29 F= -.70961430E+03 E0= -.70899998E+03  d E =-.338140E-01  mag=     8.5720
 curvature:  -0.09 expect dE=-0.536E-01 dE for cont linesearch -0.178E-02
 ZBRENT: interpolating
 opt :   0.0694  next Energy=  -709.615582 (dE=-0.351E-01)
 bond charge predicted
       N       E                     dE             d eps       ncg     rms          rms(c)
DAV:   1    -0.709615580089E+03   -0.12933E-02   -0.71136E-02 13984   0.413E-01    0.808E-02
RMM:   2    -0.709616057837E+03   -0.47775E-03   -0.14240E-03 13254   0.692E-02    0.204E-01
RMM:   3    -0.709616095647E+03   -0.37811E-04   -0.23296E-04  8193   0.297E-02    0.147E-01
RMM:   4    -0.709616067808E+03    0.27839E-04   -0.67330E-05  7306   0.177E-02    0.100E-01
RMM:   5    -0.709616163527E+03   -0.95719E-04   -0.25284E-05  7021   0.959E-03    0.766E-02
RMM:   6    -0.709616302217E+03   -0.13869E-03   -0.18345E-05  6590   0.718E-03    0.409E-02
RMM:   7    -0.709616479023E+03   -0.17681E-03   -0.16817E-05  6891   0.721E-03    0.359E-02
RMM:   8    -0.709616581441E+03   -0.10242E-03   -0.77161E-06  6353   0.562E-03    0.139E-02
RMM:   9    -0.709616638294E+03   -0.56853E-04   -0.18232E-06  3660   0.320E-03
  30 F= -.70961664E+03 E0= -.70900234E+03  d E =-.361510E-01  mag=     8.5621
 curvature:  -0.06 expect dE=-0.326E-01 dE for cont linesearch -0.174E-05
 trial: gam= 0.39500 g(F)=  0.505E+00 g(S)=  0.000E+00 ort =-0.755E-02 (trialstep = 0.437E-01)
 search vector abs. value=  0.829E+00
 bond charge predicted
       N       E                     dE             d eps       ncg     rms          rms(c)
DAV:   1    -0.709629878972E+03   -0.13298E-01   -0.35236E-01 13856   0.939E-01    0.167E-01
RMM:   2    -0.709631103068E+03   -0.12241E-02   -0.74037E-03 13440   0.167E-01    0.492E-01
RMM:   3    -0.709630695379E+03    0.40769E-03   -0.12378E-03 13604   0.656E-02    0.246E-01
RMM:   4    -0.709631738918E+03   -0.10435E-02   -0.33203E-04  9732   0.329E-02    0.497E-01
RMM:   5    -0.709630680198E+03    0.10587E-02   -0.15818E-04  8014   0.260E-02    0.232E-01
RMM:   6    -0.709630562331E+03    0.11787E-03   -0.95812E-05  7815   0.172E-02    0.166E-01
RMM:   7    -0.709630508035E+03    0.54296E-04   -0.64723E-05  7589   0.155E-02    0.108E-01
RMM:   8    -0.709630528669E+03   -0.20633E-04   -0.27762E-05  7137   0.107E-02
  31 F= -.70963053E+03 E0= -.70901650E+03  d E =-.138904E-01  mag=     8.5525
 trial-energy change:   -0.013890  1 .order   -0.013343   -0.021959   -0.004728
 step:   0.0535(harm=  0.0557)  dis= 0.00254  next Energy=  -709.631061 (dE=-0.144E-01)
 bond charge predicted
       N       E                     dE             d eps       ncg     rms          rms(c)
DAV:   1    -0.709631040200E+03   -0.53217E-03   -0.17376E-02 14016   0.209E-01    0.866E-02
RMM:   2    -0.709631435209E+03   -0.39501E-03   -0.44829E-04 10144   0.399E-02    0.239E-01
RMM:   3    -0.709631325974E+03    0.10923E-03   -0.12233E-04  7412   0.227E-02    0.216E-01
RMM:   4    -0.709631202502E+03    0.12347E-03   -0.44712E-05  7270   0.140E-02    0.129E-01
RMM:   5    -0.709631189096E+03    0.13407E-04   -0.11496E-05  6775   0.764E-03    0.791E-02
RMM:   6    -0.709631242487E+03   -0.53392E-04   -0.13925E-05  6594   0.657E-03    0.667E-02
RMM:   7    -0.709631260868E+03   -0.18381E-04   -0.85440E-06  6401   0.644E-03    0.197E-02
RMM:   8    -0.709631292572E+03   -0.31704E-04   -0.13718E-06  3340   0.303E-03
  32 F= -.70963129E+03 E0= -.70901723E+03  d E =-.146543E-01  mag=     8.5441
 curvature:  -0.04 expect dE=-0.132E-01 dE for cont linesearch -0.438E-07
 trial: gam= 0.37455 g(F)=  0.298E+00 g(S)=  0.000E+00 ort =-0.905E-03 (trialstep = 0.457E-01)
 search vector abs. value=  0.413E+00
 bond charge predicted
       N       E                     dE             d eps       ncg     rms          rms(c)
DAV:   1    -0.709639644551E+03   -0.83837E-02   -0.20028E-01 13856   0.693E-01    0.130E-01
RMM:   2    -0.709640167433E+03   -0.52288E-03   -0.44316E-03 13440   0.123E-01    0.222E-01
RMM:   3    -0.709640228187E+03   -0.60755E-04   -0.73059E-04 12623   0.486E-02    0.136E-01
RMM:   4    -0.709640686400E+03   -0.45821E-03   -0.18935E-04  8148   0.247E-02    0.310E-01
RMM:   5    -0.709640324668E+03    0.36173E-03   -0.97533E-05  7769   0.209E-02    0.154E-01
RMM:   6    -0.709640341312E+03   -0.16644E-04   -0.54231E-05  7400   0.127E-02    0.616E-02
RMM:   7    -0.709640416827E+03   -0.75515E-04   -0.29764E-05  7257   0.104E-02    0.481E-02
RMM:   8    -0.709640469709E+03   -0.52882E-04   -0.12577E-05  6510   0.737E-03
  33 F= -.70964047E+03 E0= -.70902664E+03  d E =-.917714E-02  mag=     8.5392
 trial-energy change:   -0.009177  1 .order   -0.008776   -0.013589   -0.003963
 step:   0.0599(harm=  0.0645)  dis= 0.00200  next Energy=  -709.641096 (dE=-0.980E-02)
 bond charge predicted
       N       E                     dE             d eps       ncg     rms          rms(c)
DAV:   1    -0.709641221213E+03   -0.80439E-03   -0.19207E-02 14000   0.215E-01    0.478E-02
RMM:   2    -0.709641382021E+03   -0.16081E-03   -0.45151E-04  9426   0.388E-02    0.114E-01
RMM:   3    -0.709641332678E+03    0.49343E-04   -0.69138E-05  7352   0.175E-02    0.421E-02
RMM:   4    -0.709641378528E+03   -0.45850E-04   -0.20885E-05  7140   0.930E-03    0.686E-02
RMM:   5    -0.709641400608E+03   -0.22080E-04   -0.92545E-06  6454   0.650E-03    0.397E-02
RMM:   6    -0.709641462436E+03   -0.61828E-04   -0.54931E-06  5647   0.457E-03    0.347E-02
RMM:   7    -0.709641501238E+03   -0.38802E-04   -0.25257E-06  4994   0.398E-03    0.126E-02
RMM:   8    -0.709641538294E+03   -0.37056E-04   -0.29317E-07  2138   0.260E-03
  34 F= -.70964154E+03 E0= -.70902776E+03  d E =-.102457E-01  mag=     8.5360
 curvature:  -0.04 expect dE=-0.627E-02 dE for cont linesearch -0.509E-04
 trial: gam= 0.43488 g(F)=  0.149E+00 g(S)=  0.000E+00 ort = 0.223E-01 (trialstep = 0.485E-01)
 search vector abs. value=  0.247E+00
 bond charge predicted
       N       E                     dE             d eps       ncg     rms          rms(c)
DAV:   1    -0.709645832417E+03   -0.43312E-02   -0.13545E-01 13872   0.561E-01    0.990E-02
RMM:   2    -0.709646143366E+03   -0.31095E-03   -0.26126E-03 13426   0.920E-02    0.139E-01
RMM:   3    -0.709646389774E+03   -0.24641E-03   -0.43472E-04 10478   0.380E-02    0.216E-01
RMM:   4    -0.709646215601E+03    0.17417E-03   -0.11928E-04  7790   0.218E-02    0.105E-01
RMM:   5    -0.709646207037E+03    0.85643E-05   -0.41068E-05  7366   0.136E-02    0.600E-02
RMM:   6    -0.709646246857E+03   -0.39821E-04   -0.21081E-05  6839   0.820E-03    0.396E-02
RMM:   7    -0.709646281642E+03   -0.34784E-04   -0.13370E-05  6575   0.696E-03    0.305E-02
RMM:   8    -0.709646304166E+03   -0.22524E-04   -0.66871E-06  6148   0.516E-03
  35 F= -.70964630E+03 E0= -.70903263E+03  d E =-.476587E-02  mag=     8.5362
 trial-energy change:   -0.004766  1 .order   -0.004513   -0.007704   -0.001323
 step:   0.0586(harm=  0.0586)  dis= 0.00173  next Energy=  -709.646189 (dE=-0.465E-02)
 bond charge predicted
       N       E                     dE             d eps       ncg     rms          rms(c)
DAV:   1    -0.709646437058E+03   -0.15542E-03   -0.58048E-03 13552   0.116E-01    0.232E-02
RMM:   2    -0.709646479847E+03   -0.42789E-04   -0.12316E-04  7413   0.197E-02    0.521E-02
RMM:   3    -0.709646482555E+03   -0.27078E-05   -0.18999E-05  7173   0.974E-03    0.464E-02
RMM:   4    -0.709646481589E+03    0.96603E-06   -0.52054E-06  6225   0.456E-03    0.230E-02
RMM:   5    -0.709646488840E+03   -0.72511E-05   -0.13357E-06  3681   0.334E-03    0.110E-02
RMM:   6    -0.709646502517E+03   -0.13677E-04   -0.32215E-07  2259   0.274E-03    0.129E-02
RMM:   7    -0.709646510729E+03   -0.82122E-05   -0.32657E-07  2316   0.273E-03    0.117E-02
RMM:   8    -0.709646516135E+03   -0.54060E-05   -0.54440E-08  1596   0.257E-03
  36 F= -.70964652E+03 E0= -.70903288E+03  d E =-.497784E-02  mag=     8.5374
 curvature:  -0.05 expect dE=-0.490E-02 dE for cont linesearch -0.251E-07
 trial: gam= 0.81818 g(F)=  0.108E+00 g(S)=  0.000E+00 ort = 0.369E-03 (trialstep = 0.456E-01)
 search vector abs. value=  0.273E+00
 bond charge predicted
       N       E                     dE             d eps       ncg     rms          rms(c)
DAV:   1    -0.709649333474E+03   -0.28227E-02   -0.12679E-01 13696   0.532E-01    0.103E-01
RMM:   2    -0.709649637081E+03   -0.30361E-03   -0.25251E-03 13436   0.916E-02    0.176E-01
RMM:   3    -0.709649724621E+03   -0.87541E-04   -0.44834E-04 10451   0.375E-02    0.166E-01
RMM:   4    -0.709649697032E+03    0.27590E-04   -0.11826E-04  7789   0.217E-02    0.138E-01
RMM:   5    -0.709649640277E+03    0.56755E-04   -0.49167E-05  7437   0.146E-02    0.926E-02
RMM:   6    -0.709649609286E+03    0.30991E-04   -0.25610E-05  7072   0.951E-03    0.527E-02
RMM:   7    -0.709649592143E+03    0.17142E-04   -0.15561E-05  6627   0.759E-03    0.327E-02
RMM:   8    -0.709649573776E+03    0.18368E-04   -0.86001E-06  6542   0.574E-03
  37 F= -.70964957E+03 E0= -.70903598E+03  d E =-.305764E-02  mag=     8.5402
 trial-energy change:   -0.003058  1 .order   -0.003021   -0.004922   -0.001121
 step:   0.0591(harm=  0.0591)  dis= 0.00183  next Energy=  -709.649703 (dE=-0.319E-02)
 bond charge predicted
       N       E                     dE             d eps       ncg     rms          rms(c)
DAV:   1    -0.709649688097E+03   -0.95953E-04   -0.11009E-02 13920   0.157E-01    0.331E-02
RMM:   2    -0.709649729433E+03   -0.41336E-04   -0.23454E-04  7830   0.275E-02    0.805E-02
RMM:   3    -0.709649713756E+03    0.15678E-04   -0.37317E-05  7194   0.133E-02    0.493E-02
RMM:   4    -0.709649710396E+03    0.33600E-05   -0.10463E-05  6775   0.645E-03    0.365E-02
RMM:   5    -0.709649704104E+03    0.62917E-05   -0.41374E-06  5837   0.456E-03    0.244E-02
RMM:   6    -0.709649694569E+03    0.95352E-05   -0.12323E-06  3064   0.309E-03    0.126E-02
RMM:   7    -0.709649687286E+03    0.72832E-05   -0.43917E-07  2396   0.297E-03    0.705E-03
RMM:   8    -0.709649685114E+03    0.21717E-05   -0.14037E-07  1757   0.286E-03
  38 F= -.70964969E+03 E0= -.70903612E+03  d E =-.316898E-02  mag=     8.5435
 curvature:  -0.07 expect dE=-0.419E-02 dE for cont linesearch -0.110E-05
 trial: gam= 0.28208 g(F)=  0.561E-01 g(S)=  0.000E+00 ort =-0.201E-02 (trialstep = 0.483E-01)
 search vector abs. value=  0.767E-01
 bond charge predicted
       N       E                     dE             d eps       ncg     rms          rms(c)
DAV:   1    -0.709651546813E+03   -0.18595E-02   -0.37156E-02 13760   0.305E-01    0.482E-02
RMM:   2    -0.709651686749E+03   -0.13994E-03   -0.78029E-04 12541   0.535E-02    0.125E-01
RMM:   3    -0.709651648013E+03    0.38737E-04   -0.13399E-04  7412   0.218E-02    0.543E-02
RMM:   4    -0.709651693010E+03   -0.44998E-04   -0.31397E-05  7170   0.132E-02    0.947E-02
RMM:   5    -0.709651664497E+03    0.28513E-04   -0.13043E-05  6873   0.696E-03    0.554E-02
RMM:   6    -0.709651673442E+03   -0.89453E-05   -0.77636E-06  6231   0.517E-03    0.440E-02
RMM:   7    -0.709651682340E+03   -0.88977E-05   -0.45503E-06  5962   0.437E-03    0.391E-02
RMM:   8    -0.709651684574E+03   -0.22337E-05   -0.28201E-06  4855   0.361E-03
  39 F= -.70965168E+03 E0= -.70903813E+03  d E =-.199946E-02  mag=     8.5459
 trial-energy change:   -0.001999  1 .order   -0.001943   -0.002681   -0.001205
 step:   0.0877(harm=  0.0877)  dis= 0.00154  next Energy=  -709.652120 (dE=-0.244E-02)
 bond charge predicted
       N       E                     dE             d eps       ncg     rms          rms(c)
DAV:   1    -0.709652138160E+03   -0.45582E-03   -0.24728E-02 13888   0.249E-01    0.448E-02
RMM:   2    -0.709652209913E+03   -0.71753E-04   -0.53177E-04 10571   0.439E-02    0.844E-02
RMM:   3    -0.709652208678E+03    0.12343E-05   -0.84904E-05  7292   0.190E-02    0.446E-02
RMM:   4    -0.709652246623E+03   -0.37945E-04   -0.22820E-05  7177   0.103E-02    0.911E-02
RMM:   5    -0.709652224757E+03    0.21867E-04   -0.12076E-05  6740   0.700E-03    0.575E-02
RMM:   6    -0.709652225321E+03   -0.56364E-06   -0.56928E-06  6026   0.489E-03    0.386E-02
RMM:   7    -0.709652226877E+03   -0.15563E-05   -0.19988E-06  4242   0.348E-03    0.235E-02
RMM:   8    -0.709652230932E+03   -0.40553E-05   -0.16286E-06  3808   0.325E-03
  40 F= -.70965223E+03 E0= -.70903870E+03  d E =-.254582E-02  mag=     8.5477
 curvature:  -0.06 expect dE=-0.307E-02 dE for cont linesearch -0.916E-07
 trial: gam= 0.84423 g(F)=  0.507E-01 g(S)=  0.000E+00 ort = 0.340E-03 (trialstep = 0.407E-01)
 search vector abs. value=  0.106E+00
 bond charge predicted
       N       E                     dE             d eps       ncg     rms          rms(c)
DAV:   1    -0.709653732029E+03   -0.15052E-02   -0.31860E-02 13984   0.279E-01    0.483E-02
RMM:   2    -0.709653874118E+03   -0.14209E-03   -0.63721E-04 11654   0.483E-02    0.134E-01
RMM:   3    -0.709653798912E+03    0.75205E-04   -0.11127E-04  7382   0.206E-02    0.439E-02
RMM:   4    -0.709653810133E+03   -0.11221E-04   -0.27389E-05  7146   0.121E-02    0.488E-02
RMM:   5    -0.709653813768E+03   -0.36346E-05   -0.11414E-05  6782   0.672E-03    0.515E-02
RMM:   6    -0.709653815527E+03   -0.17595E-05   -0.78638E-06  6295   0.527E-03    0.369E-02
RMM:   7    -0.709653817380E+03   -0.18532E-05   -0.47311E-06  5852   0.444E-03    0.294E-02
RMM:   8    -0.709653816664E+03    0.71579E-06   -0.15725E-06  3892   0.340E-03
  41 F= -.70965382E+03 E0= -.70904031E+03  d E =-.158573E-02  mag=     8.5491
 trial-energy change:   -0.001586  1 .order   -0.001536   -0.002073   -0.000999
 step:   0.0786(harm=  0.0786)  dis= 0.00203  next Energy=  -709.654232 (dE=-0.200E-02)
 bond charge predicted
       N       E                     dE             d eps       ncg     rms          rms(c)
DAV:   1    -0.709654184680E+03   -0.36730E-03   -0.27602E-02 13888   0.260E-01    0.422E-02
RMM:   2    -0.709654245684E+03   -0.61004E-04   -0.55248E-04 10893   0.448E-02    0.733E-02
RMM:   3    -0.709654246897E+03   -0.12125E-05   -0.90680E-05  7303   0.192E-02    0.354E-02
RMM:   4    -0.709654336058E+03   -0.89161E-04   -0.26884E-05  7178   0.110E-02    0.132E-01
RMM:   5    -0.709654251244E+03    0.84814E-04   -0.10992E-05  6724   0.702E-03    0.385E-02
RMM:   6    -0.709654254417E+03   -0.31733E-05   -0.53625E-06  5778   0.436E-03    0.279E-02
RMM:   7    -0.709654258409E+03   -0.39919E-05   -0.25847E-06  4916   0.372E-03    0.225E-02
RMM:   8    -0.709654262689E+03   -0.42803E-05   -0.11306E-06  3230   0.305E-03
  42 F= -.70965426E+03 E0= -.70904077E+03  d E =-.203176E-02  mag=     8.5500
 curvature:  -0.08 expect dE=-0.489E-02 dE for cont linesearch -0.230E-05
 trial: gam= 1.10780 g(F)=  0.599E-01 g(S)=  0.000E+00 ort =-0.173E-02 (trialstep = 0.275E-01)
 search vector abs. value=  0.186E+00
 bond charge predicted
       N       E                     dE             d eps       ncg     rms          rms(c)
DAV:   1    -0.709655361243E+03   -0.11028E-02   -0.21877E-02 13888   0.231E-01    0.433E-02
RMM:   2    -0.709655406738E+03   -0.45495E-04   -0.45320E-04  9821   0.420E-02    0.748E-02
RMM:   3    -0.709655407683E+03   -0.94552E-06   -0.75153E-05  7271   0.181E-02    0.368E-02
RMM:   4    -0.709655500812E+03   -0.93129E-04   -0.24803E-05  7136   0.100E-02    0.138E-01
RMM:   5    -0.709655405220E+03    0.95592E-04   -0.11201E-05  6702   0.722E-03    0.356E-02
RMM:   6    -0.709655405717E+03   -0.49708E-06   -0.59016E-06  5956   0.435E-03    0.304E-02
RMM:   7    -0.709655403234E+03    0.24832E-05   -0.21281E-06  4549   0.372E-03    0.206E-02
RMM:   8    -0.709655404129E+03   -0.89464E-06   -0.76584E-07  2722   0.292E-03
  43 F= -.70965540E+03 E0= -.70904195E+03  d E =-.114144E-02  mag=     8.5509
 trial-energy change:   -0.001141  1 .order   -0.001157   -0.001594   -0.000721
 step:   0.0501(harm=  0.0501)  dis= 0.00150  next Energy=  -709.655717 (dE=-0.145E-02)
 bond charge predicted
       N       E                     dE             d eps       ncg     rms          rms(c)
DAV:   1    -0.709655656187E+03   -0.25295E-03   -0.14866E-02 13872   0.190E-01    0.383E-02
RMM:   2    -0.709655695058E+03   -0.38871E-04   -0.31268E-04  8553   0.347E-02    0.708E-02
RMM:   3    -0.709655688500E+03    0.65581E-05   -0.49246E-05  7197   0.157E-02    0.386E-02
RMM:   4    -0.709655735447E+03   -0.46948E-04   -0.16504E-05  7014   0.794E-03    0.966E-02
RMM:   5    -0.709655689204E+03    0.46243E-04   -0.96584E-06  6574   0.646E-03    0.406E-02
RMM:   6    -0.709655686856E+03    0.23479E-05   -0.40656E-06  5399   0.406E-03    0.354E-02
RMM:   7    -0.709655683967E+03    0.28895E-05   -0.11575E-06  3602   0.326E-03    0.184E-02
RMM:   8    -0.709655684942E+03   -0.97519E-06   -0.43381E-07  2288   0.286E-03
  44 F= -.70965568E+03 E0= -.70904227E+03  d E =-.142225E-02  mag=     8.5519
 curvature:  -0.08 expect dE=-0.286E-02 dE for cont linesearch -0.371E-07
 trial: gam= 0.45705 g(F)=  0.355E-01 g(S)=  0.000E+00 ort =-0.293E-03 (trialstep = 0.320E-01)
 search vector abs. value=  0.741E-01
 bond charge predicted
       N       E                     dE             d eps       ncg     rms          rms(c)
DAV:   1    -0.709656677055E+03   -0.99309E-03   -0.90381E-03 13840   0.146E-01    0.276E-02
RMM:   2    -0.709656698501E+03   -0.21446E-04   -0.19277E-04  7573   0.262E-02    0.635E-02
RMM:   3    -0.709656693343E+03    0.51581E-05   -0.30001E-05  7137   0.130E-02    0.239E-02
RMM:   4    -0.709656706255E+03   -0.12912E-04   -0.86452E-06  6803   0.565E-03    0.585E-02
RMM:   5    -0.709656689705E+03    0.16549E-04   -0.41458E-06  6082   0.447E-03    0.244E-02
RMM:   6    -0.709656686979E+03    0.27264E-05   -0.13440E-06  3491   0.323E-03    0.236E-02
RMM:   7    -0.709656683164E+03    0.38152E-05   -0.43160E-07  2468   0.301E-03    0.976E-03
RMM:   8    -0.709656683628E+03   -0.46390E-06   -0.22395E-07  1836   0.293E-03
  45 F= -.70965668E+03 E0= -.70904334E+03  d E =-.998686E-03  mag=     8.5531
 ZBRENT: can't locate minimum, use default step
 trial-energy change:   -0.000999  1 .order   -0.001000   -0.001133   -0.000868
 step:   0.1280(harm=  0.1367)  dis= 0.00229  next Energy=  -709.658105 (dE=-0.242E-02)
 bond charge predicted
       N       E                     dE             d eps       ncg     rms          rms(c)
DAV:   1    -0.709657792085E+03   -0.11089E-02   -0.81316E-02 13872   0.437E-01    0.730E-02
RMM:   2    -0.709657941617E+03   -0.14953E-03   -0.16413E-03 13439   0.775E-02    0.132E-01
RMM:   3    -0.709657943817E+03   -0.22002E-05   -0.30277E-04  8744   0.315E-02    0.567E-02
RMM:   4    -0.709658123649E+03   -0.17983E-03   -0.76893E-05  7724   0.194E-02    0.200E-01
RMM:   5    -0.709657926057E+03    0.19759E-03   -0.26473E-05  7337   0.106E-02    0.709E-02
RMM:   6    -0.709657911765E+03    0.14293E-04   -0.16202E-05  6738   0.721E-03    0.506E-02
RMM:   7    -0.709657894653E+03    0.17112E-04   -0.96555E-06  6664   0.623E-03    0.378E-02
RMM:   8    -0.709657890845E+03    0.38083E-05   -0.43688E-06  5793   0.430E-03
  46 F= -.70965789E+03 E0= -.70904471E+03  d E =-.220590E-02  mag=     8.5554
 curvature:  -0.14 expect dE=-0.335E-02 dE for cont linesearch -0.451E-05
 trial: gam= 0.52769 g(F)=  0.235E-01 g(S)=  0.000E+00 ort = 0.153E-02 (trialstep = 0.512E-01)
 search vector abs. value=  0.458E-01
 bond charge predicted
       N       E                     dE             d eps       ncg     rms          rms(c)
DAV:   1    -0.709658857427E+03   -0.96277E-03   -0.11565E-02 13808   0.162E-01    0.369E-02
RMM:   2    -0.709658907239E+03   -0.49811E-04   -0.23375E-04  7788   0.294E-02    0.682E-02
RMM:   3    -0.709658917802E+03   -0.10563E-04   -0.39832E-05  7167   0.146E-02    0.518E-02
RMM:   4    -0.709658934255E+03   -0.16454E-04   -0.13799E-05  7029   0.707E-03    0.738E-02
RMM:   5    -0.709658932843E+03    0.14126E-05   -0.58213E-06  6270   0.536E-03    0.341E-02
RMM:   6    -0.709658944257E+03   -0.11414E-04   -0.33231E-06  4710   0.375E-03    0.274E-02
RMM:   7    -0.709658953444E+03   -0.91871E-05   -0.15408E-06  3917   0.355E-03    0.125E-02
RMM:   8    -0.709658959315E+03   -0.58715E-05   -0.12231E-07  1840   0.285E-03
  47 F= -.70965896E+03 E0= -.70904575E+03  d E =-.106847E-02  mag=     8.5566
 trial-energy change:   -0.001068  1 .order   -0.000980   -0.001247   -0.000713
 step:   0.1197(harm=  0.1197)  dis= 0.00104  next Energy=  -709.659348 (dE=-0.146E-02)
 bond charge predicted
       N       E                     dE             d eps       ncg     rms          rms(c)
DAV:   1    -0.709659311247E+03   -0.35780E-03   -0.20640E-02 13664   0.216E-01    0.426E-02
RMM:   2    -0.709659363179E+03   -0.51932E-04   -0.40189E-04  9609   0.389E-02    0.852E-02
RMM:   3    -0.709659366316E+03   -0.31370E-05   -0.69070E-05  7293   0.181E-02    0.387E-02
RMM:   4    -0.709659428983E+03   -0.62666E-04   -0.23622E-05  7190   0.961E-03    0.113E-01
RMM:   5    -0.709659380903E+03    0.48079E-04   -0.11056E-05  6652   0.723E-03    0.425E-02
RMM:   6    -0.709659385862E+03   -0.49587E-05   -0.65460E-06  6527   0.468E-03    0.292E-02
RMM:   7    -0.709659386649E+03   -0.78693E-06   -0.30552E-06  5269   0.404E-03    0.189E-02
RMM:   8    -0.709659388965E+03   -0.23157E-05   -0.27820E-07  2376   0.268E-03
  48 F= -.70965939E+03 E0= -.70904621E+03  d E =-.149812E-02  mag=     8.5569
 curvature:  -0.11 expect dE=-0.365E-02 dE for cont linesearch -0.143E-04
 trial: gam= 1.46392 g(F)=  0.324E-01 g(S)=  0.000E+00 ort =-0.241E-02 (trialstep = 0.241E-01)
 search vector abs. value=  0.123E+00
 bond charge predicted
       N       E                     dE             d eps       ncg     rms          rms(c)
DAV:   1    -0.709659912293E+03   -0.52564E-03   -0.64185E-03 13648   0.117E-01    0.265E-02
RMM:   2    -0.709659933533E+03   -0.21240E-04   -0.12908E-04  7364   0.214E-02    0.629E-02
RMM:   3    -0.709659924410E+03    0.91227E-05   -0.21959E-05  7113   0.110E-02    0.266E-02
RMM:   4    -0.709659930935E+03   -0.65246E-05   -0.61515E-06  6506   0.477E-03    0.385E-02
RMM:   5    -0.709659927771E+03    0.31646E-05   -0.34826E-06  5614   0.402E-03    0.297E-02
RMM:   6    -0.709659925208E+03    0.25624E-05   -0.11606E-06  3574   0.318E-03    0.212E-02
RMM:   7    -0.709659923933E+03    0.12748E-05   -0.26154E-07  2141   0.284E-03    0.753E-03
RMM:   8    -0.709659924581E+03   -0.64786E-06   -0.50267E-08  1485   0.277E-03
  49 F= -.70965992E+03 E0= -.70904672E+03  d E =-.535616E-03  mag=     8.5567
 trial-energy change:   -0.000536  1 .order   -0.000531   -0.000695   -0.000367
 step:   0.0510(harm=  0.0510)  dis= 0.00137  next Energy=  -709.660125 (dE=-0.736E-03)
 bond charge predicted
       N       E                     dE             d eps       ncg     rms          rms(c)
DAV:   1    -0.709660110094E+03   -0.18616E-03   -0.79797E-03 13696   0.131E-01    0.258E-02
RMM:   2    -0.709660130684E+03   -0.20590E-04   -0.15555E-04  7354   0.237E-02    0.600E-02
RMM:   3    -0.709660122251E+03    0.84333E-05   -0.24739E-05  7114   0.115E-02    0.275E-02
RMM:   4    -0.709660128717E+03   -0.64663E-05   -0.73011E-06  6580   0.541E-03    0.455E-02
RMM:   5    -0.709660123473E+03    0.52443E-05   -0.42446E-06  6044   0.446E-03    0.313E-02
RMM:   6    -0.709660118786E+03    0.46867E-05   -0.12076E-06  3545   0.321E-03    0.172E-02
RMM:   7    -0.709660117962E+03    0.82380E-06   -0.39203E-07  2327   0.302E-03    0.655E-03
RMM:   8    -0.709660118507E+03   -0.54509E-06   -0.34133E-07  1991   0.285E-03
  50 F= -.70966012E+03 E0= -.70904691E+03  d E =-.729543E-03  mag=     8.5562
 curvature:  -0.11 expect dE=-0.306E-02 dE for cont linesearch -0.209E-06
 trial: gam= 0.64076 g(F)=  0.281E-01 g(S)=  0.000E+00 ort =-0.486E-03 (trialstep = 0.295E-01)
 search vector abs. value=  0.782E-01
 bond charge predicted
       N       E                     dE             d eps       ncg     rms          rms(c)
DAV:   1    -0.709660802382E+03   -0.68442E-03   -0.60980E-03 13808   0.117E-01    0.229E-02
RMM:   2    -0.709660818919E+03   -0.16537E-04   -0.12416E-04  7227   0.215E-02    0.492E-02
RMM:   3    -0.709660817738E+03    0.11805E-05   -0.18715E-05  7102   0.104E-02    0.170E-02
RMM:   4    -0.709660827597E+03   -0.98585E-05   -0.58725E-06  6611   0.473E-03    0.417E-02
RMM:   5    -0.709660826294E+03    0.13023E-05   -0.22074E-06  4868   0.361E-03    0.330E-02
RMM:   6    -0.709660823799E+03    0.24956E-05   -0.35867E-07  2555   0.281E-03    0.179E-02
RMM:   7    -0.709660825361E+03   -0.15626E-05   -0.11804E-07  1739   0.270E-03    0.143E-02
RMM:   8    -0.709660825180E+03    0.18169E-06   -0.18927E-07  1513   0.282E-03
  51 F= -.70966083E+03 E0= -.70904764E+03  d E =-.706672E-03  mag=     8.5557
 trial-energy change:   -0.000707  1 .order   -0.000695   -0.000818   -0.000572
 step:   0.0978(harm=  0.0978)  dis= 0.00348  next Energy=  -709.661477 (dE=-0.136E-02)
 bond charge predicted
       N       E                     dE             d eps       ncg     rms          rms(c)
DAV:   1    -0.709661366568E+03   -0.54121E-03   -0.32670E-02 13872   0.271E-01    0.514E-02
RMM:   2    -0.709661435361E+03   -0.68793E-04   -0.63761E-04 12807   0.495E-02    0.885E-02
RMM:   3    -0.709661441852E+03   -0.64914E-05   -0.11948E-04  7455   0.202E-02    0.518E-02
RMM:   4    -0.709661512537E+03   -0.70685E-04   -0.33060E-05  7175   0.130E-02    0.123E-01
RMM:   5    -0.709661442854E+03    0.69683E-04   -0.14527E-05  7001   0.746E-03    0.506E-02
RMM:   6    -0.709661444855E+03   -0.20006E-05   -0.74789E-06  6329   0.532E-03    0.359E-02
RMM:   7    -0.709661443685E+03    0.11701E-05   -0.33647E-06  5296   0.409E-03    0.269E-02
RMM:   8    -0.709661443246E+03    0.43865E-06   -0.15810E-06  3911   0.327E-03
  52 F= -.70966144E+03 E0= -.70904828E+03  d E =-.132474E-02  mag=     8.5551
 curvature:  -0.14 expect dE=-0.327E-02 dE for cont linesearch -0.370E-05
 trial: gam= 0.79980 g(F)=  0.237E-01 g(S)=  0.000E+00 ort =-0.145E-02 (trialstep = 0.431E-01)
 search vector abs. value=  0.714E-01
 bond charge predicted
       N       E                     dE             d eps       ncg     rms          rms(c)
DAV:   1    -0.709662195890E+03   -0.75220E-03   -0.11245E-02 13936   0.157E-01    0.315E-02
RMM:   2    -0.709662245100E+03   -0.49210E-04   -0.21972E-04  7828   0.288E-02    0.853E-02
RMM:   3    -0.709662224377E+03    0.20723E-04   -0.37529E-05  7120   0.143E-02    0.448E-02
RMM:   4    -0.709662222036E+03    0.23414E-05   -0.10072E-05  6936   0.665E-03    0.290E-02
RMM:   5    -0.709662222738E+03   -0.70212E-06   -0.42434E-06  6113   0.463E-03    0.238E-02
RMM:   6    -0.709662223172E+03   -0.43438E-06   -0.12351E-06  3347   0.319E-03    0.150E-02
RMM:   7    -0.709662222706E+03    0.46567E-06   -0.67091E-07  2842   0.310E-03    0.714E-03
RMM:   8    -0.709662223098E+03   -0.39132E-06   -0.45007E-07  2096   0.294E-03
  53 F= -.70966222E+03 E0= -.70904910E+03  d E =-.779852E-03  mag=     8.5546
 trial-energy change:   -0.000780  1 .order   -0.000784   -0.000974   -0.000593
 step:   0.1104(harm=  0.1104)  dis= 0.00475  next Energy=  -709.662689 (dE=-0.125E-02)
 bond charge predicted
       N       E                     dE             d eps       ncg     rms          rms(c)
DAV:   1    -0.709662598611E+03   -0.37590E-03   -0.27337E-02 13872   0.245E-01    0.433E-02
RMM:   2    -0.709662653626E+03   -0.55015E-04   -0.51252E-04 11461   0.446E-02    0.755E-02
RMM:   3    -0.709662661755E+03   -0.81289E-05   -0.93546E-05  7356   0.192E-02    0.459E-02
RMM:   4    -0.709662697483E+03   -0.35728E-04   -0.25818E-05  7133   0.113E-02    0.918E-02
RMM:   5    -0.709662660220E+03    0.37262E-04   -0.10313E-05  6834   0.650E-03    0.359E-02
RMM:   6    -0.709662664494E+03   -0.42740E-05   -0.53945E-06  6205   0.449E-03    0.275E-02
RMM:   7    -0.709662664174E+03    0.32036E-06   -0.21859E-06  4531   0.359E-03    0.176E-02
RMM:   8    -0.709662665324E+03   -0.11494E-05   -0.51008E-07  2537   0.287E-03
  54 F= -.70966267E+03 E0= -.70904963E+03  d E =-.122208E-02  mag=     8.5543
 curvature:  -0.17 expect dE=-0.237E-02 dE for cont linesearch -0.365E-07
 trial: gam= 0.34340 g(F)=  0.136E-01 g(S)=  0.000E+00 ort = 0.122E-03 (trialstep = 0.566E-01)
 search vector abs. value=  0.221E-01
 bond charge predicted
       N       E                     dE             d eps       ncg     rms          rms(c)
DAV:   1    -0.709663193330E+03   -0.52916E-03   -0.99055E-03 13920   0.157E-01    0.292E-02
RMM:   2    -0.709663222813E+03   -0.29483E-04   -0.22155E-04  7673   0.282E-02    0.709E-02
RMM:   3    -0.709663217004E+03    0.58092E-05   -0.32384E-05  7095   0.135E-02    0.362E-02
RMM:   4    -0.709663226480E+03   -0.94762E-05   -0.89779E-06  6897   0.604E-03    0.522E-02
RMM:   5    -0.709663218767E+03    0.77129E-05   -0.45719E-06  6065   0.469E-03    0.307E-02
RMM:   6    -0.709663218584E+03    0.18271E-06   -0.11722E-06  3416   0.318E-03    0.172E-02
RMM:   7    -0.709663219406E+03   -0.82190E-06   -0.45379E-07  2463   0.300E-03    0.856E-03
RMM:   8    -0.709663220549E+03   -0.11428E-05   -0.66694E-07  2449   0.300E-03
  55 F= -.70966322E+03 E0= -.70905021E+03  d E =-.555225E-03  mag=     8.5542
 trial-energy change:   -0.000555  1 .order   -0.000562   -0.000771   -0.000354
 step:   0.1046(harm=  0.1046)  dis= 0.00214  next Energy=  -709.663378 (dE=-0.713E-03)
 bond charge predicted
       N       E                     dE             d eps       ncg     rms          rms(c)
DAV:   1    -0.709663318654E+03   -0.99248E-04   -0.70857E-03 13936   0.133E-01    0.254E-02
RMM:   2    -0.709663334871E+03   -0.16218E-04   -0.15910E-04  7369   0.238E-02    0.481E-02
RMM:   3    -0.709663335278E+03   -0.40623E-06   -0.22620E-05  7113   0.112E-02    0.329E-02
RMM:   4    -0.709663337340E+03   -0.20627E-05   -0.58375E-06  6616   0.508E-03    0.339E-02
RMM:   5    -0.709663337062E+03    0.27797E-06   -0.32447E-06  5493   0.390E-03    0.327E-02
RMM:   6    -0.709663334440E+03    0.26226E-05   -0.72841E-07  3080   0.310E-03    0.113E-02
RMM:   7    -0.709663335238E+03   -0.79872E-06   -0.34285E-07  2177   0.291E-03    0.858E-03
RMM:   8    -0.709663334795E+03    0.44303E-06   -0.45540E-07  2244   0.281E-03
  56 F= -.70966333E+03 E0= -.70905038E+03  d E =-.669472E-03  mag=     8.5544
 curvature:  -0.08 expect dE=-0.756E-03 dE for cont linesearch -0.476E-05
 trial: gam= 0.80401 g(F)=  0.892E-02 g(S)=  0.000E+00 ort =-0.111E-02 (trialstep = 0.662E-01)
 search vector abs. value=  0.214E-01
 bond charge predicted
       N       E                     dE             d eps       ncg     rms          rms(c)
DAV:   1    -0.709663620802E+03   -0.28556E-03   -0.99736E-03 13584   0.151E-01    0.296E-02
RMM:   2    -0.709663634980E+03   -0.14177E-04   -0.22695E-04  7668   0.284E-02    0.682E-02
RMM:   3    -0.709663630401E+03    0.45789E-05   -0.34232E-05  7106   0.138E-02    0.275E-02
RMM:   4    -0.709663668165E+03   -0.37764E-04   -0.12790E-05  6992   0.657E-03    0.943E-02
RMM:   5    -0.709663621932E+03    0.46233E-04   -0.62984E-06  6197   0.562E-03    0.273E-02
RMM:   6    -0.709663619962E+03    0.19702E-05   -0.19452E-06  3836   0.336E-03    0.239E-02
RMM:   7    -0.709663617251E+03    0.27107E-05   -0.56273E-07  2741   0.311E-03    0.162E-02
RMM:   8    -0.709663617027E+03    0.22473E-06   -0.89966E-07  2597   0.310E-03
  57 F= -.70966362E+03 E0= -.70905075E+03  d E =-.282231E-03  mag=     8.5551
 trial-energy change:   -0.000282  1 .order   -0.000303   -0.000531   -0.000076
 step:   0.0772(harm=  0.0772)  dis= 0.00149  next Energy=  -709.663644 (dE=-0.310E-03)
 bond charge predicted
       N       E                     dE             d eps       ncg     rms          rms(c)
DAV:   1    -0.709663622328E+03   -0.50770E-05   -0.27569E-04 12432   0.253E-02    0.146E-02
RMM:   2    -0.709663631043E+03   -0.87146E-05   -0.10580E-05  7069   0.619E-03    0.416E-02
RMM:   3    -0.709663628687E+03    0.23559E-05   -0.30955E-06  5598   0.403E-03    0.367E-02
RMM:   4    -0.709663624575E+03    0.41118E-05   -0.45531E-07  2678   0.277E-03    0.205E-02
[...]
DAV:   1    -0.709767274064E+03    0.80326E-03   -0.11339E-01 13680   0.486E-01    0.775E-02
RMM:   2    -0.709767454601E+03   -0.18054E-03   -0.19226E-03 13367   0.867E-02    0.991E-02
RMM:   3    -0.709767471121E+03   -0.16520E-04   -0.38555E-04 10260   0.352E-02    0.481E-02
RMM:   4    -0.709767525695E+03   -0.54574E-04   -0.83521E-05  7762   0.198E-02    0.114E-01
RMM:   5    -0.709767504622E+03    0.21073E-04   -0.29025E-05  7510   0.108E-02    0.952E-02
RMM:   6    -0.709767465272E+03    0.39350E-04   -0.20635E-05  7174   0.814E-03    0.320E-02
RMM:   7    -0.709767465969E+03   -0.69612E-06   -0.12475E-05  6594   0.659E-03    0.234E-02
RMM:   8    -0.709767465107E+03    0.86142E-06   -0.50749E-06  6130   0.480E-03
 180 F= -.70976747E+03 E0= -.70915501E+03  d E =0.212936E-03  mag=     8.5427
 curvature:   2.00 expect dE= 0.653E-01 dE for cont linesearch  0.128E-01
 ZBRENT: bracketing found
 ZBRENT: interpolating
 opt :   0.2253  next Energy=  -709.768087 (dE=-0.409E-03)
 bond charge predicted
       N       E                     dE             d eps       ncg     rms          rms(c)
DAV:   1    -0.709767942107E+03   -0.47614E-03   -0.91976E-02 13808   0.438E-01    0.708E-02
RMM:   2    -0.709768091729E+03   -0.14962E-03   -0.15419E-03 13342   0.780E-02    0.962E-02
RMM:   3    -0.709768128400E+03   -0.36671E-04   -0.30728E-04  9203   0.317E-02    0.932E-02
RMM:   4    -0.709768175732E+03   -0.47331E-04   -0.70724E-05  7602   0.187E-02    0.132E-01
RMM:   5    -0.709768096881E+03    0.78851E-04   -0.28611E-05  7316   0.105E-02    0.568E-02
RMM:   6    -0.709768094236E+03    0.26450E-05   -0.20461E-05  7014   0.837E-03    0.428E-02
RMM:   7    -0.709768089757E+03    0.44786E-05   -0.13976E-05  6571   0.701E-03    0.215E-02
RMM:   8    -0.709768090508E+03   -0.75006E-06   -0.62605E-06  6306   0.511E-03
 181 F= -.70976809E+03 E0= -.70915555E+03  d E =-.412464E-03  mag=     8.5426
 curvature:  -0.00 expect dE=-0.120E-04 dE for cont linesearch -0.104E-07
 trial: gam= 3.45887 g(F)=  0.770E-02 g(S)=  0.000E+00 ort = 0.241E-03 (trialstep = 0.469E-02)
 search vector abs. value=  0.113E+00
 bond charge predicted
       N       E                     dE             d eps       ncg     rms          rms(c)
DAV:   1    -0.709768125914E+03   -0.36156E-04   -0.57972E-04 13104   0.352E-02    0.113E-02
RMM:   2    -0.709768140727E+03   -0.14813E-04   -0.13663E-05  7050   0.758E-03    0.496E-02
RMM:   3    -0.709768128293E+03    0.12434E-04   -0.32397E-06  6088   0.436E-03    0.253E-02
RMM:   4    -0.709768126881E+03    0.14123E-05   -0.52062E-08  1261   0.227E-03    0.869E-03
RMM:   5    -0.709768127203E+03   -0.32268E-06   -0.61149E-09   898   0.225E-03    0.992E-03
RMM:   6    -0.709768127332E+03   -0.12806E-06   -0.41807E-08   945   0.232E-03    0.938E-03
RMM:   7    -0.709768127118E+03    0.21402E-06   -0.23893E-07  1376   0.276E-03    0.389E-03
RMM:   8    -0.709768127213E+03   -0.95584E-07   -0.16364E-08   849   0.270E-03
 182 F= -.70976813E+03 E0= -.70915560E+03  d E =-.367056E-04  mag=     8.5426
 ZBRENT: can't locate minimum, use default step
 trial-energy change:   -0.000037  1 .order   -0.000035   -0.000040   -0.000031
 step:   0.0188(harm=  0.0205)  dis= 0.00054  next Energy=  -709.768178 (dE=-0.875E-04)
 bond charge predicted
       N       E                     dE             d eps       ncg     rms          rms(c)
DAV:   1    -0.709768191410E+03   -0.64293E-04   -0.51268E-03 14000   0.104E-01    0.161E-02
RMM:   2    -0.709768200413E+03   -0.90027E-05   -0.89698E-05  7142   0.184E-02    0.255E-02
RMM:   3    -0.709768201169E+03   -0.75600E-06   -0.13810E-05  6917   0.870E-03    0.173E-02
RMM:   4    -0.709768205438E+03   -0.42692E-05   -0.36544E-06  5684   0.400E-03    0.333E-02
RMM:   5    -0.709768199985E+03    0.54535E-05   -0.84835E-07  3219   0.314E-03    0.143E-02
RMM:   6    -0.709768200079E+03   -0.94566E-07   -0.42717E-07  2223   0.291E-03    0.107E-02
RMM:   7    -0.709768199912E+03    0.16699E-06   -0.53103E-07  2215   0.287E-03    0.909E-03
RMM:   8    -0.709768199596E+03    0.31586E-06   -0.31170E-07  1505   0.270E-03
 183 F= -.70976820E+03 E0= -.70915569E+03  d E =-.109089E-03  mag=     8.5425
 curvature:  -0.13 expect dE=-0.801E-03 dE for cont linesearch -0.161E-04
 ZBRENT: increasing intervall
 opt :   0.0469  next Energy=  -709.768222 (dE=-0.131E-03)
 bond charge predicted
       N       E                     dE             d eps       ncg     rms          rms(c)
DAV:   1    -0.709768082310E+03    0.11760E-03   -0.20508E-02 13840   0.207E-01    0.325E-02
RMM:   2    -0.709768119541E+03   -0.37231E-04   -0.35129E-04  9193   0.365E-02    0.552E-02
RMM:   3    -0.709768128523E+03   -0.89818E-05   -0.60891E-05  7181   0.166E-02    0.503E-02
RMM:   4    -0.709768124531E+03    0.39915E-05   -0.15947E-05  6884   0.874E-03    0.463E-02
RMM:   5    -0.709768119618E+03    0.49131E-05   -0.71364E-06  6440   0.551E-03    0.337E-02
RMM:   6    -0.709768115869E+03    0.37487E-05   -0.41723E-06  5894   0.416E-03    0.158E-02
RMM:   7    -0.709768114666E+03    0.12038E-05   -0.13197E-06  3294   0.309E-03    0.102E-02
RMM:   8    -0.709768113887E+03    0.77845E-06   -0.36061E-07  2297   0.292E-03
 184 F= -.70976811E+03 E0= -.70915565E+03  d E =-.233797E-04  mag=     8.5422
 curvature:  -0.19 expect dE=-0.149E-02 dE for cont linesearch -0.191E-03
 ZBRENT: bracketing found
 ZBRENT: interpolating
 opt :   0.0259  next Energy=  -709.768213 (dE=-0.122E-03)
 bond charge predicted
       N       E                     dE             d eps       ncg     rms          rms(c)
DAV:   1    -0.709768196122E+03   -0.81457E-04   -0.11437E-02 13936   0.155E-01    0.242E-02
RMM:   2    -0.709768219321E+03   -0.23199E-04   -0.19500E-04  7688   0.273E-02    0.482E-02
RMM:   3    -0.709768219273E+03    0.48436E-07   -0.30978E-05  7064   0.128E-02    0.359E-02
RMM:   4    -0.709768217892E+03    0.13808E-05   -0.81323E-06  6599   0.600E-03    0.334E-02
RMM:   5    -0.709768216489E+03    0.14025E-05   -0.37254E-06  5981   0.423E-03    0.240E-02
RMM:   6    -0.709768215364E+03    0.11249E-05   -0.18713E-06  4122   0.342E-03    0.173E-02
RMM:   7    -0.709768215434E+03   -0.69449E-07   -0.24954E-06  4336   0.337E-03    0.628E-03
RMM:   8    -0.709768216062E+03   -0.62854E-06   -0.34748E-07  1777   0.275E-03
 185 F= -.70976822E+03 E0= -.70915572E+03  d E =-.125555E-03  mag=     8.5421
 curvature:  -0.01 expect dE=-0.682E-04 dE for cont linesearch -0.189E-06
 ZBRENT: interpolating
 opt :   0.0294  next Energy=  -709.768219 (dE=-0.128E-03)
 bond charge predicted
       N       E                     dE             d eps       ncg     rms          rms(c)
DAV:   1    -0.709768217167E+03   -0.17331E-05   -0.31533E-04 12896   0.258E-02    0.435E-03
RMM:   2    -0.709768218719E+03   -0.15520E-05   -0.58509E-06  6480   0.504E-03    0.120E-02
RMM:   3    -0.709768218262E+03    0.45746E-06   -0.11476E-07  1333   0.250E-03    0.784E-03
RMM:   4    -0.709768218049E+03    0.21270E-06   -0.28107E-10   766   0.237E-03    0.435E-03
RMM:   5    -0.709768218395E+03   -0.34648E-06   -0.39636E-10   741   0.235E-03    0.543E-03
RMM:   6    -0.709768218463E+03   -0.67863E-07   -0.71152E-09   717   0.240E-03    0.402E-03
RMM:   7    -0.709768218920E+03   -0.45655E-06   -0.84822E-08  1031   0.262E-03    0.140E-03
RMM:   8    -0.709768219001E+03   -0.81214E-07   -0.24401E-08   790   0.259E-03
 186 F= -.70976822E+03 E0= -.70915573E+03  d E =-.128493E-03  mag=     8.5420
 curvature:  -0.17 expect dE=-0.898E-03 dE for cont linesearch -0.923E-06
 trial: gam= 0.07425 g(F)=  0.536E-02 g(S)=  0.000E+00 ort =-0.790E-03 (trialstep = 0.963E-02)
 search vector abs. value=  0.586E-02
 bond charge predicted
       N       E                     dE             d eps       ncg     rms          rms(c)
DAV:   1    -0.709768266912E+03   -0.47992E-04   -0.13158E-04  8880   0.190E-02    0.400E-03
RMM:   2    -0.709768267530E+03   -0.61894E-06   -0.56808E-06  5759   0.513E-03    0.578E-03
RMM:   3    -0.709768267810E+03   -0.28000E-06   -0.49414E-08  1109   0.249E-03    0.697E-03
RMM:   4    -0.709768267665E+03    0.14512E-06   -0.22644E-09   763   0.242E-03    0.541E-03
RMM:   5    -0.709768267686E+03   -0.20329E-07    0.00000E+00   661   0.237E-03    0.352E-03
RMM:   6    -0.709768267685E+03    0.71304E-09    0.00000E+00   652   0.239E-03    0.213E-03
RMM:   7    -0.709768267752E+03   -0.66902E-07    0.00000E+00   636   0.240E-03    0.133E-03
RMM:   8    -0.709768267765E+03   -0.12958E-07   -0.10137E-09   612   0.242E-03
 187 F= -.70976827E+03 E0= -.70915577E+03  d E =-.487639E-04  mag=     8.5419
 ZBRENT: can't locate minimum, use default step
 trial-energy change:   -0.000049  1 .order   -0.000048   -0.000051   -0.000045
 step:   0.0385(harm=  0.0891)  dis= 0.00031  next Energy=  -709.768455 (dE=-0.236E-03)
 bond charge predicted
       N       E                     dE             d eps       ncg     rms          rms(c)
DAV:   1    -0.709768376757E+03   -0.10901E-03   -0.12246E-03 13280   0.569E-02    0.835E-03
RMM:   2    -0.709768378692E+03   -0.19345E-05   -0.25557E-05  7044   0.974E-03    0.154E-02
RMM:   3    -0.709768378873E+03   -0.18100E-06   -0.31924E-06  6227   0.442E-03    0.809E-03
RMM:   4    -0.709768382940E+03   -0.40670E-05   -0.91969E-08  1479   0.221E-03    0.272E-02
RMM:   5    -0.709768378425E+03    0.45152E-05   -0.40553E-09  1266   0.204E-03    0.582E-03
RMM:   6    -0.709768379019E+03   -0.59414E-06   -0.13291E-08   983   0.204E-03    0.607E-03
RMM:   7    -0.709768378742E+03    0.27641E-06   -0.74213E-09   854   0.211E-03    0.452E-03
RMM:   8    -0.709768378683E+03    0.59597E-07   -0.30965E-09   778   0.213E-03
 188 F= -.70976838E+03 E0= -.70915588E+03  d E =-.159682E-03  mag=     8.5418
 curvature:  -0.03 expect dE=-0.739E-04 dE for cont linesearch -0.444E-04
 ZBRENT: increasing intervall
 opt :   0.0963  next Energy=  -709.768450 (dE=-0.231E-03)
 bond charge predicted
       N       E                     dE             d eps       ncg     rms          rms(c)
DAV:   1    -0.709768440625E+03   -0.61883E-04   -0.47693E-03 13424   0.112E-01    0.174E-02
RMM:   2    -0.709768449034E+03   -0.84091E-05   -0.10305E-04  7170   0.195E-02    0.343E-02
RMM:   3    -0.709768449797E+03   -0.76286E-06   -0.13741E-05  7016   0.881E-03    0.196E-02
RMM:   4    -0.709768461611E+03   -0.11814E-04   -0.39692E-06  5903   0.402E-03    0.511E-02
RMM:   5    -0.709768448644E+03    0.12967E-04   -0.90651E-07  3362   0.313E-03    0.146E-02
RMM:   6    -0.709768449913E+03   -0.12696E-05   -0.26145E-07  1879   0.266E-03    0.169E-02
RMM:   7    -0.709768449312E+03    0.60102E-06   -0.27392E-07  1855   0.265E-03    0.138E-02
RMM:   8    -0.709768448431E+03    0.88107E-06   -0.57013E-08  1235   0.257E-03
 189 F= -.70976845E+03 E0= -.70915594E+03  d E =-.229430E-03  mag=     8.5416
 curvature:  -0.05 expect dE=-0.189E-03 dE for cont linesearch -0.506E-06
 trial: gam= 0.75216 g(F)=  0.400E-02 g(S)=  0.000E+00 ort =-0.251E-03 (trialstep = 0.228E-01)
 search vector abs. value=  0.694E-02
 bond charge predicted
       N       E                     dE             d eps       ncg     rms          rms(c)
DAV:   1    -0.709768512634E+03   -0.63322E-04   -0.84397E-04 13040   0.463E-02    0.125E-02
RMM:   2    -0.709768514485E+03   -0.18508E-05   -0.18375E-05  6991   0.810E-03    0.165E-02
RMM:   3    -0.709768514382E+03    0.10258E-06   -0.19457E-06  4790   0.379E-03    0.109E-02
RMM:   4    -0.709768521952E+03   -0.75699E-05   -0.26997E-07  1840   0.251E-03    0.352E-02
RMM:   5    -0.709768513854E+03    0.80987E-05   -0.46233E-08  1424   0.230E-03    0.115E-02
RMM:   6    -0.709768514271E+03   -0.41768E-06   -0.26189E-09   982   0.218E-03    0.507E-03
RMM:   7    -0.709768514194E+03    0.77431E-07   -0.37040E-10   823   0.218E-03    0.229E-03
RMM:   8    -0.709768514300E+03   -0.10601E-06   -0.60624E-10   715   0.218E-03
 190 F= -.70976851E+03 E0= -.70915600E+03  d E =-.658688E-04  mag=     8.5413
 trial-energy change:   -0.000066  1 .order   -0.000065   -0.000087   -0.000042
 step:   0.0444(harm=  0.0444)  dis= 0.00038  next Energy=  -709.768533 (dE=-0.846E-04)
 bond charge predicted
       N       E                     dE             d eps       ncg     rms          rms(c)
DAV:   1    -0.709768532946E+03   -0.18752E-04   -0.76378E-04 12784   0.441E-02    0.641E-03
RMM:   2    -0.709768534774E+03   -0.18281E-05   -0.16615E-05  6965   0.772E-03    0.123E-02
RMM:   3    -0.709768534840E+03   -0.65636E-07   -0.15640E-06  4180   0.354E-03    0.848E-03
RMM:   4    -0.709768536523E+03   -0.16832E-05   -0.13202E-07  1500   0.242E-03    0.160E-02
RMM:   5    -0.709768535075E+03    0.14475E-05   -0.20429E-09  1071   0.228E-03    0.850E-03
RMM:   6    -0.709768535426E+03   -0.35073E-06   -0.11401E-08   953   0.229E-03    0.614E-03
RMM:   7    -0.709768535611E+03   -0.18492E-06   -0.95475E-09   755   0.230E-03    0.480E-03
RMM:   8    -0.709768535818E+03   -0.20755E-06   -0.22148E-08   755   0.233E-03
 191 F= -.70976854E+03 E0= -.70915602E+03  d E =-.873873E-04  mag=     8.5412
 curvature:  -0.04 expect dE=-0.865E-04 dE for cont linesearch -0.145E-06
 trial: gam= 0.44271 g(F)=  0.214E-02 g(S)=  0.000E+00 ort = 0.158E-03 (trialstep = 0.271E-01)
 search vector abs. value=  0.364E-02
 bond charge predicted
       N       E                     dE             d eps       ncg     rms          rms(c)
DAV:   1    -0.709768582953E+03   -0.47342E-04   -0.61058E-04 13328   0.395E-02    0.709E-03
RMM:   2    -0.709768584318E+03   -0.13647E-05   -0.13678E-05  6993   0.718E-03    0.132E-02
RMM:   3    -0.709768584139E+03    0.17924E-06   -0.11057E-06  3632   0.336E-03    0.803E-03
RMM:   4    -0.709768586164E+03   -0.20246E-05   -0.43271E-08  1149   0.250E-03    0.194E-02
RMM:   5    -0.709768584387E+03    0.17766E-05   -0.57428E-09  1061   0.243E-03    0.833E-03
RMM:   6    -0.709768584637E+03   -0.25039E-06   -0.39203E-08   974   0.245E-03    0.468E-03
RMM:   7    -0.709768584916E+03   -0.27909E-06   -0.33261E-08   874   0.245E-03    0.334E-03
RMM:   8    -0.709768585031E+03   -0.11441E-06   -0.19242E-08   726   0.244E-03
 192 F= -.70976859E+03 E0= -.70915607E+03  d E =-.492123E-04  mag=     8.5411
 trial-energy change:   -0.000049  1 .order   -0.000048   -0.000060   -0.000036
 step:   0.0673(harm=  0.0673)  dis= 0.00049  next Energy=  -709.768610 (dE=-0.743E-04)
 bond charge predicted
       N       E                     dE             d eps       ncg     rms          rms(c)
DAV:   1    -0.709768607302E+03   -0.22386E-04   -0.13336E-03 13248   0.585E-02    0.987E-03
RMM:   2    -0.709768609440E+03   -0.21383E-05   -0.29548E-05  7042   0.102E-02    0.145E-02
RMM:   3    -0.709768609856E+03   -0.41534E-06   -0.38536E-06  6422   0.477E-03    0.743E-03
RMM:   4    -0.709768611011E+03   -0.11553E-05   -0.37949E-08  1528   0.226E-03    0.135E-02
RMM:   5    -0.709768611424E+03   -0.41332E-06   -0.27170E-08  1392   0.221E-03    0.168E-02
RMM:   6    -0.709768610311E+03    0.11132E-05   -0.15311E-08  1102   0.217E-03    0.554E-03
RMM:   7    -0.709768610502E+03   -0.19118E-06   -0.66057E-09   903   0.222E-03    0.342E-03
RMM:   8    -0.709768610671E+03   -0.16930E-06   -0.65726E-09   811   0.224E-03
 193 F= -.70976861E+03 E0= -.70915609E+03  d E =-.748529E-04  mag=     8.5410
 curvature:  -0.06 expect dE=-0.668E-04 dE for cont linesearch -0.502E-08
 trial: gam= 0.53275 g(F)=  0.121E-02 g(S)=  0.000E+00 ort =-0.182E-04 (trialstep = 0.351E-01)
 search vector abs. value=  0.222E-02
 bond charge predicted
       N       E                     dE             d eps       ncg     rms          rms(c)
DAV:   1    -0.709768645672E+03   -0.35170E-04   -0.62416E-04 13216   0.389E-02    0.634E-03
RMM:   2    -0.709768647113E+03   -0.14404E-05   -0.13692E-05  7013   0.730E-03    0.109E-02
RMM:   3    -0.709768646977E+03    0.13568E-06   -0.12083E-06  3719   0.340E-03    0.679E-03
RMM:   4    -0.709768647936E+03   -0.95963E-06   -0.29327E-08  1143   0.250E-03    0.137E-02
RMM:   5    -0.709768647045E+03    0.89143E-06   -0.29978E-09  1044   0.245E-03    0.631E-03
RMM:   6    -0.709768647171E+03   -0.12643E-06   -0.47872E-08  1003   0.247E-03    0.460E-03
RMM:   7    -0.709768647260E+03   -0.88345E-07   -0.29870E-08   839   0.245E-03    0.195E-03
RMM:   8    -0.709768647348E+03   -0.88163E-07   -0.35669E-09   625   0.243E-03
 194 F= -.70976865E+03 E0= -.70915612E+03  d E =-.366766E-04  mag=     8.5409
 trial-energy change:   -0.000037  1 .order   -0.000035   -0.000042   -0.000029
 step:   0.1102(harm=  0.1102)  dis= 0.00061  next Energy=  -709.768677 (dE=-0.659E-04)
 bond charge predicted
       N       E                     dE             d eps       ncg     rms          rms(c)
DAV:   1    -0.709768680154E+03   -0.32894E-04   -0.28329E-03 13424   0.830E-02    0.119E-02
RMM:   2    -0.709768685139E+03   -0.49852E-05   -0.56970E-05  7061   0.144E-02    0.197E-02
RMM:   3    -0.709768685546E+03   -0.40744E-06   -0.81017E-06  6934   0.676E-03    0.989E-03
RMM:   4    -0.709768692243E+03   -0.66968E-05   -0.13642E-06  3531   0.313E-03    0.366E-02
RMM:   5    -0.709768684871E+03    0.73723E-05   -0.19288E-07  2163   0.271E-03    0.980E-03
RMM:   6    -0.709768685719E+03   -0.84836E-06   -0.12393E-07  1524   0.261E-03    0.682E-03
RMM:   7    -0.709768685985E+03   -0.26580E-06   -0.13748E-07  1509   0.266E-03    0.649E-03
RMM:   8    -0.709768686030E+03   -0.45482E-07   -0.15049E-07  1182   0.266E-03
 195 F= -.70976869E+03 E0= -.70915615E+03  d E =-.753590E-04  mag=     8.5409
 curvature:  -0.10 expect dE=-0.713E-04 dE for cont linesearch -0.913E-06
 ZBRENT: extrapolating
 opt :   0.1258  next Energy=  -709.768687 (dE=-0.765E-04)
 bond charge predicted
       N       E                     dE             d eps       ncg     rms          rms(c)
DAV:   1    -0.709768685968E+03    0.17040E-07   -0.11728E-04  8928   0.173E-02    0.728E-03
RMM:   2    -0.709768688845E+03   -0.28774E-05   -0.68370E-06  6276   0.530E-03    0.208E-02
RMM:   3    -0.709768686394E+03    0.24516E-05   -0.20825E-07  1991   0.278E-03    0.687E-03
RMM:   4    -0.709768687050E+03   -0.65601E-06   -0.34994E-07  1733   0.277E-03    0.781E-03
RMM:   5    -0.709768686908E+03    0.14179E-06   -0.44144E-10   816   0.251E-03    0.489E-03
RMM:   6    -0.709768686985E+03   -0.77525E-07   -0.60980E-09   742   0.251E-03    0.478E-03
RMM:   7    -0.709768687024E+03   -0.38577E-07   -0.31262E-09   653   0.252E-03    0.380E-03
RMM:   8    -0.709768687108E+03   -0.83550E-07    0.00000E+00   600   0.249E-03
 196 F= -.70976869E+03 E0= -.70915615E+03  d E =-.764362E-04  mag=     8.5408
 curvature:  -0.12 expect dE=-0.112E-03 dE for cont linesearch -0.778E-06
 trial: gam= 0.81238 g(F)=  0.907E-03 g(S)=  0.000E+00 ort =-0.118E-03 (trialstep = 0.533E-01)
 search vector abs. value=  0.218E-02
 bond charge predicted
       N       E                     dE             d eps       ncg     rms          rms(c)
DAV:   1    -0.709768711615E+03   -0.24591E-04   -0.14541E-03 13312   0.590E-02    0.956E-03
RMM:   2    -0.709768713784E+03   -0.21684E-05   -0.29522E-05  7047   0.106E-02    0.150E-02
RMM:   3    -0.709768714056E+03   -0.27278E-06   -0.43835E-06  6686   0.507E-03    0.636E-03
RMM:   4    -0.709768714761E+03   -0.70447E-06   -0.59268E-08  1520   0.236E-03    0.110E-02
RMM:   5    -0.709768714813E+03   -0.52256E-07   -0.22520E-09  1312   0.232E-03    0.106E-02
RMM:   6    -0.709768714541E+03    0.27200E-06   -0.61565E-09  1135   0.232E-03    0.680E-03
RMM:   7    -0.709768714288E+03    0.25259E-06   -0.10601E-08  1033   0.241E-03    0.317E-03
RMM:   8    -0.709768714331E+03   -0.42040E-07   -0.31638E-09   754   0.244E-03
 197 F= -.70976871E+03 E0= -.70915618E+03  d E =-.272230E-04  mag=     8.5408
 trial-energy change:   -0.000027  1 .order   -0.000027   -0.000043   -0.000010
 step:   0.0697(harm=  0.0697)  dis= 0.00031  next Energy=  -709.768715 (dE=-0.282E-04)
 reached required accuracy - stopping structural energy minimisation
 writing wavefunctions
