 ----------------------------------------------------
    OOO  PPPP  EEEEE N   N M   M PPPP
   O   O P   P E     NN  N MM MM P   P
   O   O PPPP  EEEEE N N N M M M PPPP   -- VERSION
   O   O P     E     N  NN M   M P
    OOO  P     EEEEE N   N M   M P
 ----------------------------------------------------
 running   16 mpi-ranks, with    4 threads/rank
 distrk:  each k-point on   16 cores,    1 groups
 distr:  one band on    1 cores,   16 groups
 vasp.6.2.1 16May21 (build Jul 28 2021 23:24:15) complex                        
  
 POSCAR found type information on POSCAR H IrO 
 POSCAR found :  3 types and     106 ions
 scaLAPACK will be used
 -----------------------------------------------------------------------------
|                                                                             |
|           W    W    AA    RRRRR   N    N  II  N    N   GGGG   !!!           |
|           W    W   A  A   R    R  NN   N  II  NN   N  G    G  !!!           |
|           W    W  A    A  R    R  N N  N  II  N N  N  G       !!!           |
|           W WW W  AAAAAA  RRRRR   N  N N  II  N  N N  G  GGG   !            |
|           WW  WW  A    A  R   R   N   NN  II  N   NN  G    G                |
|           W    W  A    A  R    R  N    N  II  N    N   GGGG   !!!           |
|                                                                             |
|     The real-space projection scheme for the treatment of the non-local     |
|     pseudopotentials has been switched on but on file POTCAR I have not     |
|     found any entries, signalling me that you have never performed a        |
|     real-space optimization of all non-local projectors! BE WARNED that     |
|     a calculation using the real-space projection scheme together with      |
|     non-local projectors which were not real-space optimized (according     |
|     to the plane-wave cutoff used in this calculation) might give more      |
|     or less inaccurate results. I hope you know what you are doing.         |
|                                                                             |
 -----------------------------------------------------------------------------

 LDA part: xc-table for Pade appr. of Perdew
 POSCAR, INCAR and KPOINTS ok, starting setup
 FFT: planning ...
 WAVECAR not read
 WARNING: random wavefunctions but no delay for mixing, default for NELMDL
 entering main loop
       N       E                     dE             d eps       ncg     rms          rms(c)
DAV:   1     0.784785754341E+04    0.78479E+04   -0.31228E+05 13664   0.127E+03
DAV:   2     0.605244548789E+03   -0.72426E+04   -0.65497E+04 14560   0.374E+02
DAV:   3    -0.791033927635E+03   -0.13963E+04   -0.13378E+04 16976   0.165E+02
DAV:   4    -0.867201917715E+03   -0.76168E+02   -0.74229E+02 18624   0.429E+01
DAV:   5    -0.868817459014E+03   -0.16155E+01   -0.15901E+01 17488   0.581E+00    0.197E+02
RMM:   6    -0.772595155504E+03    0.96222E+02   -0.70899E+02 13471   0.427E+01    0.210E+02
RMM:   7    -0.102223509407E+04   -0.24964E+03   -0.24216E+02 14026   0.256E+01    0.355E+02
RMM:   8    -0.892251764678E+03    0.12998E+03   -0.70427E+01 16107   0.954E+00    0.296E+02
RMM:   9    -0.823534253574E+03    0.68718E+02   -0.22622E+02 17785   0.195E+01    0.233E+02
RMM:  10    -0.728556606218E+03    0.94978E+02   -0.45630E+01 13583   0.104E+01    0.116E+02
RMM:  11    -0.704624903675E+03    0.23932E+02   -0.44736E+01 14067   0.110E+01    0.859E+01
RMM:  12    -0.689715939699E+03    0.14909E+02   -0.30700E+01 13739   0.101E+01    0.101E+02
RMM:  13    -0.666273246593E+03    0.23443E+02   -0.11137E+01 13617   0.562E+00    0.849E+01
RMM:  14    -0.643420411538E+03    0.22853E+02   -0.70312E+00 13533   0.391E+00    0.553E+01
RMM:  15    -0.644007050038E+03   -0.58664E+00   -0.22535E+00 14229   0.255E+00    0.470E+01
RMM:  16    -0.649432431267E+03   -0.54254E+01   -0.20168E+00 13851   0.218E+00    0.411E+01
RMM:  17    -0.655747724118E+03   -0.63153E+01   -0.32942E+00 15268   0.255E+00    0.299E+01
RMM:  18    -0.667030563641E+03   -0.11283E+02   -0.61966E+00 16698   0.347E+00    0.225E+01
RMM:  19    -0.675280325403E+03   -0.82498E+01   -0.60879E+00 16636   0.339E+00    0.195E+01
RMM:  20    -0.680339604235E+03   -0.50593E+01   -0.33368E+00 15393   0.253E+00    0.188E+01
RMM:  21    -0.683318232882E+03   -0.29786E+01   -0.16691E+00 14071   0.191E+00    0.199E+01
RMM:  22    -0.685415028228E+03   -0.20968E+01   -0.96480E-01 13656   0.157E+00    0.157E+01
RMM:  23    -0.688316264698E+03   -0.29012E+01   -0.78865E-01 13874   0.134E+00    0.185E+01
RMM:  24    -0.687376137015E+03    0.94013E+00   -0.20939E-01 13599   0.758E-01    0.164E+01
RMM:  25    -0.687846003094E+03   -0.46987E+00   -0.13860E-01 13534   0.573E-01    0.153E+01
RMM:  26    -0.690243773385E+03   -0.23978E+01   -0.43738E-01 16176   0.883E-01    0.151E+01
RMM:  27    -0.692371675589E+03   -0.21279E+01   -0.30639E-01 15371   0.800E-01    0.125E+01
RMM:  28    -0.696166404939E+03   -0.37947E+01   -0.63783E-01 17231   0.102E+00    0.109E+01
RMM:  29    -0.698886874574E+03   -0.27205E+01   -0.59330E-01 17080   0.979E-01    0.867E+00
RMM:  30    -0.701515779376E+03   -0.26289E+01   -0.71624E-01 17238   0.980E-01    0.602E+00
RMM:  31    -0.702800991117E+03   -0.12852E+01   -0.21522E-01 15063   0.565E-01    0.594E+00
RMM:  32    -0.704629076156E+03   -0.18281E+01   -0.36059E-01 16663   0.715E-01    0.467E+00
RMM:  33    -0.705707774975E+03   -0.10787E+01   -0.19605E-01 15265   0.530E-01    0.348E+00
RMM:  34    -0.706376297343E+03   -0.66852E+00   -0.85393E-02 14211   0.377E-01    0.327E+00
RMM:  35    -0.706997500560E+03   -0.62120E+00   -0.94700E-02 15091   0.381E-01    0.297E+00
RMM:  36    -0.707187408173E+03   -0.18991E+00   -0.83968E-02 15066   0.362E-01    0.323E+00
RMM:  37    -0.707291108998E+03   -0.10370E+00   -0.23942E-02 13814   0.213E-01    0.285E+00
RMM:  38    -0.707474819093E+03   -0.18371E+00   -0.32027E-02 14632   0.221E-01    0.249E+00
RMM:  39    -0.707733614519E+03   -0.25880E+00   -0.37436E-02 15533   0.236E-01    0.197E+00
RMM:  40    -0.707958342344E+03   -0.22473E+00   -0.12614E-02 13996   0.166E-01    0.165E+00
RMM:  41    -0.708150720158E+03   -0.19238E+00   -0.27342E-02 16325   0.209E-01    0.119E+00
RMM:  42    -0.708341752546E+03   -0.19103E+00   -0.11742E-02 14312   0.154E-01    0.976E-01
RMM:  43    -0.708350673253E+03   -0.89207E-02   -0.39509E-03 13536   0.101E-01    0.791E-01
RMM:  44    -0.708393055410E+03   -0.42382E-01   -0.57129E-03 14555   0.101E-01    0.764E-01
RMM:  45    -0.708452736356E+03   -0.59681E-01   -0.61287E-03 14999   0.982E-02    0.626E-01
RMM:  46    -0.708514794429E+03   -0.62058E-01   -0.26291E-03 13384   0.689E-02    0.524E-01
RMM:  47    -0.708598398573E+03   -0.83604E-01   -0.23971E-03 13719   0.637E-02    0.370E-01
RMM:  48    -0.708670201491E+03   -0.71803E-01   -0.13189E-03 12743   0.476E-02    0.311E-01
RMM:  49    -0.708705199002E+03   -0.34998E-01   -0.55636E-04 11468   0.349E-02    0.300E-01
RMM:  50    -0.708762772188E+03   -0.57573E-01   -0.73179E-04 11647   0.330E-02    0.274E-01
RMM:  51    -0.708822719148E+03   -0.59947E-01   -0.10263E-03 12691   0.426E-02    0.243E-01
RMM:  52    -0.708864638371E+03   -0.41919E-01   -0.37560E-04 10245   0.233E-02    0.207E-01
RMM:  53    -0.708903394668E+03   -0.38756E-01   -0.40892E-04 10366   0.216E-02    0.184E-01
RMM:  54    -0.708935271472E+03   -0.31877E-01   -0.36066E-04 10131   0.202E-02    0.111E-01
RMM:  55    -0.708950029627E+03   -0.14758E-01   -0.20059E-04  8958   0.157E-02    0.104E-01
RMM:  56    -0.708954363830E+03   -0.43342E-02   -0.87499E-05  8281   0.131E-02    0.513E-02
RMM:  57    -0.708955112839E+03   -0.74901E-03   -0.36061E-05  7472   0.928E-03    0.351E-02
RMM:  58    -0.708955742050E+03   -0.62921E-03   -0.28762E-05  7137   0.726E-03    0.264E-02
RMM:  59    -0.708955939860E+03   -0.19781E-03   -0.22494E-05  7024   0.635E-03    0.224E-02
RMM:  60    -0.708955907557E+03    0.32302E-04   -0.11675E-05  6027   0.526E-03
   1 F= -.70895591E+03 E0= -.70834638E+03  d E =-.708956E+03  mag=     5.6099
 curvature:   0.00 expect dE= 0.000E+00 dE for cont linesearch  0.000E+00
 trial: gam= 0.00000 g(F)=  0.537E+01 g(S)=  0.000E+00 ort = 0.000E+00 (trialstep = 0.100E+01)
 search vector abs. value=  0.537E+01
 bond charge predicted
       N       E                     dE             d eps       ncg     rms          rms(c)
DAV:   1    -0.702084170426E+03    0.68718E+01   -0.11690E+03 13584   0.450E+01    0.158E+01
RMM:   2    -0.722191023105E+03   -0.20107E+02   -0.13223E+02 15795   0.112E+01    0.270E+01
RMM:   3    -0.728407229195E+03   -0.62162E+01   -0.21464E+01 14656   0.456E+00    0.553E+01
RMM:   4    -0.711832136675E+03    0.16575E+02   -0.27204E+00 13828   0.253E+00    0.167E+01
RMM:   5    -0.709611925339E+03    0.22202E+01   -0.15714E+00 14409   0.161E+00    0.133E+01
RMM:   6    -0.708168037096E+03    0.14439E+01   -0.92869E-01 15138   0.109E+00    0.785E+00
RMM:   7    -0.707893285271E+03    0.27475E+00   -0.44610E-01 14722   0.783E-01    0.528E+00
RMM:   8    -0.707780419056E+03    0.11287E+00   -0.85848E-02 13612   0.515E-01    0.374E+00
RMM:   9    -0.707784205906E+03   -0.37869E-02   -0.14761E-01 14445   0.481E-01    0.458E+00
RMM:  10    -0.707771622423E+03    0.12583E-01   -0.17965E-01 15023   0.474E-01    0.348E+00
RMM:  11    -0.707779549177E+03   -0.79268E-02   -0.22973E-02 13774   0.260E-01    0.202E+00
RMM:  12    -0.707804967671E+03   -0.25418E-01   -0.12200E-02 14720   0.136E-01    0.144E+00
RMM:  13    -0.707812573085E+03   -0.76054E-02   -0.24842E-03 14289   0.664E-02    0.143E+00
RMM:  14    -0.707766895979E+03    0.45677E-01   -0.11396E-02 15025   0.124E-01    0.142E+00
RMM:  15    -0.707736586321E+03    0.30310E-01   -0.21546E-02 17571   0.157E-01    0.114E+00
RMM:  16    -0.707728444141E+03    0.81422E-02   -0.42479E-03 13788   0.966E-02    0.711E-01
RMM:  17    -0.707753376766E+03   -0.24933E-01   -0.39837E-03 14448   0.934E-02    0.576E-01
RMM:  18    -0.707792979024E+03   -0.39602E-01   -0.62848E-03 15901   0.933E-02    0.403E-01
RMM:  19    -0.707829736107E+03   -0.36757E-01   -0.52210E-03 15447   0.808E-02    0.310E-01
RMM:  20    -0.707855247059E+03   -0.25511E-01   -0.24101E-03 13769   0.600E-02    0.225E-01
RMM:  21    -0.707864274016E+03   -0.90270E-02   -0.79313E-04 11886   0.402E-02    0.239E-01
RMM:  22    -0.707874076807E+03   -0.98028E-02   -0.45669E-04 10404   0.304E-02    0.123E-01
RMM:  23    -0.707878104169E+03   -0.40274E-02   -0.22028E-04  8929   0.218E-02    0.108E-01
RMM:  24    -0.707881668397E+03   -0.35642E-02   -0.21661E-04  8634   0.202E-02    0.922E-02
RMM:  25    -0.707887879944E+03   -0.62115E-02   -0.19770E-04  8370   0.174E-02    0.119E-01
RMM:  26    -0.707891285883E+03   -0.34059E-02   -0.58397E-05  7673   0.127E-02    0.824E-02
RMM:  27    -0.707895690998E+03   -0.44051E-02   -0.45969E-05  7588   0.104E-02    0.565E-02
RMM:  28    -0.707905754805E+03   -0.10064E-01   -0.11691E-04  8110   0.119E-02    0.596E-02
RMM:  29    -0.707911131596E+03   -0.53768E-02   -0.53974E-05  7423   0.917E-03    0.515E-02
RMM:  30    -0.707916415253E+03   -0.52837E-02   -0.49079E-05  7184   0.842E-03    0.434E-02
RMM:  31    -0.707925009664E+03   -0.85944E-02   -0.11266E-04  7961   0.103E-02    0.406E-02
RMM:  32    -0.707931057834E+03   -0.60482E-02   -0.85072E-05  7635   0.910E-03    0.448E-02
RMM:  33    -0.707934177241E+03   -0.31194E-02   -0.52874E-05  7208   0.844E-03    0.549E-02
RMM:  34    -0.707936826173E+03   -0.26489E-02   -0.62823E-05  7251   0.803E-03    0.480E-02
RMM:  35    -0.707937990473E+03   -0.11643E-02   -0.35670E-05  6369   0.708E-03    0.201E-02
RMM:  36    -0.707938492366E+03   -0.50189E-03   -0.19142E-05  6095   0.590E-03    0.160E-02
RMM:  37    -0.707938967978E+03   -0.47561E-03   -0.10311E-05  5252   0.488E-03    0.162E-02
RMM:  38    -0.707939581167E+03   -0.61319E-03   -0.86307E-06  5514   0.439E-03    0.120E-02
RMM:  39    -0.707940095146E+03   -0.51398E-03   -0.73212E-06  4907   0.399E-03    0.972E-03
RMM:  40    -0.707940435825E+03   -0.34068E-03   -0.44572E-06  4264   0.354E-03    0.805E-03
RMM:  41    -0.707940793788E+03   -0.35796E-03   -0.43474E-06  4173   0.344E-03    0.691E-03
RMM:  42    -0.707941185289E+03   -0.39150E-03   -0.58280E-06  4548   0.354E-03    0.726E-03
RMM:  43    -0.707941564898E+03   -0.37961E-03   -0.69362E-06  4706   0.366E-03    0.515E-03
RMM:  44    -0.707941771140E+03   -0.20624E-03   -0.43788E-06  4284   0.345E-03    0.443E-03
RMM:  45    -0.707941895448E+03   -0.12431E-03   -0.25974E-06  3563   0.317E-03    0.421E-03
RMM:  46    -0.707941956540E+03   -0.61093E-04   -0.14509E-06  3145   0.301E-03
   2 F= -.70794196E+03 E0= -.70732619E+03  d E =0.101395E+01  mag=     6.2988
 trial-energy change:    1.013951  1 .order    0.372644   -5.367677    6.112964
 step:   0.3880(harm=  0.4675)  dis= 0.13467  next Energy=  -709.959679 (dE=-0.100E+01)
 bond charge predicted
       N       E                     dE             d eps       ncg     rms          rms(c)
DAV:   1    -0.708733022007E+03   -0.79113E+00   -0.50326E+02 13600   0.255E+01    0.672E+00
RMM:   2    -0.712346017059E+03   -0.36130E+01   -0.13389E+01 13440   0.453E+00    0.159E+01
RMM:   3    -0.711450220855E+03    0.89580E+00   -0.33208E+00 13913   0.227E+00    0.177E+01
RMM:   4    -0.710013375338E+03    0.14368E+01   -0.54073E-01 13907   0.119E+00    0.512E+00
RMM:   5    -0.709882033209E+03    0.13134E+00   -0.15333E-01 13722   0.674E-01    0.349E+00
RMM:   6    -0.709842330656E+03    0.39703E-01   -0.68357E-02 14051   0.414E-01    0.230E+00
RMM:   7    -0.709838547818E+03    0.37828E-02   -0.45052E-02 13733   0.339E-01    0.204E+00
RMM:   8    -0.709818917898E+03    0.19630E-01   -0.31534E-02 13929   0.283E-01    0.157E+00
RMM:   9    -0.709800055586E+03    0.18862E-01   -0.17293E-02 13736   0.222E-01    0.974E-01
RMM:  10    -0.709787897504E+03    0.12158E-01   -0.84841E-03 14433   0.135E-01    0.730E-01
RMM:  11    -0.709772346459E+03    0.15551E-01   -0.35643E-03 13935   0.805E-02    0.627E-01
RMM:  12    -0.709747407166E+03    0.24939E-01   -0.27826E-03 13029   0.665E-02    0.538E-01
RMM:  13    -0.709680103938E+03    0.67303E-01   -0.11365E-02 16296   0.123E-01    0.434E-01
RMM:  14    -0.709655746087E+03    0.24358E-01   -0.77706E-03 16511   0.104E-01    0.359E-01
RMM:  15    -0.709685306235E+03   -0.29560E-01   -0.40980E-03 13843   0.891E-02    0.304E-01
RMM:  16    -0.709701154846E+03   -0.15849E-01   -0.10312E-03 12404   0.437E-02    0.264E-01
RMM:  17    -0.709710338654E+03   -0.91838E-02   -0.84017E-04 11286   0.396E-02    0.156E-01
RMM:  18    -0.709723857054E+03   -0.13518E-01   -0.34894E-04 10028   0.247E-02    0.118E-01
RMM:  19    -0.709738790534E+03   -0.14933E-01   -0.30371E-04  9718   0.205E-02    0.923E-02
RMM:  20    -0.709757432545E+03   -0.18642E-01   -0.36484E-04  9745   0.195E-02    0.852E-02
RMM:  21    -0.709776341272E+03   -0.18909E-01   -0.36466E-04  9621   0.187E-02    0.733E-02
RMM:  22    -0.709795245453E+03   -0.18904E-01   -0.42682E-04  9900   0.193E-02    0.647E-02
RMM:  23    -0.709812374417E+03   -0.17129E-01   -0.40193E-04  9665   0.185E-02    0.531E-02
RMM:  24    -0.709824771680E+03   -0.12397E-01   -0.23433E-04  8705   0.146E-02    0.411E-02
RMM:  25    -0.709832238312E+03   -0.74666E-02   -0.94649E-05  7794   0.109E-02    0.360E-02
RMM:  26    -0.709838084089E+03   -0.58458E-02   -0.59028E-05  7480   0.936E-03    0.292E-02
RMM:  27    -0.709842495836E+03   -0.44117E-02   -0.45330E-05  7058   0.791E-03    0.231E-02
RMM:  28    -0.709844502066E+03   -0.20062E-02   -0.23675E-05  6399   0.650E-03    0.186E-02
RMM:  29    -0.709845970016E+03   -0.14679E-02   -0.12807E-05  5614   0.506E-03    0.164E-02
RMM:  30    -0.709847760653E+03   -0.17906E-02   -0.95186E-06  5839   0.457E-03    0.142E-02
RMM:  31    -0.709848758657E+03   -0.99800E-03   -0.54740E-06  5049   0.398E-03    0.120E-02
RMM:  32    -0.709849537847E+03   -0.77919E-03   -0.37246E-06  4732   0.354E-03    0.112E-02
RMM:  33    -0.709850091068E+03   -0.55322E-03   -0.16151E-06  3500   0.308E-03    0.994E-03
RMM:  34    -0.709850419601E+03   -0.32853E-03   -0.12371E-06  3178   0.300E-03    0.831E-03
RMM:  35    -0.709850846301E+03   -0.42670E-03   -0.31795E-06  4144   0.323E-03    0.730E-03
RMM:  36    -0.709851175412E+03   -0.32911E-03   -0.28585E-06  3752   0.311E-03    0.623E-03
RMM:  37    -0.709851491346E+03   -0.31593E-03   -0.44586E-06  3991   0.321E-03    0.572E-03
RMM:  38    -0.709851744762E+03   -0.25342E-03   -0.33122E-06  3653   0.308E-03    0.492E-03
RMM:  39    -0.709851947245E+03   -0.20248E-03   -0.36051E-06  3665   0.310E-03    0.389E-03
RMM:  40    -0.709852064091E+03   -0.11685E-03   -0.20001E-06  3240   0.299E-03    0.314E-03
RMM:  41    -0.709852178062E+03   -0.11397E-03   -0.23956E-06  3280   0.302E-03    0.293E-03
RMM:  42    -0.709852234860E+03   -0.56798E-04   -0.16438E-06  3133   0.299E-03
   3 F= -.70985223E+03 E0= -.70923974E+03  d E =-.896327E+00  mag=     5.7047
 curvature:  -0.23 expect dE=-0.406E+00 dE for cont linesearch -0.899E-05
 trial: gam= 0.33406 g(F)=  0.178E+01 g(S)=  0.000E+00 ort =-0.145E-01 (trialstep = 0.878E+00)
 search vector abs. value=  0.237E+01
 bond charge predicted
       N       E                     dE             d eps       ncg     rms          rms(c)
DAV:   1    -0.708094028329E+03    0.17581E+01   -0.43468E+02 13792   0.300E+01    0.584E+00
RMM:   2    -0.710032590090E+03   -0.19386E+01   -0.13540E+01 13440   0.506E+00    0.138E+01
RMM:   3    -0.709617856568E+03    0.41473E+00   -0.22259E+00 14562   0.214E+00    0.755E+00
RMM:   4    -0.710386437982E+03   -0.76858E+00   -0.33247E-01 13744   0.994E-01    0.133E+01
RMM:   5    -0.709791927455E+03    0.59451E+00   -0.15705E-01 13521   0.725E-01    0.863E+00
RMM:   6    -0.709588171679E+03    0.20376E+00   -0.14009E-01 13898   0.528E-01    0.618E+00
RMM:   7    -0.709429898108E+03    0.15827E+00   -0.10653E-01 14297   0.501E-01    0.390E+00
RMM:   8    -0.709366942411E+03    0.62956E-01   -0.40658E-02 13527   0.350E-01    0.199E+00
RMM:   9    -0.709361344872E+03    0.55975E-02   -0.14355E-02 13631   0.202E-01    0.154E+00
RMM:  10    -0.709375104073E+03   -0.13759E-01   -0.51801E-03 13360   0.116E-01    0.129E+00
RMM:  11    -0.709398457174E+03   -0.23353E-01   -0.59304E-03 13670   0.106E-01    0.918E-01
RMM:  12    -0.709421075993E+03   -0.22619E-01   -0.72500E-03 14724   0.105E-01    0.558E-01
RMM:  13    -0.709434988947E+03   -0.13913E-01   -0.26824E-03 13409   0.729E-02    0.372E-01
RMM:  14    -0.709442574143E+03   -0.75852E-02   -0.13362E-03 13359   0.487E-02    0.237E-01
RMM:  15    -0.709450396784E+03   -0.78226E-02   -0.67485E-04 11801   0.332E-02    0.175E-01
RMM:  16    -0.709457171674E+03   -0.67749E-02   -0.33143E-04  9872   0.251E-02    0.104E-01
RMM:  17    -0.709460334368E+03   -0.31627E-02   -0.12261E-04  8193   0.183E-02    0.750E-02
RMM:  18    -0.709462382446E+03   -0.20481E-02   -0.52112E-05  7811   0.129E-02    0.455E-02
RMM:  19    -0.709464029993E+03   -0.16475E-02   -0.31409E-05  7421   0.849E-03    0.369E-02
RMM:  20    -0.709466117754E+03   -0.20878E-02   -0.37368E-05  7555   0.819E-03    0.261E-02
RMM:  21    -0.709467316983E+03   -0.11992E-02   -0.27070E-05  7041   0.702E-03    0.177E-02
RMM:  22    -0.709467986971E+03   -0.66999E-03   -0.15503E-05  6481   0.587E-03    0.117E-02
RMM:  23    -0.709468433858E+03   -0.44689E-03   -0.76472E-06  5447   0.451E-03    0.908E-03
RMM:  24    -0.709468853058E+03   -0.41920E-03   -0.49885E-06  4750   0.377E-03    0.728E-03
RMM:  25    -0.709469211075E+03   -0.35802E-03   -0.38471E-06  4565   0.357E-03    0.586E-03
RMM:  26    -0.709469587432E+03   -0.37636E-03   -0.38125E-06  4453   0.342E-03    0.557E-03
RMM:  27    -0.709469809704E+03   -0.22227E-03   -0.14346E-06  3260   0.308E-03    0.429E-03
RMM:  28    -0.709470039688E+03   -0.22998E-03   -0.13816E-06  3164   0.295E-03    0.333E-03
RMM:  29    -0.709470194569E+03   -0.15488E-03   -0.69688E-07  2697   0.286E-03    0.288E-03
RMM:  30    -0.709470376377E+03   -0.18181E-03   -0.80015E-07  2600   0.285E-03    0.260E-03
RMM:  31    -0.709470514872E+03   -0.13849E-03   -0.81925E-07  2623   0.287E-03    0.210E-03
RMM:  32    -0.709470632503E+03   -0.11763E-03   -0.88380E-07  2661   0.288E-03    0.204E-03
RMM:  33    -0.709470703255E+03   -0.70752E-04   -0.62647E-07  2475   0.284E-03
   4 F= -.70947070E+03 E0= -.70885927E+03  d E =0.381532E+00  mag=     5.5684
 trial-energy change:    0.381532  1 .order   -0.265988   -1.556627    1.024652
 step:   0.5292(harm=  0.5292)  dis= 0.08098  next Energy=  -710.321593 (dE=-0.469E+00)
 bond charge predicted
       N       E                     dE             d eps       ncg     rms          rms(c)
DAV:   1    -0.709633847720E+03   -0.16322E+00   -0.69326E+01 13744   0.124E+01    0.220E+00
RMM:   2    -0.709924446115E+03   -0.29060E+00   -0.16361E+00 13440   0.193E+00    0.707E+00
RMM:   3    -0.709814707221E+03    0.10974E+00   -0.19322E-01 13571   0.796E-01    0.330E+00
RMM:   4    -0.709874584511E+03   -0.59877E-01   -0.58673E-02 14639   0.377E-01    0.435E+00
RMM:   5    -0.709790229196E+03    0.84355E-01   -0.28829E-02 13557   0.274E-01    0.203E+00
RMM:   6    -0.709788186212E+03    0.20430E-02   -0.89689E-03 13390   0.165E-01    0.187E+00
RMM:   7    -0.709788902794E+03   -0.71658E-03   -0.81429E-03 13744   0.148E-01    0.160E+00
RMM:   8    -0.709784641307E+03    0.42615E-02   -0.93475E-03 14470   0.144E-01    0.105E+00
RMM:   9    -0.709782375870E+03    0.22654E-02   -0.15124E-03 12588   0.708E-02    0.701E-01
RMM:  10    -0.709782101318E+03    0.27455E-03   -0.53507E-04 11400   0.372E-02    0.626E-01
RMM:  11    -0.709781919659E+03    0.18166E-03   -0.28031E-04  9311   0.254E-02    0.545E-01
RMM:  12    -0.709781478828E+03    0.44083E-03   -0.31705E-04  9301   0.266E-02    0.391E-01
RMM:  13    -0.709781256010E+03    0.22282E-03   -0.14553E-04  8193   0.212E-02    0.255E-01
RMM:  14    -0.709781222116E+03    0.33894E-04   -0.60455E-05  7830   0.147E-02
   5 F= -.70978122E+03 E0= -.70916946E+03  d E =0.710127E-01  mag=     5.5829
 curvature:  -0.35 expect dE=-0.141E+01 dE for cont linesearch -0.575E-01
 ZBRENT: interpolating
 opt :   0.3920  next Energy=  -709.823815 (dE= 0.284E-01)
 bond charge predicted
       N       E                     dE             d eps       ncg     rms          rms(c)
DAV:   1    -0.709878281839E+03   -0.97026E-01   -0.10807E+01 13856   0.486E+00    0.860E-01
RMM:   2    -0.709915786597E+03   -0.37505E-01   -0.24704E-01 13440   0.759E-01    0.263E+00
RMM:   3    -0.709906169215E+03    0.96174E-02   -0.29701E-02 13850   0.303E-01    0.152E+00
RMM:   4    -0.709941599413E+03   -0.35430E-01   -0.95659E-03 13861   0.156E-01    0.285E+00
RMM:   5    -0.709900617221E+03    0.40982E-01   -0.51480E-03 13465   0.127E-01    0.803E-01
RMM:   6    -0.709901437413E+03   -0.82019E-03   -0.16128E-03 12689   0.682E-02    0.942E-01
RMM:   7    -0.709901840906E+03   -0.40349E-03   -0.12970E-03 12788   0.582E-02    0.860E-01
RMM:   8    -0.709900980441E+03    0.86046E-03   -0.14892E-03 13366   0.584E-02    0.553E-01
RMM:   9    -0.709900498429E+03    0.48201E-03   -0.26478E-04  9457   0.290E-02    0.389E-01
RMM:  10    -0.709900472398E+03    0.26031E-04   -0.75317E-05  7891   0.163E-02
   6 F= -.70990047E+03 E0= -.70928856E+03  d E =-.482375E-01  mag=     5.5994
 curvature:  -0.26 expect dE=-0.690E+00 dE for cont linesearch -0.595E-01
 ZBRENT: bisectioning
 opt :   0.1960  next Energy=  -710.060215 (dE=-0.208E+00)
 bond charge predicted
       N       E                     dE             d eps       ncg     rms          rms(c)
DAV:   1    -0.709919437705E+03   -0.18939E-01   -0.22104E+01 13440   0.691E+00    0.128E+00
RMM:   2    -0.710009742670E+03   -0.90305E-01   -0.51885E-01 13440   0.110E+00    0.448E+00
RMM:   3    -0.709984726778E+03    0.25016E-01   -0.65846E-02 14035   0.444E-01    0.280E+00
RMM:   4    -0.710058363659E+03   -0.73637E-01   -0.19769E-02 13649   0.230E-01    0.442E+00
RMM:   5    -0.709965958031E+03    0.92406E-01   -0.13077E-02 13647   0.196E-01    0.130E+00
RMM:   6    -0.709967047629E+03   -0.10896E-02   -0.32533E-03 13067   0.995E-02    0.156E+00
RMM:   7    -0.709968465869E+03   -0.14182E-02   -0.31453E-03 13244   0.851E-02    0.147E+00
RMM:   8    -0.709966995928E+03    0.14699E-02   -0.31818E-03 14204   0.877E-02    0.968E-01
RMM:   9    -0.709965719020E+03    0.12769E-02   -0.68861E-04 11924   0.448E-02    0.669E-01
RMM:  10    -0.709965743721E+03   -0.24701E-04   -0.18166E-04  8608   0.225E-02
   7 F= -.70996574E+03 E0= -.70935349E+03  d E =-.113509E+00  mag=     5.6149
 curvature:  -0.70 expect dE=-0.168E+01 dE for cont linesearch -0.490E-02
 trial: gam= 1.37847 g(F)=  0.240E+01 g(S)=  0.000E+00 ort = 0.129E+00 (trialstep = 0.242E+00)
 search vector abs. value=  0.725E+01
 bond charge predicted
       N       E                     dE             d eps       ncg     rms          rms(c)
DAV:   1    -0.709679739904E+03    0.28598E+00   -0.10149E+02 13440   0.146E+01    0.269E+00
RMM:   2    -0.710215302665E+03   -0.53556E+00   -0.25277E+00 13440   0.236E+00    0.877E+00
RMM:   3    -0.709974565259E+03    0.24074E+00   -0.35546E-01 13689   0.997E-01    0.404E+00
RMM:   4    -0.710037242070E+03   -0.62677E-01   -0.84215E-02 14440   0.473E-01    0.501E+00
RMM:   5    -0.709992486367E+03    0.44756E-01   -0.27726E-02 13490   0.287E-01    0.405E+00
RMM:   6    -0.709955502582E+03    0.36984E-01   -0.32321E-02 13987   0.247E-01    0.299E+00
RMM:   7    -0.709935090709E+03    0.20412E-01   -0.21484E-02 14347   0.235E-01    0.168E+00
RMM:   8    -0.709923823483E+03    0.11267E-01   -0.70594E-03 13467   0.152E-01    0.771E-01
RMM:   9    -0.709923991395E+03   -0.16791E-03   -0.26726E-03 13419   0.833E-02    0.582E-01
RMM:  10    -0.709924296450E+03   -0.30506E-03   -0.82940E-04 12458   0.413E-02    0.469E-01
RMM:  11    -0.709925683056E+03   -0.13866E-02   -0.91628E-04 12337   0.418E-02    0.372E-01
RMM:  12    -0.709925328949E+03    0.35411E-03   -0.64909E-04 12017   0.362E-02    0.216E-01
RMM:  13    -0.709924981231E+03    0.34772E-03   -0.25705E-04  9374   0.254E-02    0.113E-01
RMM:  14    -0.709924623623E+03    0.35761E-03   -0.12282E-04  8131   0.192E-02    0.697E-02
RMM:  15    -0.709924381142E+03    0.24248E-03   -0.49262E-05  7706   0.124E-02    0.511E-02
RMM:  16    -0.709924133866E+03    0.24728E-03   -0.31578E-05  7422   0.915E-03    0.371E-02
RMM:  17    -0.709923885485E+03    0.24838E-03   -0.24240E-05  7311   0.812E-03    0.288E-02
RMM:  18    -0.709923893400E+03   -0.79150E-05   -0.10001E-05  6496   0.578E-03
   8 F= -.70992389E+03 E0= -.70931164E+03  d E =0.418503E-01  mag=     5.6612
 trial-energy change:    0.041850  1 .order   -0.214069   -0.623419    0.195282
 step:   0.1843(harm=  0.1843)  dis= 0.04926  next Energy=  -710.203102 (dE=-0.237E+00)
 bond charge predicted
       N       E                     dE             d eps       ncg     rms          rms(c)
DAV:   1    -0.709949318963E+03   -0.25433E-01   -0.58075E+00 13792   0.355E+00    0.635E-01
RMM:   2    -0.709977231149E+03   -0.27912E-01   -0.13278E-01 13440   0.554E-01    0.219E+00
RMM:   3    -0.709964358712E+03    0.12872E-01   -0.15329E-02 13531   0.223E-01    0.102E+00
RMM:   4    -0.709971632217E+03   -0.72735E-02   -0.49050E-03 14149   0.109E-01    0.147E+00
RMM:   5    -0.709962239551E+03    0.93927E-02   -0.22833E-03 12836   0.786E-02    0.629E-01
RMM:   6    -0.709962714754E+03   -0.47520E-03   -0.81848E-04 12291   0.510E-02    0.587E-01
RMM:   7    -0.709962937187E+03   -0.22243E-03   -0.64124E-04 12042   0.432E-02    0.493E-01
RMM:   8    -0.709962695657E+03    0.24153E-03   -0.73020E-04 11594   0.408E-02    0.339E-01
RMM:   9    -0.709962487340E+03    0.20832E-03   -0.13820E-04  8122   0.220E-02    0.209E-01
RMM:  10    -0.709962474105E+03    0.13236E-04   -0.46155E-05  7498   0.132E-02
   9 F= -.70996247E+03 E0= -.70935048E+03  d E =0.326962E-02  mag=     5.6765
 curvature:  -0.26 expect dE=-0.557E+00 dE for cont linesearch -0.548E-02
 trial: gam= 0.90492 g(F)=  0.215E+01 g(S)=  0.000E+00 ort =-0.391E+00 (trialstep = 0.227E+00)
 search vector abs. value=  0.738E+01
 bond charge predicted
       N       E                     dE             d eps       ncg     rms          rms(c)
DAV:   1    -0.709747034590E+03    0.21545E+00   -0.82004E+01 13440   0.133E+01    0.275E+00
RMM:   2    -0.710182498459E+03   -0.43546E+00   -0.21207E+00 13440   0.214E+00    0.759E+00
RMM:   3    -0.710051238548E+03    0.13126E+00   -0.32452E-01 13706   0.950E-01    0.450E+00
RMM:   4    -0.710003562432E+03    0.47676E-01   -0.71452E-02 13985   0.454E-01    0.345E+00
RMM:   5    -0.709987430912E+03    0.16132E-01   -0.27147E-02 13505   0.292E-01    0.281E+00
RMM:   6    -0.709965941672E+03    0.21489E-01   -0.18911E-02 13935   0.205E-01    0.195E+00
RMM:   7    -0.709961181692E+03    0.47600E-02   -0.11076E-02 13784   0.176E-01    0.131E+00
RMM:   8    -0.709952934053E+03    0.82476E-02   -0.55677E-03 13462   0.131E-01    0.448E-01
RMM:   9    -0.709953186354E+03   -0.25230E-03   -0.27034E-03 13529   0.776E-02    0.341E-01
RMM:  10    -0.709953445573E+03   -0.25922E-03   -0.63167E-04 11537   0.366E-02    0.198E-01
RMM:  11    -0.709953919784E+03   -0.47421E-03   -0.13036E-04  8282   0.186E-02    0.173E-01
RMM:  12    -0.709954891255E+03   -0.97147E-03   -0.34096E-04  9461   0.240E-02    0.136E-01
RMM:  13    -0.709955034490E+03   -0.14323E-03   -0.11802E-04  8221   0.180E-02    0.660E-02
RMM:  14    -0.709955024982E+03    0.95073E-05   -0.49562E-05  7814   0.129E-02
  10 F= -.70995502E+03 E0= -.70934230E+03  d E =0.744912E-02  mag=     5.7013
 trial-energy change:    0.007449  1 .order   -0.145099   -0.406139    0.115942
 step:   0.1763(harm=  0.1763)  dis= 0.04377  next Energy=  -710.120447 (dE=-0.158E+00)
 bond charge predicted
       N       E                     dE             d eps       ncg     rms          rms(c)
DAV:   1    -0.709973424926E+03   -0.18390E-01   -0.40607E+00 13680   0.301E+00    0.607E-01
RMM:   2    -0.709993725821E+03   -0.20301E-01   -0.94382E-02 13440   0.471E-01    0.179E+00
RMM:   3    -0.709985287920E+03    0.84379E-02   -0.12200E-02 13559   0.200E-01    0.915E-01
RMM:   4    -0.709985303183E+03   -0.15263E-04   -0.35103E-03 13761   0.983E-02    0.893E-01
RMM:   5    -0.709982419974E+03    0.28832E-02   -0.15258E-03 12713   0.684E-02    0.510E-01
RMM:   6    -0.709982112706E+03    0.30727E-03   -0.65333E-04 12064   0.476E-02    0.371E-01
RMM:   7    -0.709981902805E+03    0.20990E-03   -0.47449E-04 11210   0.365E-02    0.227E-01
RMM:   8    -0.709981835410E+03    0.67395E-04   -0.28967E-04  9577   0.293E-02
  11 F= -.70998184E+03 E0= -.70936945E+03  d E =-.193613E-01  mag=     5.7108
 curvature:  -0.36 expect dE=-0.128E+01 dE for cont linesearch -0.411E-01
 ZBRENT: interpolating
 opt :   0.1167  next Energy=  -710.009060 (dE=-0.466E-01)
 bond charge predicted
       N       E                     dE             d eps       ncg     rms          rms(c)
DAV:   1    -0.710030340010E+03   -0.48437E-01   -0.56797E+00 13584   0.355E+00    0.711E-01
RMM:   2    -0.710055606878E+03   -0.25267E-01   -0.13244E-01 13440   0.558E-01    0.195E+00
RMM:   3    -0.710046155435E+03    0.94514E-02   -0.17228E-02 13673   0.232E-01    0.971E-01
RMM:   4    -0.710049648721E+03   -0.34933E-02   -0.48774E-03 13873   0.116E-01    0.123E+00
RMM:   5    -0.710043757189E+03    0.58915E-02   -0.22728E-03 12949   0.833E-02    0.641E-01
RMM:   6    -0.710043183977E+03    0.57321E-03   -0.93208E-04 12414   0.560E-02    0.435E-01
RMM:   7    -0.710043080295E+03    0.10368E-03   -0.66044E-04 11953   0.424E-02    0.287E-01
RMM:   8    -0.710043085059E+03   -0.47633E-05   -0.39105E-04 10633   0.342E-02
  12 F= -.71004309E+03 E0= -.70943091E+03  d E =-.806110E-01  mag=     5.7164
 curvature:  -0.24 expect dE=-0.613E+00 dE for cont linesearch -0.781E-02
 trial: gam= 0.87756 g(F)=  0.255E+01 g(S)=  0.000E+00 ort =-0.490E+00 (trialstep = 0.205E+00)
 search vector abs. value=  0.737E+01
 bond charge predicted
       N       E                     dE             d eps       ncg     rms          rms(c)
DAV:   1    -0.709987564543E+03    0.55516E-01   -0.55629E+01 13440   0.111E+01    0.263E+00
RMM:   2    -0.710235835623E+03   -0.24827E+00   -0.14118E+00 13440   0.175E+00    0.562E+00
RMM:   3    -0.710265115509E+03   -0.29280E-01   -0.20744E-01 13540   0.803E-01    0.518E+00
RMM:   4    -0.710150977580E+03    0.11414E+00   -0.54466E-02 13657   0.410E-01    0.308E+00
RMM:   5    -0.710119541288E+03    0.31436E-01   -0.21906E-02 13525   0.268E-01    0.168E+00
RMM:   6    -0.710113505214E+03    0.60361E-02   -0.14938E-02 14261   0.175E-01    0.121E+00
RMM:   7    -0.710109783344E+03    0.37219E-02   -0.57606E-03 13481   0.133E-01    0.778E-01
RMM:   8    -0.710107790702E+03    0.19926E-02   -0.37661E-03 13041   0.989E-02    0.385E-01
RMM:   9    -0.710107590354E+03    0.20035E-03   -0.12155E-03 12703   0.579E-02    0.282E-01
RMM:  10    -0.710107499140E+03    0.91214E-04   -0.34868E-04 10001   0.314E-02
  13 F= -.71010750E+03 E0= -.70949494E+03  d E =-.644141E-01  mag=     5.7347
 trial-energy change:   -0.064414  1 .order   -0.274186   -0.434023   -0.114349
 step:   0.2778(harm=  0.2778)  dis= 0.08299  next Energy=  -710.337722 (dE=-0.295E+00)
 bond charge predicted
       N       E                     dE             d eps       ncg     rms          rms(c)
DAV:   1    -0.710071348996E+03    0.36241E-01   -0.71451E+00 13664   0.401E+00    0.941E-01
RMM:   2    -0.710095186611E+03   -0.23838E-01   -0.17171E-01 13440   0.630E-01    0.166E+00
RMM:   3    -0.710096088123E+03   -0.90151E-03   -0.21990E-02 13459   0.276E-01    0.139E+00
RMM:   4    -0.710096788602E+03   -0.70048E-03   -0.72550E-03 13791   0.143E-01    0.150E+00
RMM:   5    -0.710086581443E+03    0.10207E-01   -0.25110E-03 12968   0.933E-02    0.510E-01
RMM:   6    -0.710086215197E+03    0.36625E-03   -0.16018E-03 13096   0.621E-02    0.377E-01
RMM:   7    -0.710085991804E+03    0.22339E-03   -0.67816E-04 11915   0.462E-02    0.242E-01
RMM:   8    -0.710085787360E+03    0.20444E-03   -0.43714E-04 10666   0.350E-02    0.153E-01
RMM:   9    -0.710085651946E+03    0.13541E-03   -0.13803E-04  8337   0.226E-02    0.107E-01
RMM:  10    -0.710085598114E+03    0.53833E-04   -0.44620E-05  7654   0.133E-02
  14 F= -.71008560E+03 E0= -.70947269E+03  d E =-.425131E-01  mag=     5.7524
 curvature:  -0.48 expect dE=-0.125E+01 dE for cont linesearch -0.547E-01
 ZBRENT: interpolating
 opt :   0.2324  next Energy=  -710.115261 (dE=-0.722E-01)
 bond charge predicted
       N       E                     dE             d eps       ncg     rms          rms(c)
DAV:   1    -0.710107307584E+03   -0.21656E-01   -0.27481E+00 13648   0.250E+00    0.611E-01
RMM:   2    -0.710123273404E+03   -0.15966E-01   -0.67307E-02 13440   0.396E-01    0.155E+00
RMM:   3    -0.710121298041E+03    0.19754E-02   -0.93243E-03 13464   0.178E-01    0.127E+00
RMM:   4    -0.710113739757E+03    0.75583E-02   -0.28355E-03 13299   0.950E-02    0.609E-01
RMM:   5    -0.710112424854E+03    0.13149E-02   -0.12425E-03 12567   0.636E-02    0.330E-01
RMM:   6    -0.710112291165E+03    0.13369E-03   -0.54322E-04 11526   0.393E-02    0.253E-01
RMM:   7    -0.710112097951E+03    0.19321E-03   -0.29011E-04  9599   0.308E-02    0.138E-01
RMM:   8    -0.710112208626E+03   -0.11068E-03   -0.18500E-04  8348   0.239E-02    0.899E-02
RMM:   9    -0.710112248787E+03   -0.40161E-04   -0.53272E-05  7332   0.156E-02
  15 F= -.71011225E+03 E0= -.70949961E+03  d E =-.691637E-01  mag=     5.7638
 curvature:  -0.07 expect dE=-0.160E+00 dE for cont linesearch -0.457E-03
 trial: gam= 0.67880 g(F)=  0.234E+01 g(S)=  0.000E+00 ort =-0.222E+00 (trialstep = 0.210E+00)
 search vector abs. value=  0.543E+01
 bond charge predicted
       N       E                     dE             d eps       ncg     rms          rms(c)
DAV:   1    -0.710021758646E+03    0.90450E-01   -0.50676E+01 13440   0.110E+01    0.218E+00
RMM:   2    -0.710153658207E+03   -0.13190E+00   -0.12700E+00 13440   0.183E+00    0.269E+00
RMM:   3    -0.710139864470E+03    0.13794E-01   -0.14976E-01 13576   0.726E-01    0.115E+00
RMM:   4    -0.710224453169E+03   -0.84589E-01   -0.48674E-02 14189   0.366E-01    0.381E+00
RMM:   5    -0.710151408005E+03    0.73045E-01   -0.15431E-02 13510   0.222E-01    0.193E+00
RMM:   6    -0.710139102180E+03    0.12306E-01   -0.72766E-03 13563   0.145E-01    0.693E-01
RMM:   7    -0.710139208689E+03   -0.10651E-03   -0.54059E-03 13411   0.114E-01    0.560E-01
RMM:   8    -0.710139392470E+03   -0.18378E-03   -0.22993E-03 12929   0.863E-02    0.477E-01
RMM:   9    -0.710138818097E+03    0.57437E-03   -0.78068E-04 12381   0.482E-02    0.229E-01
RMM:  10    -0.710138753761E+03    0.64336E-04   -0.32213E-04  9730   0.264E-02
  16 F= -.71013875E+03 E0= -.70952547E+03  d E =-.265050E-01  mag=     5.7793
 trial-energy change:   -0.026505  1 .order   -0.187552   -0.459526    0.084422
 step:   0.1775(harm=  0.1775)  dis= 0.05152  next Energy=  -710.306352 (dE=-0.194E+00)
 bond charge predicted
       N       E                     dE             d eps       ncg     rms          rms(c)
DAV:   1    -0.710155336849E+03   -0.16519E-01   -0.12198E+00 13888   0.171E+00    0.378E-01
RMM:   2    -0.710163197443E+03   -0.78606E-02   -0.29919E-02 13440   0.286E-01    0.108E+00
RMM:   3    -0.710161062814E+03    0.21346E-02   -0.44674E-03 13500   0.127E-01    0.765E-01
RMM:   4    -0.710157963894E+03    0.30989E-02   -0.12933E-03 12838   0.651E-02    0.283E-01
RMM:   5    -0.710157713608E+03    0.25029E-03   -0.48048E-04 11230   0.401E-02    0.223E-01
RMM:   6    -0.710157418737E+03    0.29487E-03   -0.26162E-04  8959   0.276E-02    0.169E-01
RMM:   7    -0.710157321371E+03    0.97365E-04   -0.15116E-04  7814   0.232E-02    0.873E-02
RMM:   8    -0.710157349664E+03   -0.28293E-04   -0.97263E-05  7440   0.169E-02
  17 F= -.71015735E+03 E0= -.70954405E+03  d E =-.451009E-01  mag=     5.7903
 curvature:  -0.22 expect dE=-0.489E+00 dE for cont linesearch -0.202E-01
 ZBRENT: interpolating
 opt :   0.1343  next Energy=  -710.172595 (dE=-0.603E-01)
 bond charge predicted
       N       E                     dE             d eps       ncg     rms          rms(c)
DAV:   1    -0.710165019786E+03   -0.76984E-02   -0.21518E+00 13536   0.227E+00    0.455E-01
RMM:   2    -0.710169817243E+03   -0.47975E-02   -0.50518E-02 13440   0.374E-01    0.508E-01
RMM:   3    -0.710170018893E+03   -0.20165E-03   -0.63004E-03 13544   0.148E-01    0.282E-01
RMM:   4    -0.710175186575E+03   -0.51677E-02   -0.22568E-03 13937   0.763E-02    0.938E-01
RMM:   5    -0.710170058936E+03    0.51276E-02   -0.75849E-04 12416   0.496E-02    0.378E-01
RMM:   6    -0.710169815115E+03    0.24382E-03   -0.36373E-04 10376   0.319E-02    0.148E-01
RMM:   7    -0.710169976497E+03   -0.16138E-03   -0.25017E-04  8761   0.255E-02    0.129E-01
RMM:   8    -0.710170084483E+03   -0.10799E-03   -0.10896E-04  8003   0.203E-02    0.972E-02
RMM:   9    -0.710170137459E+03   -0.52976E-04   -0.37298E-05  7678   0.126E-02
  18 F= -.71017014E+03 E0= -.70955688E+03  d E =-.578887E-01  mag=     5.7987
 curvature:  -0.17 expect dE=-0.264E+00 dE for cont linesearch -0.740E-04
 trial: gam= 0.38728 g(F)=  0.158E+01 g(S)=  0.000E+00 ort = 0.491E-01 (trialstep = 0.195E+00)
 search vector abs. value=  0.244E+01
 bond charge predicted
       N       E                     dE             d eps       ncg     rms          rms(c)
DAV:   1    -0.710219082538E+03   -0.48998E-01   -0.22527E+01 13440   0.756E+00    0.134E+00
RMM:   2    -0.710324803786E+03   -0.10572E+00   -0.57328E-01 13440   0.133E+00    0.367E+00
RMM:   3    -0.710287002458E+03    0.37801E-01   -0.78407E-02 13759   0.532E-01    0.210E+00
RMM:   4    -0.710294463519E+03   -0.74611E-02   -0.22597E-02 14267   0.261E-01    0.226E+00
RMM:   5    -0.710276708054E+03    0.17755E-01   -0.13170E-02 13606   0.182E-01    0.161E+00
RMM:   6    -0.710269882427E+03    0.68256E-02   -0.37092E-03 13215   0.118E-01    0.922E-01
RMM:   7    -0.710271641373E+03   -0.17589E-02   -0.41021E-03 13697   0.996E-02    0.923E-01
RMM:   8    -0.710267795413E+03    0.38460E-02   -0.26962E-03 13311   0.921E-02    0.426E-01
RMM:   9    -0.710267929289E+03   -0.13388E-03   -0.82837E-04 12560   0.463E-02    0.285E-01
RMM:  10    -0.710268167197E+03   -0.23791E-03   -0.32276E-04  9861   0.278E-02    0.241E-01
RMM:  11    -0.710268344882E+03   -0.17769E-03   -0.12003E-04  8210   0.198E-02    0.174E-01
RMM:  12    -0.710268648321E+03   -0.30344E-03   -0.13951E-04  8270   0.173E-02    0.101E-01
RMM:  13    -0.710268776941E+03   -0.12862E-03   -0.46554E-05  7880   0.133E-02    0.564E-02
RMM:  14    -0.710268877368E+03   -0.10043E-03   -0.17508E-05  7250   0.796E-03    0.347E-02
RMM:  15    -0.710268995704E+03   -0.11834E-03   -0.70121E-06  6403   0.503E-03    0.282E-02
RMM:  16    -0.710269086576E+03   -0.90871E-04   -0.30684E-06  4749   0.351E-03
  19 F= -.71026909E+03 E0= -.70965582E+03  d E =-.989491E-01  mag=     5.7899
 trial-energy change:   -0.098949  1 .order   -0.113861   -0.312313    0.084591
 step:   0.1451(harm=  0.1534)  dis= 0.01860  next Energy=  -710.280168 (dE=-0.110E+00)
 bond charge predicted
       N       E                     dE             d eps       ncg     rms          rms(c)
DAV:   1    -0.710275731282E+03   -0.67356E-02   -0.14814E+00 13904   0.193E+00    0.338E-01
RMM:   2    -0.710282480411E+03   -0.67491E-02   -0.36646E-02 13440   0.338E-01    0.960E-01
RMM:   3    -0.710279885249E+03    0.25952E-02   -0.50629E-03 13627   0.136E-01    0.511E-01
RMM:   4    -0.710280451767E+03   -0.56652E-03   -0.15430E-03 13921   0.663E-02    0.543E-01
RMM:   5    -0.710279504851E+03    0.94692E-03   -0.54821E-04 12032   0.412E-02    0.382E-01
RMM:   6    -0.710279240038E+03    0.26481E-03   -0.27022E-04  9291   0.307E-02    0.266E-01
RMM:   7    -0.710279229612E+03    0.10427E-04   -0.30059E-04  9547   0.293E-02    0.193E-01
RMM:   8    -0.710279125391E+03    0.10422E-03   -0.18936E-04  8313   0.242E-02    0.107E-01
RMM:   9    -0.710279158858E+03   -0.33467E-04   -0.48229E-05  7529   0.141E-02
  20 F= -.71027916E+03 E0= -.70966581E+03  d E =-.109021E+00  mag=     5.7918
 curvature:  -0.11 expect dE=-0.164E+00 dE for cont linesearch -0.910E-06
 trial: gam= 0.78555 g(F)=  0.147E+01 g(S)=  0.000E+00 ort = 0.445E-02 (trialstep = 0.151E+00)
 search vector abs. value=  0.298E+01
 bond charge predicted
       N       E                     dE             d eps       ncg     rms          rms(c)
DAV:   1    -0.710327393190E+03   -0.48268E-01   -0.15183E+01 13712   0.612E+00    0.134E+00
RMM:   2    -0.710458608974E+03   -0.13122E+00   -0.44168E-01 13440   0.110E+00    0.460E+00
RMM:   3    -0.710388837221E+03    0.69772E-01   -0.62026E-02 13540   0.476E-01    0.260E+00
RMM:   4    -0.710367116756E+03    0.21720E-01   -0.18688E-02 14199   0.232E-01    0.153E+00
RMM:   5    -0.710359740626E+03    0.73761E-02   -0.10146E-02 13592   0.158E-01    0.117E+00
RMM:   6    -0.710356899345E+03    0.28413E-02   -0.37760E-03 13312   0.108E-01    0.767E-01
RMM:   7    -0.710357020793E+03   -0.12145E-03   -0.31356E-03 13292   0.877E-02    0.611E-01
RMM:   8    -0.710355548746E+03    0.14720E-02   -0.31545E-03 13482   0.833E-02    0.305E-01
RMM:   9    -0.710355427767E+03    0.12098E-03   -0.67254E-04 12056   0.411E-02    0.198E-01
RMM:  10    -0.710355389308E+03    0.38459E-04   -0.17778E-04  8541   0.234E-02
  21 F= -.71035539E+03 E0= -.70974310E+03  d E =-.762305E-01  mag=     5.7912
 trial-energy change:   -0.076230  1 .order   -0.074748   -0.222771    0.073276
 step:   0.1146(harm=  0.1138)  dis= 0.01420  next Energy=  -710.364235 (dE=-0.851E-01)
 bond charge predicted
       N       E                     dE             d eps       ncg     rms          rms(c)
DAV:   1    -0.710362965609E+03   -0.75378E-02   -0.88797E-01 14112   0.147E+00    0.361E-01
RMM:   2    -0.710370572942E+03   -0.76073E-02   -0.24522E-02 13441   0.263E-01    0.116E+00
RMM:   3    -0.710366855867E+03    0.37171E-02   -0.37482E-03 13340   0.121E-01    0.700E-01
RMM:   4    -0.710364826261E+03    0.20296E-02   -0.11984E-03 13188   0.576E-02    0.316E-01
RMM:   5    -0.710364572889E+03    0.25337E-03   -0.38271E-04 10343   0.340E-02    0.231E-01
RMM:   6    -0.710364584838E+03   -0.11949E-04   -0.25497E-04  9072   0.286E-02    0.224E-01
RMM:   7    -0.710364419872E+03    0.16497E-03   -0.19911E-04  8307   0.248E-02    0.118E-01
RMM:   8    -0.710364372442E+03    0.47429E-04   -0.13108E-04  7644   0.190E-02
  22 F= -.71036437E+03 E0= -.70975187E+03  d E =-.852136E-01  mag=     5.7932
 curvature:  -0.12 expect dE=-0.145E+00 dE for cont linesearch -0.439E-04
 trial: gam= 0.49365 g(F)=  0.126E+01 g(S)=  0.000E+00 ort =-0.337E-01 (trialstep = 0.144E+00)
 search vector abs. value=  0.195E+01
 bond charge predicted
       N       E                     dE             d eps       ncg     rms          rms(c)
DAV:   1    -0.710412280178E+03   -0.47860E-01   -0.91816E+00 13472   0.465E+00    0.104E+00
RMM:   2    -0.710438163773E+03   -0.25884E-01   -0.21394E-01 13440   0.762E-01    0.208E+00
RMM:   3    -0.710433591976E+03    0.45718E-02   -0.34285E-02 13745   0.333E-01    0.124E+00
RMM:   4    -0.710441381284E+03   -0.77893E-02   -0.10737E-02 14598   0.161E-01    0.162E+00
RMM:   5    -0.710428047558E+03    0.13334E-01   -0.45307E-03 13341   0.110E-01    0.749E-01
RMM:   6    -0.710427205756E+03    0.84180E-03   -0.23894E-03 12889   0.770E-02    0.472E-01
RMM:   7    -0.710426834790E+03    0.37097E-03   -0.10195E-03 12538   0.545E-02    0.286E-01
RMM:   8    -0.710426729572E+03    0.10522E-03   -0.75789E-04 12225   0.457E-02    0.249E-01
RMM:   9    -0.710426493029E+03    0.23654E-03   -0.26749E-04  9351   0.297E-02    0.128E-01
RMM:  10    -0.710426577919E+03   -0.84890E-04   -0.95238E-05  7998   0.189E-02
  23 F= -.71042658E+03 E0= -.70981558E+03  d E =-.622055E-01  mag=     5.7987
 trial-energy change:   -0.062205  1 .order   -0.078693   -0.178520    0.021134
 step:   0.1182(harm=  0.1287)  dis= 0.01240  next Energy=  -710.428558 (dE=-0.642E-01)
 bond charge predicted
       N       E                     dE             d eps       ncg     rms          rms(c)
DAV:   1    -0.710429001957E+03   -0.25089E-02   -0.29188E-01 14000   0.828E-01    0.208E-01
RMM:   2    -0.710430784768E+03   -0.17828E-02   -0.69143E-03 13432   0.136E-01    0.502E-01
RMM:   3    -0.710430849928E+03   -0.65160E-04   -0.12807E-03 12940   0.655E-02    0.449E-01
RMM:   4    -0.710429838493E+03    0.10114E-02   -0.35960E-04  9433   0.316E-02    0.133E-01
RMM:   5    -0.710429865270E+03   -0.26777E-04   -0.15058E-04  7700   0.225E-02    0.113E-01
RMM:   6    -0.710429968487E+03   -0.10322E-03   -0.72805E-05  7270   0.141E-02    0.809E-02
RMM:   7    -0.710430058820E+03   -0.90333E-04   -0.43814E-05  7191   0.120E-02    0.664E-02
RMM:   8    -0.710430108975E+03   -0.50155E-04   -0.24955E-05  6640   0.969E-03
  24 F= -.71043011E+03 E0= -.70981879E+03  d E =-.657365E-01  mag=     5.8018
 curvature:  -0.05 expect dE=-0.284E-01 dE for cont linesearch -0.811E-04
 trial: gam= 0.28066 g(F)=  0.530E+00 g(S)=  0.000E+00 ort =-0.544E-01 (trialstep = 0.139E+00)
 search vector abs. value=  0.654E+00
 bond charge predicted
       N       E                     dE             d eps       ncg     rms          rms(c)
DAV:   1    -0.710452140050E+03   -0.22081E-01   -0.30757E+00 13664   0.279E+00    0.426E-01
RMM:   2    -0.710458046890E+03   -0.59068E-02   -0.58955E-02 13440   0.443E-01    0.688E-01
RMM:   3    -0.710459274034E+03   -0.12271E-02   -0.89680E-03 13812   0.180E-01    0.520E-01
RMM:   4    -0.710461917326E+03   -0.26433E-02   -0.25545E-03 14016   0.880E-02    0.857E-01
RMM:   5    -0.710458432987E+03    0.34843E-02   -0.81572E-04 12424   0.538E-02    0.368E-01
RMM:   6    -0.710458189521E+03    0.24347E-03   -0.52257E-04 11557   0.373E-02    0.182E-01
RMM:   7    -0.710458283728E+03   -0.94207E-04   -0.30284E-04  9793   0.294E-02    0.178E-01
RMM:   8    -0.710458202231E+03    0.81498E-04   -0.15261E-04  8211   0.244E-02
  25 F= -.71045820E+03 E0= -.70984741E+03  d E =-.280933E-01  mag=     5.7995
 trial-energy change:   -0.028093  1 .order   -0.033240   -0.071498    0.005018
 step:   0.1245(harm=  0.1297)  dis= 0.00888  next Energy=  -710.458466 (dE=-0.284E-01)
 bond charge predicted
       N       E                     dE             d eps       ncg     rms          rms(c)
DAV:   1    -0.710458549781E+03   -0.26605E-03   -0.33026E-02 14064   0.291E-01    0.810E-02
RMM:   2    -0.710458988296E+03   -0.43851E-03   -0.75541E-04 12536   0.499E-02    0.266E-01
RMM:   3    -0.710458875794E+03    0.11250E-03   -0.15582E-04  7728   0.260E-02    0.188E-01
RMM:   4    -0.710458688307E+03    0.18749E-03   -0.44095E-05  7324   0.139E-02    0.477E-02
RMM:   5    -0.710458704265E+03   -0.15958E-04   -0.14309E-05  6982   0.781E-03    0.312E-02
RMM:   6    -0.710458715128E+03   -0.10864E-04   -0.69265E-06  6108   0.497E-03    0.241E-02
RMM:   7    -0.710458733996E+03   -0.18867E-04   -0.54937E-06  6097   0.455E-03    0.240E-02
RMM:   8    -0.710458744472E+03   -0.10477E-04   -0.25278E-06  4483   0.360E-03
  26 F= -.71045874E+03 E0= -.70984765E+03  d E =-.286355E-01  mag=     5.7975
 curvature:  -0.06 expect dE=-0.267E-01 dE for cont linesearch -0.170E-04
 trial: gam= 0.88385 g(F)=  0.480E+00 g(S)=  0.000E+00 ort =-0.141E-01 (trialstep = 0.920E-01)
 search vector abs. value=  0.965E+00
 bond charge predicted
       N       E                     dE             d eps       ncg     rms          rms(c)
DAV:   1    -0.710486140310E+03   -0.27406E-01   -0.19760E+00 13840   0.218E+00    0.341E-01
RMM:   2    -0.710491330098E+03   -0.51898E-02   -0.37660E-02 13440   0.344E-01    0.721E-01
RMM:   3    -0.710491135793E+03    0.19430E-03   -0.57197E-03 13739   0.140E-01    0.508E-01
RMM:   4    -0.710491237204E+03   -0.10141E-03   -0.16005E-03 13530   0.702E-02    0.553E-01
RMM:   5    -0.710490007750E+03    0.12295E-02   -0.50750E-04 11638   0.427E-02    0.291E-01
RMM:   6    -0.710489795314E+03    0.21244E-03   -0.30026E-04  9568   0.293E-02    0.180E-01
RMM:   7    -0.710489715139E+03    0.80175E-04   -0.20897E-04  8795   0.261E-02    0.129E-01
RMM:   8    -0.710489631116E+03    0.84023E-04   -0.10453E-04  7925   0.196E-02
  27 F= -.71048963E+03 E0= -.70987824E+03  d E =-.308866E-01  mag=     5.7926
 trial-energy change:   -0.030887  1 .order   -0.026351   -0.042998   -0.009704
 step:   0.1058(harm=  0.1188)  dis= 0.00820  next Energy=  -710.490375 (dE=-0.316E-01)
 bond charge predicted
       N       E                     dE             d eps       ncg     rms          rms(c)
DAV:   1    -0.710490381061E+03   -0.66592E-03   -0.44440E-02 14096   0.328E-01    0.682E-02
RMM:   2    -0.710490580572E+03   -0.19951E-03   -0.91913E-04 12206   0.539E-02    0.141E-01
RMM:   3    -0.710490630297E+03   -0.49725E-04   -0.16977E-04  8149   0.244E-02    0.177E-01
RMM:   4    -0.710490478808E+03    0.15149E-03   -0.48394E-05  7453   0.151E-02    0.629E-02
RMM:   5    -0.710490469134E+03    0.96745E-05   -0.13616E-05  6904   0.737E-03    0.367E-02
RMM:   6    -0.710490465304E+03    0.38298E-05   -0.88620E-06  6255   0.548E-03    0.385E-02
RMM:   7    -0.710490463199E+03    0.21052E-05   -0.66372E-06  6208   0.528E-03    0.322E-02
RMM:   8    -0.710490459979E+03    0.32196E-05   -0.21959E-06  4473   0.365E-03
  28 F= -.71049046E+03 E0= -.70987901E+03  d E =-.317155E-01  mag=     5.7878
 curvature:  -0.09 expect dE=-0.319E-01 dE for cont linesearch -0.489E-04
 trial: gam= 0.40496 g(F)=  0.340E+00 g(S)=  0.000E+00 ort = 0.224E-01 (trialstep = 0.948E-01)
 search vector abs. value=  0.516E+00
 bond charge predicted
       N       E                     dE             d eps       ncg     rms          rms(c)
DAV:   1    -0.710508741914E+03   -0.18279E-01   -0.11077E+00 13872   0.166E+00    0.256E-01
RMM:   2    -0.710511237240E+03   -0.24953E-02   -0.21885E-02 13440   0.269E-01    0.530E-01
RMM:   3    -0.710511081776E+03    0.15546E-03   -0.33312E-03 14012   0.107E-01    0.284E-01
RMM:   4    -0.710512815484E+03   -0.17337E-02   -0.89101E-04 12953   0.516E-02    0.606E-01
RMM:   5    -0.710511023463E+03    0.17920E-02   -0.34632E-04 10164   0.342E-02    0.282E-01
RMM:   6    -0.710510872746E+03    0.15072E-03   -0.17555E-04  8395   0.230E-02    0.165E-01
RMM:   7    -0.710510803941E+03    0.68805E-04   -0.13007E-04  8078   0.202E-02    0.131E-01
RMM:   8    -0.710510791041E+03    0.12900E-04   -0.48486E-05  7506   0.142E-02
  29 F= -.71051079E+03 E0= -.70989892E+03  d E =-.203311E-01  mag=     5.7813
 trial-energy change:   -0.020331  1 .order   -0.019167   -0.033071   -0.005264
 step:   0.1087(harm=  0.1127)  dis= 0.00325  next Energy=  -710.511182 (dE=-0.207E-01)
 bond charge predicted
       N       E                     dE             d eps       ncg     rms          rms(c)
DAV:   1    -0.710511164583E+03   -0.36064E-03   -0.23802E-02 14080   0.244E-01    0.101E-01
RMM:   2    -0.710511777948E+03   -0.61337E-03   -0.59812E-04 11401   0.436E-02    0.298E-01
RMM:   3    -0.710511491689E+03    0.28626E-03   -0.16005E-04  7764   0.249E-02    0.229E-01
RMM:   4    -0.710511309692E+03    0.18200E-03   -0.71537E-05  7382   0.169E-02    0.145E-01
RMM:   5    -0.710511270009E+03    0.39683E-04   -0.16487E-05  6825   0.891E-03    0.845E-02
RMM:   6    -0.710511285986E+03   -0.15977E-04   -0.12427E-05  6388   0.572E-03    0.667E-02
RMM:   7    -0.710511273431E+03    0.12555E-04   -0.84081E-06  6301   0.606E-03    0.368E-02
RMM:   8    -0.710511279718E+03   -0.62862E-05   -0.22323E-06  4584   0.360E-03
  30 F= -.71051128E+03 E0= -.70989930E+03  d E =-.208197E-01  mag=     5.7758
 curvature:  -0.08 expect dE=-0.259E-01 dE for cont linesearch -0.759E-05
 trial: gam= 0.75997 g(F)=  0.327E+00 g(S)=  0.000E+00 ort = 0.703E-02 (trialstep = 0.793E-01)
 search vector abs. value=  0.636E+00
 bond charge predicted
       N       E                     dE             d eps       ncg     rms          rms(c)
DAV:   1    -0.710525227724E+03   -0.13954E-01   -0.92556E-01 13744   0.148E+00    0.220E-01
RMM:   2    -0.710526908422E+03   -0.16807E-02   -0.16717E-02 13440   0.222E-01    0.320E-01
RMM:   3    -0.710527116540E+03   -0.20812E-03   -0.23606E-03 13591   0.892E-02    0.178E-01
RMM:   4    -0.710528856977E+03   -0.17404E-02   -0.76775E-04 12548   0.449E-02    0.584E-01
RMM:   5    -0.710527074691E+03    0.17823E-02   -0.24742E-04  8964   0.299E-02    0.203E-01
RMM:   6    -0.710526963366E+03    0.11133E-03   -0.13418E-04  8119   0.213E-02    0.905E-02
RMM:   7    -0.710526959633E+03    0.37336E-05   -0.73068E-05  7599   0.156E-02    0.732E-02
RMM:   8    -0.710526958430E+03    0.12022E-05   -0.31186E-05  7080   0.114E-02
  31 F= -.71052696E+03 E0= -.70991470E+03  d E =-.156787E-01  mag=     5.7698
 trial-energy change:   -0.015679  1 .order   -0.015223   -0.026315   -0.004130
 step:   0.0922(harm=  0.0940)  dis= 0.00418  next Energy=  -710.527297 (dE=-0.160E-01)
 bond charge predicted
       N       E                     dE             d eps       ncg     rms          rms(c)
DAV:   1    -0.710527293210E+03   -0.33358E-03   -0.24428E-02 14128   0.240E-01    0.540E-02
RMM:   2    -0.710527417936E+03   -0.12473E-03   -0.47583E-04  9558   0.374E-02    0.102E-01
RMM:   3    -0.710527464472E+03   -0.46536E-04   -0.82953E-05  7386   0.184E-02    0.134E-01
RMM:   4    -0.710527391663E+03    0.72808E-04   -0.25010E-05  7071   0.104E-02    0.488E-02
RMM:   5    -0.710527397482E+03   -0.58187E-05   -0.73571E-06  6271   0.577E-03    0.192E-02
RMM:   6    -0.710527424242E+03   -0.26760E-04   -0.55921E-06  5620   0.441E-03    0.398E-02
RMM:   7    -0.710527435569E+03   -0.11328E-04   -0.32947E-06  5261   0.422E-03    0.232E-02
RMM:   8    -0.710527450010E+03   -0.14441E-04   -0.39708E-07  2300   0.261E-03
  32 F= -.71052745E+03 E0= -.70991512E+03  d E =-.161703E-01  mag=     5.7648
 curvature:  -0.09 expect dE=-0.148E-01 dE for cont linesearch -0.127E-04
 trial: gam= 0.20895 g(F)=  0.167E+00 g(S)=  0.000E+00 ort = 0.953E-02 (trialstep = 0.818E-01)
 search vector abs. value=  0.198E+00
 bond charge predicted
       N       E                     dE             d eps       ncg     rms          rms(c)
DAV:   1    -0.710534870568E+03   -0.74350E-02   -0.30048E-01 13696   0.867E-01    0.132E-01
RMM:   2    -0.710535451309E+03   -0.58074E-03   -0.58585E-03 13440   0.143E-01    0.226E-01
RMM:   3    -0.710535520960E+03   -0.69651E-04   -0.92029E-04 13028   0.564E-02    0.132E-01
RMM:   4    -0.710536047614E+03   -0.52665E-03   -0.25691E-04  8759   0.280E-02    0.319E-01
RMM:   5    -0.710535560101E+03    0.48751E-03   -0.11180E-04  7741   0.227E-02    0.138E-01
RMM:   6    -0.710535556522E+03    0.35793E-05   -0.47606E-05  7363   0.126E-02    0.681E-02
RMM:   7    -0.710535603196E+03   -0.46675E-04   -0.32766E-05  7137   0.104E-02    0.521E-02
RMM:   8    -0.710535623943E+03   -0.20746E-04   -0.14604E-05  6618   0.785E-03
  33 F= -.71053562E+03 E0= -.70992330E+03  d E =-.817393E-02  mag=     5.7617
 trial-energy change:   -0.008174  1 .order   -0.007776   -0.013795   -0.001758
 step:   0.0938(harm=  0.0938)  dis= 0.00238  next Energy=  -710.535354 (dE=-0.790E-02)
 bond charge predicted
       N       E                     dE             d eps       ncg     rms          rms(c)
DAV:   1    -0.710535745748E+03   -0.14255E-03   -0.63737E-03 13920   0.127E-01    0.381E-02
RMM:   2    -0.710535786397E+03   -0.40649E-04   -0.14223E-04  7491   0.220E-02    0.331E-02
RMM:   3    -0.710535805149E+03   -0.18753E-04   -0.29896E-05  7175   0.122E-02    0.559E-02
RMM:   4    -0.710535812325E+03   -0.71754E-05   -0.66230E-06  6393   0.552E-03    0.368E-02
RMM:   5    -0.710535835393E+03   -0.23068E-04   -0.30419E-06  4936   0.361E-03    0.586E-02
RMM:   6    -0.710535846529E+03   -0.11136E-04   -0.32445E-06  4929   0.384E-03    0.283E-02
RMM:   7    -0.710535858506E+03   -0.11977E-04   -0.12851E-06  3698   0.334E-03    0.112E-02
RMM:   8    -0.710535868277E+03   -0.97705E-05   -0.35262E-08  1595   0.252E-03
  34 F= -.71053587E+03 E0= -.70992353E+03  d E =-.841827E-02  mag=     5.7597
 curvature:  -0.06 expect dE=-0.360E-02 dE for cont linesearch -0.149E-07
 trial: gam= 0.36413 g(F)=  0.653E-01 g(S)=  0.000E+00 ort =-0.231E-03 (trialstep = 0.842E-01)
 search vector abs. value=  0.914E-01
 bond charge predicted
       N       E                     dE             d eps       ncg     rms          rms(c)
DAV:   1    -0.710539286998E+03   -0.34285E-02   -0.13494E-01 13888   0.561E-01    0.111E-01
RMM:   2    -0.710539894668E+03   -0.60767E-03   -0.30730E-03 13390   0.977E-02    0.323E-01
RMM:   3    -0.710539653005E+03    0.24166E-03   -0.50712E-04 11270   0.414E-02    0.154E-01
RMM:   4    -0.710539754389E+03   -0.10138E-03   -0.14877E-04  8011   0.221E-02    0.216E-01
RMM:   5    -0.710539619446E+03    0.13494E-03   -0.78535E-05  7444   0.177E-02    0.134E-01
RMM:   6    -0.710539570103E+03    0.49343E-04   -0.30914E-05  7090   0.108E-02    0.731E-02
RMM:   7    -0.710539578456E+03   -0.83529E-05   -0.22578E-05  6913   0.865E-03    0.567E-02
RMM:   8    -0.710539585383E+03   -0.69275E-05   -0.13294E-05  6519   0.723E-03
  35 F= -.71053959E+03 E0= -.70992703E+03  d E =-.371711E-02  mag=     5.7584
 trial-energy change:   -0.003717  1 .order   -0.003637   -0.005490   -0.001784
 step:   0.1248(harm=  0.1248)  dis= 0.00288  next Energy=  -710.539934 (dE=-0.407E-02)
 bond charge predicted
       N       E                     dE             d eps       ncg     rms          rms(c)
DAV:   1    -0.710539987917E+03   -0.40946E-03   -0.31183E-02 14064   0.270E-01    0.534E-02
RMM:   2    -0.710540080552E+03   -0.92635E-04   -0.70436E-04 11596   0.469E-02    0.986E-02
RMM:   3    -0.710540071254E+03    0.92981E-05   -0.10876E-04  7423   0.200E-02    0.347E-02
RMM:   4    -0.710540184898E+03   -0.11364E-03   -0.39576E-05  7204   0.125E-02    0.146E-01
RMM:   5    -0.710540089030E+03    0.95868E-04   -0.13103E-05  6632   0.744E-03    0.479E-02
RMM:   6    -0.710540093029E+03   -0.39991E-05   -0.64641E-06  6025   0.476E-03    0.281E-02
RMM:   7    -0.710540107934E+03   -0.14905E-04   -0.39538E-06  5277   0.400E-03    0.331E-02
RMM:   8    -0.710540114247E+03   -0.63129E-05   -0.12240E-06  3470   0.331E-03
  36 F= -.71054011E+03 E0= -.70992752E+03  d E =-.424597E-02  mag=     5.7579
 curvature:  -0.09 expect dE=-0.518E-02 dE for cont linesearch -0.391E-05
 trial: gam= 0.81097 g(F)=  0.593E-01 g(S)=  0.000E+00 ort = 0.202E-02 (trialstep = 0.688E-01)
 search vector abs. value=  0.123E+00
 bond charge predicted
       N       E                     dE             d eps       ncg     rms          rms(c)
DAV:   1    -0.710543673281E+03   -0.35653E-02   -0.10772E-01 14048   0.488E-01    0.107E-01
RMM:   2    -0.710544113986E+03   -0.44071E-03   -0.26944E-03 13296   0.913E-02    0.296E-01
RMM:   3    -0.710543947132E+03    0.16685E-03   -0.45339E-04 10430   0.376E-02    0.149E-01
RMM:   4    -0.710544377658E+03   -0.43053E-03   -0.14400E-04  8000   0.215E-02    0.320E-01
RMM:   5    -0.710543925447E+03    0.45221E-03   -0.82493E-05  7488   0.176E-02    0.136E-01
RMM:   6    -0.710543886649E+03    0.38798E-04   -0.35630E-05  7079   0.111E-02    0.788E-02
RMM:   7    -0.710543884223E+03    0.24260E-05   -0.23526E-05  6864   0.854E-03    0.649E-02
RMM:   8    -0.710543883725E+03    0.49772E-06   -0.11755E-05  6465   0.694E-03
  37 F= -.71054388E+03 E0= -.70993107E+03  d E =-.376948E-02  mag=     5.7568
 trial-energy change:   -0.003769  1 .order   -0.003579   -0.004190   -0.002968
 step:   0.2358(harm=  0.2358)  dis= 0.00664  next Energy=  -710.547296 (dE=-0.718E-02)
 bond charge predicted
       N       E                     dE             d eps       ncg     rms          rms(c)
DAV:   1    -0.710540853561E+03    0.30307E-02   -0.63433E-01 13888   0.118E+00    0.264E-01
RMM:   2    -0.710543519944E+03   -0.26664E-02   -0.15926E-02 13440   0.221E-01    0.712E-01
RMM:   3    -0.710542473059E+03    0.10469E-02   -0.27643E-03 14252   0.915E-02    0.356E-01
RMM:   4    -0.710544541152E+03   -0.20681E-02   -0.85454E-04 12802   0.447E-02    0.707E-01
RMM:   5    -0.710542293180E+03    0.22480E-02   -0.46118E-04 10997   0.367E-02    0.327E-01
RMM:   6    -0.710542020283E+03    0.27290E-03   -0.20931E-04  8501   0.255E-02    0.189E-01
RMM:   7    -0.710541971059E+03    0.49224E-04   -0.14973E-04  8137   0.204E-02    0.147E-01
RMM:   8    -0.710541958849E+03    0.12210E-04   -0.70294E-05  7707   0.166E-02
  38 F= -.71054196E+03 E0= -.70992856E+03  d E =-.184460E-02  mag=     5.7537
 curvature:  -0.24 expect dE=-0.391E-01 dE for cont linesearch -0.933E-02
 ZBRENT: interpolating
 opt :   0.1328  next Energy=  -710.545264 (dE=-0.515E-02)
 bond charge predicted
       N       E                     dE             d eps       ncg     rms          rms(c)
DAV:   1    -0.710544931182E+03   -0.29601E-02   -0.24191E-01 13984   0.729E-01    0.194E-01
RMM:   2    -0.710547015503E+03   -0.20843E-02   -0.65251E-03 13441   0.141E-01    0.670E-01
RMM:   3    -0.710545817362E+03    0.11981E-02   -0.10384E-03 12655   0.646E-02    0.307E-01
RMM:   4    -0.710545577612E+03    0.23975E-03   -0.38049E-04  9741   0.306E-02    0.242E-01
RMM:   5    -0.710545480441E+03    0.97171E-04   -0.16175E-04  8028   0.236E-02    0.178E-01
RMM:   6    -0.710545441449E+03    0.38992E-04   -0.81581E-05  7574   0.168E-02    0.127E-01
RMM:   7    -0.710545429942E+03    0.11507E-04   -0.48797E-05  7334   0.132E-02    0.841E-02
RMM:   8    -0.710545449088E+03   -0.19146E-04   -0.41919E-05  7005   0.109E-02
  39 F= -.71054545E+03 E0= -.70993270E+03  d E =-.533484E-02  mag=     5.7535
 curvature:  -0.04 expect dE=-0.180E-02 dE for cont linesearch -0.572E-05
 trial: gam= 0.54707 g(F)=  0.514E-01 g(S)=  0.000E+00 ort = 0.447E-02 (trialstep = 0.816E-01)
 search vector abs. value=  0.930E-01
 bond charge predicted
       N       E                     dE             d eps       ncg     rms          rms(c)
DAV:   1    -0.710547954113E+03   -0.25242E-02   -0.10956E-01 13952   0.490E-01    0.124E-01
RMM:   2    -0.710548596970E+03   -0.64286E-03   -0.27605E-03 13325   0.886E-02    0.320E-01
RMM:   3    -0.710548556540E+03    0.40430E-04   -0.56572E-04 11419   0.423E-02    0.271E-01
RMM:   4    -0.710548170701E+03    0.38584E-03   -0.14615E-04  7900   0.216E-02    0.670E-02
RMM:   5    -0.710548169257E+03    0.14438E-05   -0.66405E-05  7338   0.154E-02    0.686E-02
RMM:   6    -0.710548162886E+03    0.63710E-05   -0.39549E-05  6864   0.964E-03    0.603E-02
RMM:   7    -0.710548131488E+03    0.31398E-04   -0.25484E-05  6801   0.846E-03    0.294E-02
RMM:   8    -0.710548133864E+03   -0.23758E-05   -0.10866E-05  6297   0.630E-03
  40 F= -.71054813E+03 E0= -.70993507E+03  d E =-.268478E-02  mag=     5.7524
 trial-energy change:   -0.002685  1 .order   -0.002647   -0.004394   -0.000900
 step:   0.1026(harm=  0.1026)  dis= 0.00277  next Energy=  -710.548212 (dE=-0.276E-02)
 bond charge predicted
       N       E                     dE             d eps       ncg     rms          rms(c)
DAV:   1    -0.710548220391E+03   -0.88903E-04   -0.72214E-03 13680   0.126E-01    0.314E-02
RMM:   2    -0.710548259503E+03   -0.39113E-04   -0.19130E-04  7662   0.229E-02    0.694E-02
RMM:   3    -0.710548264702E+03   -0.51983E-05   -0.36163E-05  7132   0.125E-02    0.701E-02
RMM:   4    -0.710548240673E+03    0.24029E-04   -0.89513E-06  6385   0.596E-03    0.185E-02
RMM:   5    -0.710548240268E+03    0.40497E-06   -0.43866E-06  5545   0.427E-03    0.242E-02
RMM:   6    -0.710548238904E+03    0.13633E-05   -0.12558E-06  2829   0.305E-03    0.154E-02
RMM:   7    -0.710548238722E+03    0.18268E-06   -0.55449E-07  2409   0.299E-03    0.970E-03
RMM:   8    -0.710548240700E+03   -0.19787E-05   -0.35733E-07  1862   0.286E-03
  41 F= -.71054824E+03 E0= -.70993513E+03  d E =-.279161E-02  mag=     5.7513
 curvature:  -0.09 expect dE=-0.258E-02 dE for cont linesearch -0.465E-05
 trial: gam= 0.42118 g(F)=  0.292E-01 g(S)=  0.000E+00 ort =-0.221E-02 (trialstep = 0.858E-01)
 search vector abs. value=  0.438E-01
 bond charge predicted
       N       E                     dE             d eps       ncg     rms          rms(c)
DAV:   1    -0.710549685527E+03   -0.14468E-02   -0.56252E-02 13744   0.357E-01    0.715E-02
RMM:   2    -0.710549832106E+03   -0.14658E-03   -0.12104E-03 13050   0.621E-02    0.992E-02
RMM:   3    -0.710549884234E+03   -0.52128E-04   -0.21535E-04  8013   0.264E-02    0.144E-01
RMM:   4    -0.710549792175E+03    0.92059E-04   -0.56583E-05  7282   0.169E-02    0.564E-02
RMM:   5    -0.710549789700E+03    0.24753E-05   -0.17312E-05  6820   0.785E-03    0.462E-02
RMM:   6    -0.710549784427E+03    0.52733E-05   -0.14432E-05  6561   0.688E-03    0.485E-02
RMM:   7    -0.710549777987E+03    0.64393E-05   -0.95169E-06  6413   0.609E-03    0.312E-02
RMM:   8    -0.710549773438E+03    0.45490E-05   -0.50537E-06  5866   0.457E-03
  42 F= -.71054977E+03 E0= -.70993666E+03  d E =-.153274E-02  mag=     5.7501
 trial-energy change:   -0.001533  1 .order   -0.001573   -0.002422   -0.000723
 step:   0.1223(harm=  0.1223)  dis= 0.00149  next Energy=  -710.549967 (dE=-0.173E-02)
 bond charge predicted
       N       E                     dE             d eps       ncg     rms          rms(c)
DAV:   1    -0.710549929436E+03   -0.15145E-03   -0.10178E-02 14048   0.152E-01    0.332E-02
RMM:   2    -0.710549959370E+03   -0.29934E-04   -0.23258E-04  7745   0.268E-02    0.487E-02
RMM:   3    -0.710549950772E+03    0.85973E-05   -0.37834E-05  7134   0.137E-02    0.318E-02
RMM:   4    -0.710549949787E+03    0.98506E-06   -0.96888E-06  6524   0.633E-03    0.206E-02
RMM:   5    -0.710549960447E+03   -0.10660E-04   -0.41702E-06  5817   0.422E-03    0.524E-02
RMM:   6    -0.710549947419E+03    0.13028E-04   -0.11749E-06  3365   0.315E-03    0.136E-02
RMM:   7    -0.710549948818E+03   -0.13984E-05   -0.11332E-06  3157   0.316E-03    0.137E-02
RMM:   8    -0.710549950536E+03   -0.17177E-05   -0.55042E-07  2588   0.294E-03
  43 F= -.71054995E+03 E0= -.70993678E+03  d E =-.170984E-02  mag=     5.7489
 curvature:  -0.09 expect dE=-0.207E-02 dE for cont linesearch -0.383E-06
 trial: gam= 0.56060 g(F)=  0.218E-01 g(S)=  0.000E+00 ort = 0.420E-03 (trialstep = 0.931E-01)
 search vector abs. value=  0.360E-01
 bond charge predicted
       N       E                     dE             d eps       ncg     rms          rms(c)
DAV:   1    -0.710551469784E+03   -0.15210E-02   -0.53014E-02 13824   0.350E-01    0.597E-02
RMM:   2    -0.710551605744E+03   -0.13596E-03   -0.10642E-03 12911   0.601E-02    0.133E-01
RMM:   3    -0.710551588614E+03    0.17130E-04   -0.18339E-04  7756   0.246E-02    0.742E-02
RMM:   4    -0.710551601629E+03   -0.13016E-04   -0.52635E-05  7323   0.159E-02    0.103E-01
RMM:   5    -0.710551551683E+03    0.49946E-04   -0.16969E-05  6892   0.824E-03    0.549E-02
RMM:   6    -0.710551527424E+03    0.24259E-04   -0.10813E-05  6438   0.600E-03    0.305E-02
RMM:   7    -0.710551507804E+03    0.19621E-04   -0.93812E-06  6349   0.534E-03    0.277E-02
RMM:   8    -0.710551497790E+03    0.10014E-04   -0.26155E-06  4886   0.382E-03
  44 F= -.71055150E+03 E0= -.70993831E+03  d E =-.154725E-02  mag=     5.7466
 trial-energy change:   -0.001547  1 .order   -0.001585   -0.002049   -0.001122
 step:   0.2059(harm=  0.2059)  dis= 0.00197  next Energy=  -710.552216 (dE=-0.227E-02)
 bond charge predicted
       N       E                     dE             d eps       ncg     rms          rms(c)
DAV:   1    -0.710551969005E+03   -0.46120E-03   -0.77763E-02 13968   0.425E-01    0.728E-02
RMM:   2    -0.710552122395E+03   -0.15339E-03   -0.15656E-03 13229   0.730E-02    0.109E-01
RMM:   3    -0.710552167239E+03   -0.44844E-04   -0.27210E-04  8656   0.298E-02    0.132E-01
RMM:   4    -0.710552091250E+03    0.75989E-04   -0.64840E-05  7471   0.183E-02    0.528E-02
RMM:   5    -0.710552070643E+03    0.20607E-04   -0.25635E-05  7123   0.944E-03    0.716E-02
RMM:   6    -0.710552033756E+03    0.36887E-04   -0.16810E-05  6659   0.748E-03    0.344E-02
RMM:   7    -0.710552004320E+03    0.29436E-04   -0.15589E-05  6604   0.647E-03    0.280E-02
RMM:   8    -0.710551992522E+03    0.11798E-04   -0.52847E-06  6030   0.497E-03
  45 F= -.71055199E+03 E0= -.70993877E+03  d E =-.204199E-02  mag=     5.7430
 curvature:  -0.17 expect dE=-0.885E-02 dE for cont linesearch -0.244E-06
 trial: gam= 2.49531 g(F)=  0.525E-01 g(S)=  0.000E+00 ort = 0.229E-03 (trialstep = 0.150E-01)
 search vector abs. value=  0.278E+00
 bond charge predicted
       N       E                     dE             d eps       ncg     rms          rms(c)
DAV:   1    -0.710552804106E+03   -0.79979E-03   -0.11858E-02 14112   0.164E-01    0.301E-02
RMM:   2    -0.710552831960E+03   -0.27854E-04   -0.24086E-04  7830   0.269E-02    0.527E-02
RMM:   3    -0.710552824430E+03    0.75304E-05   -0.35026E-05  7110   0.130E-02    0.369E-02
RMM:   4    -0.710552826710E+03   -0.22800E-05   -0.92788E-06  6518   0.592E-03    0.394E-02
RMM:   5    -0.710552816788E+03    0.99214E-05   -0.47858E-06  5947   0.465E-03    0.318E-02
RMM:   6    -0.710552810456E+03    0.63321E-05   -0.13387E-06  3547   0.331E-03    0.187E-02
RMM:   7    -0.710552811550E+03   -0.10939E-05   -0.97829E-07  2996   0.312E-03    0.860E-03
RMM:   8    -0.710552817481E+03   -0.59309E-05   -0.83819E-07  2719   0.301E-03
  46 F= -.71055282E+03 E0= -.70993952E+03  d E =-.824959E-03  mag=     5.7395
 ZBRENT: can't locate minimum, use default step
 trial-energy change:   -0.000825  1 .order   -0.000856   -0.000796   -0.000917
 step:   0.0600(harm=  0.0600)  dis= 0.00189  next Energy=  -710.556141 (dE=-0.415E-02)
 bond charge predicted
       N       E                     dE             d eps       ncg     rms          rms(c)
DAV:   1    -0.710555568967E+03   -0.27574E-02   -0.10669E-01 13776   0.490E-01    0.856E-02
RMM:   2    -0.710555802444E+03   -0.23348E-03   -0.20639E-03 13184   0.797E-02    0.149E-01
RMM:   3    -0.710555750826E+03    0.51618E-04   -0.31676E-04  9243   0.329E-02    0.512E-02
RMM:   4    -0.710555851688E+03   -0.10086E-03   -0.10050E-04  7690   0.197E-02    0.169E-01
RMM:   5    -0.710555726352E+03    0.12534E-03   -0.28062E-05  7172   0.108E-02    0.627E-02
RMM:   6    -0.710555694635E+03    0.31717E-04   -0.19057E-05  6672   0.737E-03    0.479E-02
RMM:   7    -0.710555678156E+03    0.16479E-04   -0.13370E-05  6494   0.678E-03    0.391E-02
RMM:   8    -0.710555668902E+03    0.92542E-05   -0.58826E-06  6112   0.494E-03
  47 F= -.71055567E+03 E0= -.70994229E+03  d E =-.367638E-02  mag=     5.7352
 curvature:  -0.24 expect dE=-0.270E-01 dE for cont linesearch -0.370E-02
 ZBRENT: increasing intervall
 opt :   0.1499  next Energy=  -710.561826 (dE=-0.983E-02)
 bond charge predicted
       N       E                     dE             d eps       ncg     rms          rms(c)
DAV:   1    -0.710557527551E+03   -0.18494E-02   -0.42702E-01 13472   0.981E-01    0.170E-01
RMM:   2    -0.710558406881E+03   -0.87933E-03   -0.81853E-03 13430   0.159E-01    0.282E-01
RMM:   3    -0.710558241151E+03    0.16573E-03   -0.12675E-03 13094   0.654E-02    0.118E-01
RMM:   4    -0.710558791357E+03   -0.55021E-03   -0.39761E-04 10156   0.330E-02    0.315E-01
RMM:   5    -0.710558307917E+03    0.48344E-03   -0.16100E-04  8114   0.239E-02    0.233E-01
RMM:   6    -0.710558081882E+03    0.22603E-03   -0.78384E-05  7772   0.164E-02    0.905E-02
RMM:   7    -0.710557993889E+03    0.87993E-04   -0.60310E-05  7513   0.127E-02    0.635E-02
RMM:   8    -0.710557963831E+03    0.30057E-04   -0.24940E-05  6892   0.103E-02
  48 F= -.71055796E+03 E0= -.70994442E+03  d E =-.597131E-02  mag=     5.7287
 curvature:  -0.41 expect dE=-0.690E-01 dE for cont linesearch -0.418E-03
 ZBRENT: bracketing found
 ZBRENT: interpolating
 opt :   0.1313  next Energy=  -710.558121 (dE=-0.613E-02)
 bond charge predicted
       N       E                     dE             d eps       ncg     rms          rms(c)
DAV:   1    -0.710558077489E+03   -0.83600E-04   -0.18314E-02 14080   0.203E-01    0.439E-02
RMM:   2    -0.710558185473E+03   -0.10798E-03   -0.37422E-04  8816   0.339E-02    0.110E-01
RMM:   3    -0.710558177932E+03    0.75407E-05   -0.65962E-05  7207   0.176E-02    0.887E-02
RMM:   4    -0.710558148971E+03    0.28961E-04   -0.16554E-05  6889   0.839E-03    0.314E-02
RMM:   5    -0.710558178557E+03   -0.29586E-04   -0.73041E-06  6273   0.540E-03    0.280E-02
RMM:   6    -0.710558211849E+03   -0.33291E-04   -0.40760E-06  5324   0.401E-03    0.250E-02
RMM:   7    -0.710558249719E+03   -0.37871E-04   -0.29109E-06  4857   0.373E-03    0.150E-02
RMM:   8    -0.710558293249E+03   -0.43530E-04   -0.23971E-06  3832   0.334E-03
  49 F= -.71055829E+03 E0= -.70994470E+03  d E =-.630073E-02  mag=     5.7239
 curvature:  -0.15 expect dE=-0.214E-01 dE for cont linesearch -0.211E-07
 trial: gam= 1.81304 g(F)=  0.140E+00 g(S)=  0.000E+00 ort =-0.196E-03 (trialstep = 0.101E-01)
 search vector abs. value=  0.105E+01
 bond charge predicted
       N       E                     dE             d eps       ncg     rms          rms(c)
DAV:   1    -0.710559698601E+03   -0.14489E-02   -0.22499E-02 14000   0.222E-01    0.433E-02
RMM:   2    -0.710559796517E+03   -0.97916E-04   -0.47958E-04  9104   0.355E-02    0.838E-02
RMM:   3    -0.710559784111E+03    0.12405E-04   -0.68271E-05  7218   0.167E-02    0.247E-02
RMM:   4    -0.710559808923E+03   -0.24811E-04   -0.17826E-05  6735   0.825E-03    0.505E-02
RMM:   5    -0.710559817257E+03   -0.83341E-05   -0.71702E-06  6111   0.532E-03    0.556E-02
RMM:   6    -0.710559820527E+03   -0.32696E-05   -0.27301E-06  4474   0.363E-03    0.214E-02
RMM:   7    -0.710559849756E+03   -0.29229E-04   -0.26203E-06  4283   0.351E-03    0.170E-02
RMM:   8    -0.710559869879E+03   -0.20123E-04   -0.11811E-06  3081   0.315E-03
  50 F= -.71055987E+03 E0= -.70994628E+03  d E =-.157663E-02  mag=     5.7200
 ZBRENT: can't locate minimum, use default step
 trial-energy change:   -0.001577  1 .order   -0.001377   -0.001411   -0.001343
 step:   0.0404(harm=  0.2108)  dis= 0.00442  next Energy=  -710.573022 (dE=-0.147E-01)
 bond charge predicted
       N       E                     dE             d eps       ncg     rms          rms(c)
DAV:   1    -0.710562747495E+03   -0.28977E-02   -0.20178E-01 13600   0.665E-01    0.128E-01
RMM:   2    -0.710563309178E+03   -0.56168E-03   -0.42937E-03 13318   0.106E-01    0.232E-01
RMM:   3    -0.710563303006E+03    0.61729E-05   -0.65558E-04 11487   0.449E-02    0.199E-01
RMM:   4    -0.710563239715E+03    0.63290E-04   -0.18405E-04  8289   0.234E-02    0.143E-01
RMM:   5    -0.710563150855E+03    0.88860E-04   -0.86922E-05  7535   0.176E-02    0.121E-01
RMM:   6    -0.710563114947E+03    0.35908E-04   -0.39978E-05  6996   0.114E-02    0.636E-02
RMM:   7    -0.710563103869E+03    0.11078E-04   -0.36812E-05  6970   0.101E-02    0.409E-02
RMM:   8    -0.710563112752E+03   -0.88831E-05   -0.15127E-05  6533   0.808E-03
  51 F= -.71056311E+03 E0= -.70994945E+03  d E =-.481950E-02  mag=     5.7162
 curvature:  -0.22 expect dE=-0.469E-01 dE for cont linesearch -0.142E-02
 ZBRENT: increasing intervall
 opt :   0.1010  next Energy=  -710.564989 (dE=-0.670E-02)
 bond charge predicted
       N       E                     dE             d eps       ncg     rms          rms(c)
DAV:   1    -0.710561654179E+03    0.14497E-02   -0.80716E-01 13440   0.133E+00    0.257E-01
RMM:   2    -0.710563785679E+03   -0.21315E-02   -0.17140E-02 13440   0.213E-01    0.461E-01
RMM:   3    -0.710563889185E+03   -0.10351E-03   -0.26459E-03 13724   0.901E-02    0.414E-01
RMM:   4    -0.710563497847E+03    0.39134E-03   -0.81130E-04 12249   0.435E-02    0.259E-01
RMM:   5    -0.710563227587E+03    0.27026E-03   -0.32219E-04  9327   0.288E-02    0.265E-01
RMM:   6    -0.710563036149E+03    0.19144E-03   -0.15644E-04  8251   0.232E-02    0.137E-01
RMM:   7    -0.710562935512E+03    0.10064E-03   -0.14941E-04  8060   0.190E-02    0.765E-02
RMM:   8    -0.710562935501E+03    0.11103E-07   -0.52826E-05  7479   0.149E-02
  52 F= -.71056294E+03 E0= -.70994912E+03  d E =-.464225E-02  mag=     5.7114
 curvature:  -0.29 expect dE=-0.378E-01 dE for cont linesearch -0.192E-02
 ZBRENT: bracketing found
 ZBRENT: interpolating
 opt :   0.0705  next Energy=  -710.564348 (dE=-0.605E-02)
 bond charge predicted
       N       E                     dE             d eps       ncg     rms          rms(c)
DAV:   1    -0.710563896997E+03   -0.96149E-03   -0.20461E-01 13648   0.671E-01    0.137E-01
RMM:   2    -0.710564463958E+03   -0.56696E-03   -0.43737E-03 13320   0.108E-01    0.277E-01
RMM:   3    -0.710564313011E+03    0.15095E-03   -0.64498E-04 11476   0.462E-02    0.161E-01
RMM:   4    -0.710564419512E+03   -0.10650E-03   -0.20114E-04  8355   0.240E-02    0.186E-01
RMM:   5    -0.710564313701E+03    0.10581E-03   -0.88806E-05  7401   0.181E-02    0.126E-01
RMM:   6    -0.710564299829E+03    0.13872E-04   -0.44513E-05  7123   0.119E-02    0.734E-02
RMM:   7    -0.710564336202E+03   -0.36373E-04   -0.32330E-05  6909   0.102E-02    0.530E-02
RMM:   8    -0.710564355681E+03   -0.19479E-04   -0.24661E-05  6576   0.912E-03
  53 F= -.71056436E+03 E0= -.70995056E+03  d E =-.606243E-02  mag=     5.7077
 curvature:  -0.19 expect dE=-0.292E-01 dE for cont linesearch -0.186E-04
 trial: gam= 0.29586 g(F)=  0.154E+00 g(S)=  0.000E+00 ort =-0.102E-01 (trialstep = 0.222E-01)
 search vector abs. value=  0.241E+00
 bond charge predicted
       N       E                     dE             d eps       ncg     rms          rms(c)
DAV:   1    -0.710567293746E+03   -0.29575E-02   -0.27959E-02 13984   0.247E-01    0.577E-02
RMM:   2    -0.710567414708E+03   -0.12096E-03   -0.67377E-04  9698   0.390E-02    0.856E-02
RMM:   3    -0.710567456659E+03   -0.41951E-04   -0.10143E-04  7366   0.193E-02    0.916E-02
RMM:   4    -0.710567463920E+03   -0.72612E-05   -0.28391E-05  6979   0.105E-02    0.910E-02
[...]
DAV:   1    -0.710576550107E+03   -0.15310E-02   -0.44790E-02 14112   0.317E-01    0.684E-02
RMM:   2    -0.710576640626E+03   -0.90519E-04   -0.90269E-04 12064   0.522E-02    0.117E-01
RMM:   3    -0.710576619192E+03    0.21434E-04   -0.14016E-04  7685   0.221E-02    0.561E-02
RMM:   4    -0.710576799289E+03   -0.18010E-03   -0.54705E-05  7300   0.141E-02    0.200E-01
RMM:   5    -0.710576584645E+03    0.21464E-03   -0.21472E-05  6903   0.962E-03    0.597E-02
RMM:   6    -0.710576540457E+03    0.44188E-04   -0.12491E-05  6530   0.583E-03    0.290E-02
RMM:   7    -0.710576522519E+03    0.17938E-04   -0.52426E-06  5941   0.488E-03    0.229E-02
RMM:   8    -0.710576512302E+03    0.10217E-04   -0.22223E-06  4261   0.359E-03
  58 F= -.71057651E+03 E0= -.70996296E+03  d E =-.151493E-02  mag=     5.7163
 trial-energy change:   -0.001515  1 .order   -0.001621   -0.002179   -0.001063
 step:   0.1072(harm=  0.1072)  dis= 0.00275  next Energy=  -710.577125 (dE=-0.213E-02)
 bond charge predicted
       N       E                     dE             d eps       ncg     rms          rms(c)
DAV:   1    -0.710576869780E+03   -0.34726E-03   -0.40610E-02 14096   0.302E-01    0.591E-02
RMM:   2    -0.710576971291E+03   -0.10151E-03   -0.81846E-04 11779   0.496E-02    0.112E-01
RMM:   3    -0.710576949895E+03    0.21395E-04   -0.12249E-04  7510   0.210E-02    0.385E-02
RMM:   4    -0.710577062700E+03   -0.11280E-03   -0.43416E-05  7151   0.129E-02    0.159E-01
RMM:   5    -0.710576940939E+03    0.12176E-03   -0.16285E-05  6803   0.831E-03    0.476E-02
RMM:   6    -0.710576927990E+03    0.12949E-04   -0.91950E-06  6186   0.541E-03    0.336E-02
RMM:   7    -0.710576924915E+03    0.30751E-05   -0.35676E-06  5397   0.429E-03    0.302E-02
RMM:   8    -0.710576920911E+03    0.40039E-05   -0.21094E-06  4092   0.347E-03
  59 F= -.71057692E+03 E0= -.70996343E+03  d E =-.192354E-02  mag=     5.7203
 curvature:  -0.09 expect dE=-0.225E-02 dE for cont linesearch -0.909E-05
 trial: gam= 0.32786 g(F)=  0.242E-01 g(S)=  0.000E+00 ort =-0.259E-02 (trialstep = 0.653E-01)
 search vector abs. value=  0.299E-01
 bond charge predicted
       N       E                     dE             d eps       ncg     rms          rms(c)
DAV:   1    -0.710578000909E+03   -0.10760E-02   -0.25469E-02 14112   0.241E-01    0.440E-02
RMM:   2    -0.710578062806E+03   -0.61897E-04   -0.49289E-04  9813   0.398E-02    0.639E-02
RMM:   3    -0.710578085855E+03   -0.23048E-04   -0.78861E-05  7284   0.174E-02    0.588E-02
RMM:   4    -0.710578094339E+03   -0.84844E-05   -0.21781E-05  6873   0.961E-03    0.631E-02
RMM:   5    -0.710578088935E+03    0.54040E-05   -0.92133E-06  6303   0.599E-03    0.325E-02
RMM:   6    -0.710578103431E+03   -0.14496E-04   -0.50755E-06  5498   0.432E-03    0.224E-02
RMM:   7    -0.710578115098E+03   -0.11667E-04   -0.19900E-06  4224   0.352E-03    0.149E-02
RMM:   8    -0.710578126562E+03   -0.11464E-04   -0.57382E-07  2525   0.297E-03
  60 F= -.71057813E+03 E0= -.70996473E+03  d E =-.120565E-02  mag=     5.7236
 trial-energy change:   -0.001206  1 .order   -0.001124   -0.001528   -0.000721
 step:   0.1238(harm=  0.1238)  dis= 0.00264  next Energy=  -710.578368 (dE=-0.145E-02)
 bond charge predicted
       N       E                     dE             d eps       ncg     rms          rms(c)
DAV:   1    -0.710578351533E+03   -0.23643E-03   -0.20340E-02 14048   0.215E-01    0.368E-02
RMM:   2    -0.710578421964E+03   -0.70431E-04   -0.39792E-04  9045   0.356E-02    0.775E-02
RMM:   3    -0.710578417769E+03    0.41948E-05   -0.63830E-05  7233   0.159E-02    0.479E-02
RMM:   4    -0.710578428557E+03   -0.10788E-04   -0.17496E-05  6742   0.852E-03    0.501E-02
RMM:   5    -0.710578430451E+03   -0.18939E-05   -0.74983E-06  6203   0.562E-03    0.326E-02
RMM:   6    -0.710578442320E+03   -0.11869E-04   -0.37436E-06  5022   0.396E-03    0.205E-02
RMM:   7    -0.710578453791E+03   -0.11471E-04   -0.16737E-06  3873   0.338E-03    0.130E-02
RMM:   8    -0.710578463499E+03   -0.97083E-05   -0.49610E-07  2422   0.297E-03
  61 F= -.71057846E+03 E0= -.70996510E+03  d E =-.154259E-02  mag=     5.7260
 curvature:  -0.08 expect dE=-0.766E-03 dE for cont linesearch -0.688E-05
 trial: gam= 0.43607 g(F)=  0.967E-02 g(S)=  0.000E+00 ort =-0.161E-02 (trialstep = 0.770E-01)
 search vector abs. value=  0.139E-01
 bond charge predicted
       N       E                     dE             d eps       ncg     rms          rms(c)
DAV:   1    -0.710578893831E+03   -0.44004E-03   -0.12791E-02 14160   0.169E-01    0.371E-02
RMM:   2    -0.710579067160E+03   -0.17333E-03   -0.38051E-04  8571   0.324E-02    0.149E-01
RMM:   3    -0.710578953196E+03    0.11396E-03   -0.56320E-05  7238   0.161E-02    0.583E-02
RMM:   4    -0.710578955420E+03   -0.22235E-05   -0.16555E-05  6795   0.789E-03    0.467E-02
RMM:   5    -0.710578969272E+03   -0.13852E-04   -0.87265E-06  6261   0.570E-03    0.401E-02
RMM:   6    -0.710578980253E+03   -0.10980E-04   -0.40066E-06  5552   0.439E-03    0.229E-02
RMM:   7    -0.710578997787E+03   -0.17535E-04   -0.29235E-06  4278   0.357E-03    0.162E-02
RMM:   8    -0.710579009069E+03   -0.11282E-04   -0.14300E-06  3505   0.333E-03
  62 F= -.71057901E+03 E0= -.70996562E+03  d E =-.545570E-03  mag=     5.7272
 trial-energy change:   -0.000546  1 .order   -0.000451   -0.000690   -0.000212
 step:   0.1112(harm=  0.1112)  dis= 0.00130  next Energy=  -710.578962 (dE=-0.498E-03)
 bond charge predicted
       N       E                     dE             d eps       ncg     rms          rms(c)
DAV:   1    -0.710579063098E+03   -0.65310E-04   -0.25020E-03 13760   0.749E-02    0.163E-02
RMM:   2    -0.710579093435E+03   -0.30337E-04   -0.74330E-05  7185   0.143E-02    0.550E-02
RMM:   3    -0.710579079975E+03    0.13460E-04   -0.10356E-05  6809   0.723E-03    0.245E-02
RMM:   4    -0.710579082910E+03   -0.29346E-05   -0.18695E-06  3653   0.332E-03    0.222E-02
RMM:   5    -0.710579088384E+03   -0.54742E-05   -0.10437E-06  2915   0.315E-03    0.174E-02
RMM:   6    -0.710579093957E+03   -0.55726E-05   -0.12786E-07  1551   0.284E-03    0.113E-02
RMM:   7    -0.710579101475E+03   -0.75180E-05   -0.48061E-07  2008   0.298E-03    0.753E-03
RMM:   8    -0.710579107265E+03   -0.57903E-05   -0.25698E-07  1500   0.287E-03
  63 F= -.71057911E+03 E0= -.70996571E+03  d E =-.643766E-03  mag=     5.7281
 curvature:  -0.09 expect dE=-0.484E-03 dE for cont linesearch -0.991E-07
 trial: gam= 0.48898 g(F)=  0.560E-02 g(S)=  0.000E+00 ort = 0.126E-03 (trialstep = 0.839E-01)
 search vector abs. value=  0.905E-02
 bond charge predicted
       N       E                     dE             d eps       ncg     rms          rms(c)
DAV:   1    -0.710579456432E+03   -0.35496E-03   -0.75552E-03 14000   0.129E-01    0.239E-02
RMM:   2    -0.710579475747E+03   -0.19315E-04   -0.14964E-04  7325   0.221E-02    0.331E-02
RMM:   3    -0.710579478709E+03   -0.29625E-05   -0.22690E-05  7121   0.109E-02    0.290E-02
RMM:   4    -0.710579489701E+03   -0.10992E-04   -0.75152E-06  6484   0.526E-03    0.491E-02
RMM:   5    -0.710579479484E+03    0.10217E-04   -0.31172E-06  5616   0.410E-03    0.180E-02
RMM:   6    -0.710579480778E+03   -0.12940E-05   -0.41177E-07  2302   0.271E-03    0.112E-02
RMM:   7    -0.710579483862E+03   -0.30843E-05   -0.51402E-07  2371   0.291E-03    0.798E-03
RMM:   8    -0.710579485670E+03   -0.18077E-05   -0.13315E-07  1337   0.280E-03
  64 F= -.71057949E+03 E0= -.70996613E+03  d E =-.378405E-03  mag=     5.7288
 trial-energy change:   -0.000378  1 .order   -0.000354   -0.000474   -0.000234
 step:   0.1651(harm=  0.1651)  dis= 0.00135  next Energy=  -710.579574 (dE=-0.467E-03)
 bond charge predicted
       N       E                     dE             d eps       ncg     rms          rms(c)
DAV:   1    -0.710579575715E+03   -0.91853E-04   -0.70636E-03 14032   0.125E-01    0.230E-02
RMM:   2    -0.710579592397E+03   -0.16682E-04   -0.14080E-04  7314   0.214E-02    0.328E-02
RMM:   3    -0.710579596009E+03   -0.36121E-05   -0.21363E-05  7097   0.104E-02    0.308E-02
RMM:   4    -0.710579600286E+03   -0.42769E-05   -0.65677E-06  6345   0.490E-03    0.387E-02
RMM:   5    -0.710579594832E+03    0.54539E-05   -0.25030E-06  5292   0.384E-03    0.152E-02
RMM:   6    -0.710579596736E+03   -0.19033E-05   -0.37293E-07  2209   0.269E-03    0.984E-03
RMM:   7    -0.710579599058E+03   -0.23225E-05   -0.47068E-07  2236   0.285E-03    0.956E-03
RMM:   8    -0.710579600480E+03   -0.14217E-05   -0.14288E-07  1479   0.276E-03
  65 F= -.71057960E+03 E0= -.70996629E+03  d E =-.493215E-03  mag=     5.7293
 curvature:  -0.13 expect dE=-0.640E-03 dE for cont linesearch -0.433E-06
 trial: gam= 0.88247 g(F)=  0.484E-02 g(S)=  0.000E+00 ort =-0.172E-03 (trialstep = 0.782E-01)
 search vector abs. value=  0.116E-01
 bond charge predicted
       N       E                     dE             d eps       ncg     rms          rms(c)
DAV:   1    -0.710579877447E+03   -0.27839E-03   -0.66012E-03 14080   0.119E-01    0.242E-02
RMM:   2    -0.710579902446E+03   -0.24998E-04   -0.14802E-04  7319   0.222E-02    0.540E-02
RMM:   3    -0.710579895673E+03    0.67726E-05   -0.22743E-05  7112   0.109E-02    0.290E-02
RMM:   4    -0.710579901991E+03   -0.63180E-05   -0.73423E-06  6501   0.519E-03    0.421E-02
RMM:   5    -0.710579897438E+03    0.45532E-05   -0.34813E-06  5790   0.424E-03    0.225E-02
RMM:   6    -0.710579898029E+03   -0.59135E-06   -0.73037E-07  2805   0.302E-03    0.109E-02
RMM:   7    -0.710579900128E+03   -0.20984E-05   -0.97340E-07  2781   0.306E-03    0.638E-03
RMM:   8    -0.710579901855E+03   -0.17278E-05   -0.34424E-07  1919   0.277E-03
  66 F= -.71057990E+03 E0= -.70996659E+03  d E =-.301375E-03  mag=     5.7296
 trial-energy change:   -0.000301  1 .order   -0.000281   -0.000367   -0.000194
 step:   0.1664(harm=  0.1664)  dis= 0.00228  next Energy=  -710.579991 (dE=-0.390E-03)
 bond charge predicted
       N       E                     dE             d eps       ncg     rms          rms(c)
DAV:   1    -0.710579963500E+03   -0.63373E-04   -0.83560E-03 14032   0.134E-01    0.281E-02
RMM:   2    -0.710579986244E+03   -0.22744E-04   -0.18605E-04  7470   0.249E-02    0.508E-02
RMM:   3    -0.710579981136E+03    0.51084E-05   -0.28062E-05  7097   0.121E-02    0.192E-02
RMM:   4    -0.710579995403E+03   -0.14267E-04   -0.10226E-05  6633   0.595E-03    0.525E-02
RMM:   5    -0.710579989699E+03    0.57041E-05   -0.45290E-06  6037   0.463E-03    0.387E-02
RMM:   6    -0.710579984186E+03    0.55124E-05   -0.89308E-07  3071   0.306E-03    0.121E-02
RMM:   7    -0.710579985299E+03   -0.11133E-05   -0.71913E-07  2523   0.299E-03    0.988E-03
RMM:   8    -0.710579986533E+03   -0.12333E-05   -0.22162E-07  1764   0.276E-03
  67 F= -.71057999E+03 E0= -.70996664E+03  d E =-.386053E-03  mag=     5.7297
 curvature:  -0.21 expect dE=-0.163E-02 dE for cont linesearch -0.705E-05
 trial: gam= 1.47376 g(F)=  0.794E-02 g(S)=  0.000E+00 ort =-0.630E-03 (trialstep = 0.355E-01)
 search vector abs. value=  0.313E-01
 bond charge predicted
       N       E                     dE             d eps       ncg     rms          rms(c)
DAV:   1    -0.710580187562E+03   -0.20226E-03   -0.29947E-03 13952   0.771E-02    0.213E-02
RMM:   2    -0.710580262480E+03   -0.74918E-04   -0.69142E-05  7211   0.141E-02    0.118E-01
RMM:   3    -0.710580186480E+03    0.76000E-04   -0.13875E-05  6927   0.835E-03    0.217E-02
RMM:   4    -0.710580190604E+03   -0.41241E-05   -0.42873E-06  5659   0.408E-03    0.190E-02
RMM:   5    -0.710580190348E+03    0.25662E-06   -0.10487E-06  3435   0.321E-03    0.203E-02
RMM:   6    -0.710580188495E+03    0.18530E-05   -0.15437E-07  1809   0.280E-03    0.162E-02
RMM:   7    -0.710580185468E+03    0.30264E-05   -0.40428E-07  2150   0.288E-03    0.656E-03
RMM:   8    -0.710580185534E+03   -0.65265E-07   -0.11699E-07  1291   0.272E-03
  68 F= -.71058019E+03 E0= -.70996686E+03  d E =-.199001E-03  mag=     5.7294
 trial-energy change:   -0.000199  1 .order   -0.000209   -0.000249   -0.000169
 step:   0.1103(harm=  0.1103)  dis= 0.00317  next Energy=  -710.580373 (dE=-0.387E-03)
 bond charge predicted
       N       E                     dE             d eps       ncg     rms          rms(c)
DAV:   1    -0.710580295832E+03   -0.11036E-03   -0.13192E-02 13872   0.162E-01    0.364E-02
RMM:   2    -0.710580336249E+03   -0.40417E-04   -0.26160E-04  8027   0.283E-02    0.755E-02
RMM:   3    -0.710580319599E+03    0.16650E-04   -0.40775E-05  7165   0.139E-02    0.447E-02
RMM:   4    -0.710580333199E+03   -0.13600E-04   -0.15238E-05  6777   0.738E-03    0.700E-02
RMM:   5    -0.710580308240E+03    0.24960E-04   -0.75521E-06  6367   0.597E-03    0.318E-02
RMM:   6    -0.710580299705E+03    0.85344E-05   -0.34221E-06  5238   0.399E-03    0.183E-02
RMM:   7    -0.710580296018E+03    0.36871E-05   -0.95106E-07  3040   0.301E-03    0.106E-02
RMM:   8    -0.710580295137E+03    0.88126E-06   -0.50054E-07  2365   0.289E-03
  69 F= -.71058030E+03 E0= -.70996697E+03  d E =-.308604E-03  mag=     5.7287
 curvature:  -0.25 expect dE=-0.141E-02 dE for cont linesearch -0.253E-04
 ZBRENT: interpolating
 opt :   0.0898  next Energy=  -710.580313 (dE=-0.327E-03)
 bond charge predicted
       N       E                     dE             d eps       ncg     rms          rms(c)
DAV:   1    -0.710580306820E+03   -0.10802E-04   -0.98298E-04 13872   0.444E-02    0.113E-02
RMM:   2    -0.710580326941E+03   -0.20121E-04   -0.22772E-05  6990   0.851E-03    0.513E-02
RMM:   3    -0.710580312905E+03    0.14036E-04   -0.39892E-06  6161   0.471E-03    0.162E-02
RMM:   4    -0.710580314367E+03   -0.14619E-05   -0.22229E-07  1729   0.243E-03    0.791E-03
RMM:   5    -0.710580318725E+03   -0.43581E-05   -0.15434E-07  1483   0.246E-03    0.703E-03
RMM:   6    -0.710580322236E+03   -0.35116E-05   -0.18112E-07  1486   0.267E-03    0.536E-03
RMM:   7    -0.710580325435E+03   -0.31986E-05   -0.11517E-07  1255   0.268E-03    0.348E-03
RMM:   8    -0.710580327964E+03   -0.25287E-05   -0.26126E-07  1410   0.278E-03
  70 F= -.71058033E+03 E0= -.70996698E+03  d E =-.341431E-03  mag=     5.7283
 curvature:  -0.18 expect dE=-0.934E-03 dE for cont linesearch -0.171E-05
 trial: gam= 0.11211 g(F)=  0.523E-02 g(S)=  0.000E+00 ort = 0.547E-03 (trialstep = 0.464E-01)
 search vector abs. value=  0.575E-02
 bond charge predicted
       N       E                     dE             d eps       ncg     rms          rms(c)
DAV:   1    -0.710580537591E+03   -0.21216E-03   -0.15161E-03 13616   0.615E-02    0.119E-02
RMM:   2    -0.710580545797E+03   -0.82057E-05   -0.42270E-05  7163   0.113E-02    0.327E-02
RMM:   3    -0.710580542137E+03    0.36596E-05   -0.56259E-06  6633   0.545E-03    0.213E-02
RMM:   4    -0.710580540871E+03    0.12657E-05   -0.37089E-07  1750   0.246E-03    0.913E-03
RMM:   5    -0.710580540537E+03    0.33407E-06   -0.21662E-07  1569   0.244E-03    0.832E-03
RMM:   6    -0.710580539856E+03    0.68084E-06   -0.83793E-08  1312   0.244E-03    0.600E-03
RMM:   7    -0.710580539386E+03    0.47048E-06   -0.35218E-07  1618   0.262E-03    0.356E-03
RMM:   8    -0.710580539522E+03   -0.13640E-06   -0.21858E-08  1081   0.250E-03
  71 F= -.71058054E+03 E0= -.70996720E+03  d E =-.211559E-03  mag=     5.7278
 trial-energy change:   -0.000212  1 .order   -0.000209   -0.000246   -0.000173
 step:   0.1576(harm=  0.1576)  dis= 0.00135  next Energy=  -710.580745 (dE=-0.417E-03)
 bond charge predicted
       N       E                     dE             d eps       ncg     rms          rms(c)
DAV:   1    -0.710580718799E+03   -0.17941E-03   -0.86817E-03 14112   0.147E-01    0.280E-02
RMM:   2    -0.710580742124E+03   -0.23325E-04   -0.23991E-04  7695   0.271E-02    0.522E-02
RMM:   3    -0.710580734424E+03    0.77004E-05   -0.30717E-05  7106   0.126E-02    0.180E-02
RMM:   4    -0.710580739141E+03   -0.47177E-05   -0.91295E-06  6593   0.561E-03    0.368E-02
RMM:   5    -0.710580738631E+03    0.51063E-06   -0.35600E-06  5674   0.420E-03    0.376E-02
RMM:   6    -0.710580730441E+03    0.81899E-05   -0.34441E-07  2196   0.265E-03    0.126E-02
RMM:   7    -0.710580728350E+03    0.20911E-05   -0.28125E-07  2112   0.272E-03    0.107E-02
RMM:   8    -0.710580727793E+03    0.55693E-06   -0.27403E-07  1852   0.277E-03
  72 F= -.71058073E+03 E0= -.70996741E+03  d E =-.399829E-03  mag=     5.7271
 curvature:  -0.09 expect dE=-0.329E-03 dE for cont linesearch -0.255E-06
 trial: gam= 0.74671 g(F)=  0.384E-02 g(S)=  0.000E+00 ort =-0.131E-03 (trialstep = 0.576E-01)
 search vector abs. value=  0.685E-02
 bond charge predicted
       N       E                     dE             d eps       ncg     rms          rms(c)
DAV:   1    -0.710580868308E+03   -0.13996E-03   -0.21345E-03 13984   0.726E-02    0.140E-02
RMM:   2    -0.710580885974E+03   -0.17666E-04   -0.50400E-05  7129   0.128E-02    0.459E-02
RMM:   3    -0.710580877102E+03    0.88724E-05   -0.76745E-06  6896   0.653E-03    0.238E-02
RMM:   4    -0.710580877256E+03   -0.15434E-06   -0.63107E-07  2507   0.300E-03    0.159E-02
RMM:   5    -0.710580879330E+03   -0.20742E-05   -0.50961E-07  2114   0.289E-03    0.118E-02
RMM:   6    -0.710580881861E+03   -0.25310E-05   -0.19361E-07  1708   0.284E-03    0.100E-02
RMM:   7    -0.710580884918E+03   -0.30564E-05   -0.28732E-07  1702   0.287E-03    0.684E-03
RMM:   8    -0.710580886812E+03   -0.18946E-05   -0.37301E-07  1611   0.287E-03
  73 F= -.71058089E+03 E0= -.70996753E+03  d E =-.159020E-03  mag=     5.7268
 trial-energy change:   -0.000159  1 .order   -0.000145   -0.000216   -0.000074
 step:   0.0874(harm=  0.0874)  dis= 0.00076  next Energy=  -710.580892 (dE=-0.164E-03)
 bond charge predicted
       N       E                     dE             d eps       ncg     rms          rms(c)
DAV:   1    -0.710580905776E+03   -0.20858E-04   -0.57096E-04 13456   0.375E-02    0.729E-03
RMM:   2    -0.710580909206E+03   -0.34302E-05   -0.13458E-05  7019   0.685E-03    0.163E-02
RMM:   3    -0.710580908757E+03    0.44946E-06   -0.11305E-06  3787   0.337E-03    0.841E-03
RMM:   4    -0.710580909152E+03   -0.39556E-06   -0.39632E-08  1145   0.241E-03    0.958E-03
RMM:   5    -0.710580910157E+03   -0.10046E-05   -0.31429E-08  1148   0.241E-03    0.815E-03
RMM:   6    -0.710580911202E+03   -0.10446E-05   -0.55449E-08  1196   0.239E-03    0.720E-03
RMM:   7    -0.710580912580E+03   -0.13785E-05   -0.34888E-08  1041   0.238E-03    0.301E-03
RMM:   8    -0.710580913303E+03   -0.72258E-06   -0.25155E-08   936   0.236E-03
  74 F= -.71058091E+03 E0= -.70996757E+03  d E =-.185510E-03  mag=     5.7266
 curvature:  -0.08 expect dE=-0.114E-03 dE for cont linesearch -0.374E-10
 trial: gam= 0.24114 g(F)=  0.143E-02 g(S)=  0.000E+00 ort = 0.179E-05 (trialstep = 0.635E-01)
 search vector abs. value=  0.183E-02
 bond charge predicted
       N       E                     dE             d eps       ncg     rms          rms(c)
DAV:   1    -0.710580967463E+03   -0.54883E-04   -0.14029E-03 13616   0.581E-02    0.106E-02
RMM:   2    -0.710580977654E+03   -0.10191E-04   -0.38271E-05  7115   0.106E-02    0.347E-02
RMM:   3    -0.710580971544E+03    0.61100E-05   -0.50553E-06  6585   0.520E-03    0.179E-02
RMM:   4    -0.710580971984E+03   -0.44057E-06   -0.27402E-07  1448   0.239E-03    0.110E-02
RMM:   5    -0.710580972745E+03   -0.76047E-06   -0.28725E-07  1584   0.242E-03    0.926E-03
RMM:   6    -0.710580973141E+03   -0.39637E-06   -0.30050E-08  1103   0.234E-03    0.490E-03
RMM:   7    -0.710580974396E+03   -0.12553E-05   -0.17201E-07  1324   0.249E-03    0.540E-03
RMM:   8    -0.710580974757E+03   -0.36072E-06   -0.16658E-07  1258   0.253E-03
  75 F= -.71058097E+03 E0= -.70996763E+03  d E =-.614544E-04  mag=     5.7266
 trial-energy change:   -0.000061  1 .order   -0.000056   -0.000091   -0.000022
 step:   0.0838(harm=  0.0838)  dis= 0.00020  next Energy=  -710.580973 (dE=-0.600E-04)
 reached required accuracy - stopping structural energy minimisation
 writing wavefunctions
