       N       E                     dE             d eps       ncg     rms          rms(c)
DAV:   1     0.901943395717E+04    0.90194E+04   -0.34264E+05 24864   0.112E+03
DAV:   2     0.779525583649E+03   -0.82399E+04   -0.74232E+04 31072   0.305E+02
DAV:   3    -0.911379255292E+03   -0.16909E+04   -0.16687E+04 29584   0.149E+02
DAV:   4    -0.995906362223E+03   -0.84527E+02   -0.83945E+02 33392   0.410E+01
DAV:   5    -0.999266030170E+03   -0.33597E+01   -0.33504E+01 39872   0.649E+00    0.176E+02
RMM:   6    -0.944190909483E+03    0.55075E+02   -0.27768E+03 27055   0.918E+01    0.354E+02
RMM:   7    -0.730757161824E+03    0.21343E+03   -0.33256E+02 24333   0.305E+01    0.211E+02
RMM:   8    -0.907379903364E+03   -0.17662E+03   -0.31066E+02 24391   0.278E+01    0.215E+02
RMM:   9    -0.661899622798E+03    0.24548E+03   -0.16204E+02 24327   0.205E+01    0.145E+02
RMM:  10    -0.556860749891E+03    0.10504E+03   -0.78534E+01 24357   0.151E+01    0.834E+01
RMM:  11    -0.534158360163E+03    0.22702E+02   -0.29101E+01 24384   0.837E+00    0.807E+01
RMM:  12    -0.529382804838E+03    0.47756E+01   -0.15434E+01 24589   0.643E+00    0.742E+01
RMM:  13    -0.522843849971E+03    0.65390E+01   -0.16336E+01 24519   0.648E+00    0.631E+01
RMM:  14    -0.514095336442E+03    0.87485E+01   -0.13299E+01 24712   0.600E+00    0.527E+01
RMM:  15    -0.499558832080E+03    0.14537E+02   -0.93805E+00 24346   0.488E+00    0.457E+01
RMM:  16    -0.489832862810E+03    0.97260E+01   -0.45198E+00 24542   0.339E+00    0.386E+01
RMM:  17    -0.481871312409E+03    0.79616E+01   -0.27961E+00 25151   0.248E+00    0.364E+01
RMM:  18    -0.472512495343E+03    0.93588E+01   -0.25387E+00 25070   0.245E+00    0.347E+01
RMM:  19    -0.464250890254E+03    0.82616E+01   -0.21564E+00 25185   0.232E+00    0.317E+01
RMM:  20    -0.457941267423E+03    0.63096E+01   -0.17525E+00 25413   0.194E+00    0.305E+01
RMM:  21    -0.455151736096E+03    0.27895E+01   -0.11026E+00 25441   0.168E+00    0.297E+01
RMM:  22    -0.452681450511E+03    0.24703E+01   -0.12524E+00 26220   0.171E+00    0.282E+01
RMM:  23    -0.456407359454E+03   -0.37259E+01   -0.13148E+00 26872   0.182E+00    0.284E+01
RMM:  24    -0.461922036286E+03   -0.55147E+01   -0.16487E+00 28097   0.199E+00    0.273E+01
RMM:  25    -0.470893891681E+03   -0.89719E+01   -0.15528E+00 27596   0.181E+00    0.266E+01
RMM:  26    -0.483280187444E+03   -0.12386E+02   -0.23206E+00 29172   0.211E+00    0.261E+01
RMM:  27    -0.500228498308E+03   -0.16948E+02   -0.33755E+00 29281   0.238E+00    0.251E+01
RMM:  28    -0.517860775675E+03   -0.17632E+02   -0.42902E+00 31374   0.264E+00    0.245E+01
RMM:  29    -0.537299805410E+03   -0.19439E+02   -0.60925E+00 32836   0.309E+00    0.237E+01
RMM:  30    -0.557514477936E+03   -0.20215E+02   -0.77232E+00 33182   0.338E+00    0.230E+01
RMM:  31    -0.577332262536E+03   -0.19818E+02   -0.72340E+00 33309   0.326E+00    0.223E+01
RMM:  32    -0.595436170909E+03   -0.18104E+02   -0.77206E+00 34316   0.344E+00    0.219E+01
RMM:  33    -0.610320464068E+03   -0.14884E+02   -0.84105E+00 34715   0.347E+00    0.213E+01
RMM:  34    -0.620897787437E+03   -0.10577E+02   -0.73579E+00 34996   0.326E+00    0.192E+01
RMM:  35    -0.624766952186E+03   -0.38692E+01   -0.19303E+00 31586   0.181E+00    0.169E+01
RMM:  36    -0.627949227520E+03   -0.31823E+01   -0.71885E-01 28321   0.119E+00    0.162E+01
RMM:  37    -0.629325036538E+03   -0.13758E+01   -0.43136E-01 27163   0.979E-01    0.154E+01
RMM:  38    -0.631731272538E+03   -0.24062E+01   -0.47428E-01 28549   0.964E-01    0.150E+01
RMM:  39    -0.634452430374E+03   -0.27212E+01   -0.50615E-01 29596   0.100E+00    0.141E+01
RMM:  40    -0.639748446407E+03   -0.52960E+01   -0.88296E-01 31725   0.121E+00    0.134E+01
RMM:  41    -0.644476049385E+03   -0.47276E+01   -0.19974E+00 34244   0.165E+00    0.140E+01
RMM:  42    -0.646781312767E+03   -0.23053E+01   -0.10248E+00 31717   0.119E+00    0.143E+01
RMM:  43    -0.648869732635E+03   -0.20884E+01   -0.74326E-01 30875   0.998E-01    0.146E+01
RMM:  44    -0.650084226966E+03   -0.12145E+01   -0.40560E-01 29107   0.781E-01    0.143E+01
RMM:  45    -0.652659031979E+03   -0.25748E+01   -0.64627E-01 31278   0.987E-01    0.146E+01
RMM:  46    -0.655682805764E+03   -0.30238E+01   -0.10423E+00 32841   0.123E+00    0.148E+01
RMM:  47    -0.657747638328E+03   -0.20648E+01   -0.74873E-01 31488   0.956E-01    0.145E+01
RMM:  48    -0.659334057310E+03   -0.15864E+01   -0.45944E-01 29358   0.767E-01    0.132E+01
RMM:  49    -0.661114365828E+03   -0.17803E+01   -0.45936E-01 30318   0.812E-01    0.118E+01
RMM:  50    -0.663153442373E+03   -0.20391E+01   -0.39911E-01 29783   0.743E-01    0.101E+01
RMM:  51    -0.663765264514E+03   -0.61182E+00   -0.88813E-01 35240   0.130E+00    0.693E+00
RMM:  52    -0.665652486550E+03   -0.18872E+01   -0.40373E-01 31198   0.796E-01    0.604E+00
RMM:  53    -0.666524785988E+03   -0.87230E+00   -0.33322E-01 30020   0.662E-01    0.537E+00
RMM:  54    -0.669081337579E+03   -0.25566E+01   -0.24228E-01 28863   0.524E-01    0.412E+00
RMM:  55    -0.669733888952E+03   -0.65255E+00   -0.65341E-02 25925   0.351E-01    0.359E+00
RMM:  56    -0.669927464411E+03   -0.19358E+00   -0.81638E-02 27564   0.365E-01    0.340E+00
RMM:  57    -0.669747414818E+03    0.18005E+00   -0.99313E-02 27852   0.350E-01    0.302E+00
RMM:  58    -0.669553572451E+03    0.19384E+00   -0.59734E-02 27579   0.297E-01    0.266E+00
RMM:  59    -0.669577415694E+03   -0.23843E-01   -0.34593E-02 26292   0.267E-01    0.241E+00
RMM:  60    -0.669804727921E+03   -0.22731E+00   -0.28069E-02 26435   0.234E-01    0.219E+00
RMM:  61    -0.669983380253E+03   -0.17865E+00   -0.37442E-02 27339   0.298E-01    0.225E+00
RMM:  62    -0.669861521305E+03    0.12186E+00   -0.23586E-02 26811   0.218E-01    0.160E+00
RMM:  63    -0.669973702664E+03   -0.11218E+00   -0.95185E-03 24714   0.125E-01    0.145E+00
RMM:  64    -0.670096824686E+03   -0.12312E+00   -0.68404E-03 24702   0.122E-01    0.133E+00
RMM:  65    -0.670262201314E+03   -0.16538E+00   -0.80967E-03 25916   0.117E-01    0.125E+00
RMM:  66    -0.670324007980E+03   -0.61807E-01   -0.48729E-03 24761   0.994E-02    0.120E+00
RMM:  67    -0.670369622380E+03   -0.45614E-01   -0.31487E-03 24172   0.776E-02    0.111E+00
RMM:  68    -0.670445800283E+03   -0.76178E-01   -0.35273E-03 25192   0.620E-02    0.108E+00
RMM:  69    -0.670512835238E+03   -0.67035E-01   -0.35687E-03 25795   0.697E-02    0.105E+00
RMM:  70    -0.670493721541E+03    0.19114E-01   -0.54078E-03 27324   0.769E-02    0.101E+00
RMM:  71    -0.670376433548E+03    0.11729E+00   -0.34173E-03 25532   0.596E-02    0.965E-01
RMM:  72    -0.670272050092E+03    0.10438E+00   -0.41550E-03 27271   0.641E-02    0.943E-01
RMM:  73    -0.670367705509E+03   -0.95655E-01   -0.36148E-03 27825   0.668E-02    0.908E-01
RMM:  74    -0.670406326083E+03   -0.38621E-01   -0.35911E-03 28052   0.741E-02    0.842E-01
RMM:  75    -0.670413174189E+03   -0.68481E-02   -0.21865E-03 26122   0.625E-02    0.752E-01
RMM:  76    -0.670402408216E+03    0.10766E-01   -0.25065E-03 26753   0.647E-02    0.693E-01
RMM:  77    -0.670415180256E+03   -0.12772E-01   -0.30851E-03 28196   0.723E-02    0.634E-01
RMM:  78    -0.670422868092E+03   -0.76878E-02   -0.35547E-03 29120   0.760E-02    0.509E-01
RMM:  79    -0.670479712622E+03   -0.56845E-01   -0.38162E-03 27911   0.678E-02    0.391E-01
RMM:  80    -0.670546580139E+03   -0.66868E-01   -0.28712E-03 26085   0.570E-02
   1 F= -.67054658E+03 E0= -.67013544E+03  d E =-.670547E+03  mag=    80.3500
       N       E                     dE             d eps       ncg     rms          rms(c)
DAV:   1    -0.669646438404E+03    0.83327E+00   -0.20621E+02 28048   0.132E+01    0.489E+00
RMM:   2    -0.670254009223E+03   -0.60757E+00   -0.69633E+00 24321   0.221E+00    0.288E+00
RMM:   3    -0.670529012614E+03   -0.27500E+00   -0.91704E-01 24354   0.916E-01    0.235E+00
RMM:   4    -0.670554353336E+03   -0.25341E-01   -0.11745E-01 24705   0.503E-01    0.194E+00
RMM:   5    -0.670590096144E+03   -0.35743E-01   -0.44214E-02 24038   0.302E-01    0.128E+00
RMM:   6    -0.670649581741E+03   -0.59486E-01   -0.23088E-02 24281   0.189E-01    0.127E+00
RMM:   7    -0.670683546168E+03   -0.33964E-01   -0.10612E-02 23950   0.154E-01    0.751E-01
RMM:   8    -0.670706876670E+03   -0.23331E-01   -0.47046E-03 23581   0.956E-02    0.418E-01
RMM:   9    -0.670724991827E+03   -0.18115E-01   -0.18994E-03 23234   0.621E-02    0.244E-01
RMM:  10    -0.670735405156E+03   -0.10413E-01   -0.87033E-04 23471   0.361E-02    0.155E-01
RMM:  11    -0.670751756896E+03   -0.16352E-01   -0.37066E-04 20330   0.208E-02    0.128E-01
RMM:  12    -0.670770491525E+03   -0.18735E-01   -0.22134E-04 17707   0.175E-02    0.128E-01
RMM:  13    -0.670792229538E+03   -0.21738E-01   -0.18778E-04 16522   0.169E-02    0.110E-01
RMM:  14    -0.670808956333E+03   -0.16727E-01   -0.13446E-04 15583   0.129E-02    0.995E-02
RMM:  15    -0.670823165189E+03   -0.14209E-01   -0.12533E-04 15796   0.119E-02    0.974E-02
RMM:  16    -0.670833937851E+03   -0.10773E-01   -0.11692E-04 15115   0.116E-02    0.907E-02
RMM:  17    -0.670847023084E+03   -0.13085E-01   -0.19133E-04 16480   0.133E-02    0.884E-02
RMM:  18    -0.670862940410E+03   -0.15917E-01   -0.16078E-04 15757   0.117E-02    0.809E-02
RMM:  19    -0.670876141389E+03   -0.13201E-01   -0.70053E-05 13973   0.887E-03    0.766E-02
RMM:  20    -0.670886832395E+03   -0.10691E-01   -0.35613E-05 13753   0.719E-03    0.743E-02
RMM:  21    -0.670904099366E+03   -0.17267E-01   -0.34298E-05 13879   0.700E-03    0.725E-02
RMM:  22    -0.670923027864E+03   -0.18928E-01   -0.31045E-05 14110   0.719E-03    0.680E-02
RMM:  23    -0.670941532336E+03   -0.18504E-01   -0.23903E-05 13511   0.695E-03    0.653E-02
RMM:  24    -0.670962410663E+03   -0.20878E-01   -0.25633E-05 13385   0.712E-03    0.614E-02
RMM:  25    -0.670990653389E+03   -0.28243E-01   -0.53027E-05 13922   0.752E-03    0.566E-02
RMM:  26    -0.671011927053E+03   -0.21274E-01   -0.28011E-05 13052   0.650E-03    0.513E-02
RMM:  27    -0.671025805331E+03   -0.13878E-01   -0.17641E-05 12671   0.567E-03    0.482E-02
RMM:  28    -0.671039684895E+03   -0.13880E-01   -0.13128E-05 12189   0.484E-03    0.434E-02
RMM:  29    -0.671059891552E+03   -0.20207E-01   -0.21496E-05 13405   0.538E-03    0.430E-02
RMM:  30    -0.671081210918E+03   -0.21319E-01   -0.21849E-05 13171   0.577E-03    0.369E-02
RMM:  31    -0.671099138078E+03   -0.17927E-01   -0.16799E-05 12989   0.547E-03    0.339E-02
RMM:  32    -0.671114025759E+03   -0.14888E-01   -0.12816E-05 12593   0.487E-03    0.291E-02
RMM:  33    -0.671126007168E+03   -0.11981E-01   -0.10986E-05 12421   0.433E-03    0.252E-02
RMM:  34    -0.671134802887E+03   -0.87957E-02   -0.10805E-05 12312   0.401E-03    0.236E-02
RMM:  35    -0.671140094754E+03   -0.52919E-02   -0.81295E-06 11957   0.391E-03    0.214E-02
RMM:  36    -0.671143887934E+03   -0.37932E-02   -0.69753E-06 11154   0.363E-03    0.189E-02
RMM:  37    -0.671146716738E+03   -0.28288E-02   -0.72820E-06 11334   0.353E-03    0.175E-02
RMM:  38    -0.671147910566E+03   -0.11938E-02   -0.54386E-06 10798   0.325E-03    0.151E-02
RMM:  39    -0.671148598389E+03   -0.68782E-03   -0.49934E-06 10643   0.307E-03    0.138E-02
RMM:  40    -0.671148952134E+03   -0.35375E-03   -0.40043E-06 10062   0.293E-03    0.128E-02
RMM:  41    -0.671149348291E+03   -0.39616E-03   -0.35495E-06  9247   0.278E-03    0.112E-02
RMM:  42    -0.671150367215E+03   -0.10189E-02   -0.44559E-06 10267   0.295E-03    0.110E-02
RMM:  43    -0.671151929247E+03   -0.15620E-02   -0.45705E-06 10549   0.302E-03    0.104E-02
RMM:  44    -0.671153219254E+03   -0.12900E-02   -0.28931E-06  9406   0.270E-03    0.757E-03
RMM:  45    -0.671154503033E+03   -0.12838E-02   -0.25425E-06  8592   0.254E-03    0.673E-03
RMM:  46    -0.671155692750E+03   -0.11897E-02   -0.33252E-06  8888   0.258E-03    0.590E-03
RMM:  47    -0.671156118830E+03   -0.42608E-03   -0.16540E-06  7729   0.238E-03    0.492E-03
RMM:  48    -0.671156369078E+03   -0.25025E-03   -0.22447E-06  7936   0.242E-03    0.408E-03
RMM:  49    -0.671156454091E+03   -0.85013E-04   -0.14572E-06  7358   0.230E-03
   2 F= -.67115645E+03 E0= -.67074383E+03  d E =-.609874E+00  mag=    79.9886
       N       E                     dE             d eps       ncg     rms          rms(c)
DAV:   1    -0.671205664532E+03   -0.49295E-01   -0.69974E+00 27232   0.234E+00    0.829E-01
RMM:   2    -0.671213498939E+03   -0.78344E-02   -0.14827E-01 23751   0.374E-01    0.495E-01
RMM:   3    -0.671222177326E+03   -0.86784E-02   -0.19045E-02 22635   0.157E-01    0.440E-01
RMM:   4    -0.671222536408E+03   -0.35908E-03   -0.51227E-03 21801   0.959E-02    0.344E-01
RMM:   5    -0.671222575818E+03   -0.39410E-04   -0.13880E-03 20090   0.529E-02    0.159E-01
RMM:   6    -0.671222874084E+03   -0.29827E-03   -0.67817E-04 19063   0.284E-02    0.164E-01
RMM:   7    -0.671222921173E+03   -0.47088E-04   -0.26372E-04 17048   0.242E-02    0.138E-01
RMM:   8    -0.671222891112E+03    0.30060E-04   -0.12423E-04 14765   0.155E-02
   3 F= -.67122289E+03 E0= -.67081058E+03  d E =-.676311E+00  mag=    79.9877
       N       E                     dE             d eps       ncg     rms          rms(c)
DAV:   1    -0.671307056367E+03   -0.84135E-01   -0.18049E+01 26080   0.377E+00    0.135E+00
RMM:   2    -0.671327778046E+03   -0.20722E-01   -0.39780E-01 24027   0.608E-01    0.812E-01
RMM:   3    -0.671350473952E+03   -0.22696E-01   -0.53676E-02 23274   0.250E-01    0.643E-01
RMM:   4    -0.671351811762E+03   -0.13378E-02   -0.11016E-02 22785   0.151E-01    0.603E-01
RMM:   5    -0.671351634802E+03    0.17696E-03   -0.36454E-03 21560   0.893E-02    0.264E-01
RMM:   6    -0.671352229507E+03   -0.59470E-03   -0.17224E-03 21897   0.479E-02    0.226E-01
RMM:   7    -0.671352331568E+03   -0.10206E-03   -0.71239E-04 20273   0.409E-02    0.158E-01
RMM:   8    -0.671352364183E+03   -0.32615E-04   -0.28238E-04 17430   0.238E-02
   4 F= -.67135236E+03 E0= -.67094036E+03  d E =-.805784E+00  mag=    79.9870
       N       E                     dE             d eps       ncg     rms          rms(c)
DAV:   1    -0.671389044042E+03   -0.36712E-01   -0.33010E+00 26592   0.162E+00    0.591E-01
RMM:   2    -0.671393084343E+03   -0.40403E-02   -0.73607E-02 23241   0.264E-01    0.414E-01
RMM:   3    -0.671397271925E+03   -0.41876E-02   -0.97095E-03 22717   0.116E-01    0.473E-01
RMM:   4    -0.671396708141E+03    0.56378E-03   -0.22358E-03 22016   0.670E-02    0.271E-01
RMM:   5    -0.671396812420E+03   -0.10428E-03   -0.61366E-04 19823   0.332E-02    0.148E-01
RMM:   6    -0.671396947723E+03   -0.13530E-03   -0.31469E-04 17818   0.261E-02    0.127E-01
RMM:   7    -0.671397044917E+03   -0.97194E-04   -0.15629E-04 15380   0.202E-02    0.590E-02
RMM:   8    -0.671397106621E+03   -0.61704E-04   -0.62074E-05 13380   0.125E-02
   5 F= -.67139711E+03 E0= -.67098530E+03  d E =-.850526E+00  mag=    79.9863
       N       E                     dE             d eps       ncg     rms          rms(c)
DAV:   1    -0.671457179881E+03   -0.60135E-01   -0.82269E+00 25760   0.257E+00    0.948E-01
RMM:   2    -0.671465531942E+03   -0.83521E-02   -0.18454E-01 23642   0.419E-01    0.579E-01
RMM:   3    -0.671474731593E+03   -0.91997E-02   -0.23778E-02 22840   0.167E-01    0.385E-01
RMM:   4    -0.671475982999E+03   -0.12514E-02   -0.47319E-03 22453   0.980E-02    0.458E-01
RMM:   5    -0.671475841980E+03    0.14102E-03   -0.17313E-03 21143   0.642E-02    0.220E-01
RMM:   6    -0.671476281992E+03   -0.44001E-03   -0.77396E-04 20945   0.350E-02    0.234E-01
RMM:   7    -0.671476255366E+03    0.26627E-04   -0.34578E-04 18572   0.279E-02    0.123E-01
RMM:   8    -0.671476297601E+03   -0.42235E-04   -0.14507E-04 15362   0.173E-02
   6 F= -.67147630E+03 E0= -.67106480E+03  d E =-.929717E+00  mag=    79.9856
       N       E                     dE             d eps       ncg     rms          rms(c)
DAV:   1    -0.671059489259E+03    0.41677E+00   -0.80993E+01 24880   0.839E+00    0.326E+00
RMM:   2    -0.671215264022E+03   -0.15577E+00   -0.22334E+00 24320   0.149E+00    0.208E+00
RMM:   3    -0.671307056222E+03   -0.91792E-01   -0.33345E-01 24457   0.607E-01    0.176E+00
RMM:   4    -0.671305017711E+03    0.20385E-02   -0.54014E-02 24239   0.359E-01    0.153E+00
RMM:   5    -0.671302242261E+03    0.27755E-02   -0.25913E-02 23511   0.212E-01    0.685E-01
RMM:   6    -0.671304942754E+03   -0.27005E-02   -0.10562E-02 23527   0.141E-01    0.831E-01
RMM:   7    -0.671303164288E+03    0.17785E-02   -0.46613E-03 23463   0.100E-01    0.498E-01
RMM:   8    -0.671302912293E+03    0.25200E-03   -0.20037E-03 23762   0.557E-02    0.234E-01
RMM:   9    -0.671303837019E+03   -0.92473E-03   -0.75224E-04 21785   0.348E-02    0.137E-01
RMM:  10    -0.671304872514E+03   -0.10355E-02   -0.29563E-04 17853   0.214E-02    0.729E-02
RMM:  11    -0.671306181801E+03   -0.13093E-02   -0.13224E-04 15407   0.147E-02    0.585E-02
RMM:  12    -0.671307265524E+03   -0.10837E-02   -0.72608E-05 14318   0.122E-02    0.425E-02
RMM:  13    -0.671307962259E+03   -0.69674E-03   -0.37520E-05 13535   0.963E-03    0.323E-02
RMM:  14    -0.671308250456E+03   -0.28820E-03   -0.19193E-05 12921   0.692E-03    0.177E-02
RMM:  15    -0.671308499688E+03   -0.24923E-03   -0.90927E-06 11963   0.457E-03    0.137E-02
RMM:  16    -0.671308713172E+03   -0.21348E-03   -0.52570E-06 11345   0.372E-03    0.117E-02
RMM:  17    -0.671309042408E+03   -0.32924E-03   -0.38890E-06 10994   0.332E-03    0.103E-02
RMM:  18    -0.671309422031E+03   -0.37962E-03   -0.32110E-06 10271   0.304E-03    0.889E-03
RMM:  19    -0.671309779240E+03   -0.35721E-03   -0.27506E-06  9950   0.286E-03    0.854E-03
RMM:  20    -0.671310033989E+03   -0.25475E-03   -0.17883E-06  8882   0.260E-03    0.712E-03
RMM:  21    -0.671310371387E+03   -0.33740E-03   -0.24795E-06  9381   0.269E-03    0.686E-03
RMM:  22    -0.671310631165E+03   -0.25978E-03   -0.19654E-06  8821   0.255E-03    0.626E-03
RMM:  23    -0.671310855658E+03   -0.22449E-03   -0.16338E-06  8178   0.246E-03    0.558E-03
RMM:  24    -0.671311024907E+03   -0.16925E-03   -0.12787E-06  7519   0.234E-03    0.532E-03
RMM:  25    -0.671311172154E+03   -0.14725E-03   -0.74759E-07  6821   0.224E-03    0.519E-03
RMM:  26    -0.671311339820E+03   -0.16767E-03   -0.76798E-07  6721   0.224E-03    0.490E-03
RMM:  27    -0.671311545425E+03   -0.20560E-03   -0.12279E-06  7244   0.230E-03    0.474E-03
RMM:  28    -0.671311744914E+03   -0.19949E-03   -0.12327E-06  7155   0.227E-03    0.449E-03
RMM:  29    -0.671311925611E+03   -0.18070E-03   -0.96806E-07  6767   0.222E-03    0.429E-03
RMM:  30    -0.671312078482E+03   -0.15287E-03   -0.70699E-07  6288   0.218E-03    0.405E-03
RMM:  31    -0.671312287974E+03   -0.20949E-03   -0.72600E-07  6206   0.219E-03    0.386E-03
RMM:  32    -0.671312506483E+03   -0.21851E-03   -0.10810E-06  6455   0.222E-03    0.360E-03
RMM:  33    -0.671312707799E+03   -0.20132E-03   -0.69397E-07  6206   0.221E-03    0.334E-03
RMM:  34    -0.671312871471E+03   -0.16367E-03   -0.69431E-07  6214   0.221E-03    0.313E-03
RMM:  35    -0.671313015107E+03   -0.14364E-03   -0.69352E-07  6151   0.221E-03    0.286E-03
RMM:  36    -0.671313158731E+03   -0.14362E-03   -0.10160E-06  6482   0.223E-03    0.253E-03
RMM:  37    -0.671313225051E+03   -0.66321E-04   -0.41021E-07  5771   0.212E-03
   7 F= -.67131323E+03 E0= -.67089936E+03  d E =0.163073E+00  mag=    80.0053
       N       E                     dE             d eps       ncg     rms          rms(c)
DAV:   1    -0.671405021566E+03   -0.91863E-01   -0.18724E+01 26048   0.391E+00    0.159E+00
RMM:   2    -0.671430833655E+03   -0.25812E-01   -0.43106E-01 24320   0.694E-01    0.994E-01
RMM:   3    -0.671453486447E+03   -0.22653E-01   -0.75205E-02 23979   0.281E-01    0.787E-01
RMM:   4    -0.671454331977E+03   -0.84553E-03   -0.12669E-02 23247   0.169E-01    0.780E-01
RMM:   5    -0.671453976900E+03    0.35508E-03   -0.48303E-03 22560   0.102E-01    0.366E-01
RMM:   6    -0.671454946246E+03   -0.96935E-03   -0.20899E-03 22698   0.596E-02    0.432E-01
RMM:   7    -0.671454343218E+03    0.60303E-03   -0.10411E-03 21253   0.481E-02    0.206E-01
RMM:   8    -0.671454504134E+03   -0.16092E-03   -0.42995E-04 18871   0.284E-02    0.996E-02
RMM:   9    -0.671454693714E+03   -0.18958E-03   -0.14984E-04 15276   0.171E-02    0.569E-02
RMM:  10    -0.671454892294E+03   -0.19858E-03   -0.60609E-05 13433   0.112E-02    0.334E-02
RMM:  11    -0.671455148239E+03   -0.25594E-03   -0.29157E-05 12907   0.766E-03    0.249E-02
RMM:  12    -0.671455332674E+03   -0.18444E-03   -0.16219E-05 12438   0.601E-03    0.172E-02
RMM:  13    -0.671455483111E+03   -0.15044E-03   -0.94842E-06 11964   0.487E-03    0.151E-02
RMM:  14    -0.671455568335E+03   -0.85224E-04   -0.50146E-06 10811   0.383E-03
   8 F= -.67145557E+03 E0= -.67104272E+03  d E =0.207293E-01  mag=    80.0045
       N       E                     dE             d eps       ncg     rms          rms(c)
DAV:   1    -0.671469213639E+03   -0.13731E-01   -0.28828E+00 26304   0.140E+00    0.644E-01
RMM:   2    -0.671474059460E+03   -0.48458E-02   -0.64049E-02 23790   0.237E-01    0.406E-01
RMM:   3    -0.671477315915E+03   -0.32565E-02   -0.10042E-02 21830   0.917E-02    0.247E-01
RMM:   4    -0.671478007914E+03   -0.69200E-03   -0.16463E-03 20955   0.555E-02    0.330E-01
RMM:   5    -0.671478126144E+03   -0.11823E-03   -0.81766E-04 19537   0.428E-02    0.155E-01
RMM:   6    -0.671478387635E+03   -0.26149E-03   -0.34317E-04 18166   0.262E-02    0.170E-01
RMM:   7    -0.671478370342E+03    0.17293E-04   -0.14574E-04 15452   0.186E-02    0.754E-02
RMM:   8    -0.671478446930E+03   -0.76588E-04   -0.57738E-05 13496   0.113E-02
   9 F= -.67147845E+03 E0= -.67106525E+03  d E =-.228786E-01  mag=    80.0044
       N       E                     dE             d eps       ncg     rms          rms(c)
DAV:   1    -0.671479941489E+03   -0.15711E-02   -0.96715E-02 26160   0.256E-01    0.117E-01
RMM:   2    -0.671480116420E+03   -0.17493E-03   -0.21250E-03 19116   0.451E-02    0.844E-02
RMM:   3    -0.671480282469E+03   -0.16605E-03   -0.36944E-04 15532   0.217E-02    0.780E-02
RMM:   4    -0.671480316077E+03   -0.33608E-04   -0.88630E-05 13593   0.146E-02    0.576E-02
RMM:   5    -0.671480384128E+03   -0.68050E-04   -0.26807E-05 12761   0.790E-03    0.508E-02
RMM:   6    -0.671480416548E+03   -0.32420E-04   -0.14126E-05 12218   0.629E-03    0.233E-02
RMM:   7    -0.671480461798E+03   -0.45251E-04   -0.60369E-06 11190   0.426E-03    0.135E-02
RMM:   8    -0.671480479611E+03   -0.17812E-04   -0.21404E-06  9376   0.293E-03
  10 F= -.67148048E+03 E0= -.67106725E+03  d E =-.249113E-01  mag=    80.0043
       N       E                     dE             d eps       ncg     rms          rms(c)
DAV:   1    -0.671532824019E+03   -0.52362E-01   -0.34283E-01 26944   0.666E-01    0.156E-01
RMM:   2    -0.671533534646E+03   -0.71063E-03   -0.78503E-03 23113   0.126E-01    0.127E-01
RMM:   3    -0.671533839472E+03   -0.30483E-03   -0.13684E-03 20920   0.522E-02    0.148E-01
RMM:   4    -0.671533780446E+03    0.59026E-04   -0.28183E-04 17061   0.270E-02    0.634E-02
RMM:   5    -0.671533805361E+03   -0.24915E-04   -0.11004E-04 14639   0.149E-02    0.741E-02
RMM:   6    -0.671533782250E+03    0.23111E-04   -0.40897E-05 13508   0.105E-02    0.481E-02
RMM:   7    -0.671533779801E+03    0.24494E-05   -0.25662E-05 12917   0.764E-03    0.298E-02
RMM:   8    -0.671533777020E+03    0.27805E-05   -0.10868E-05 12131   0.569E-03
  11 F= -.67153378E+03 E0= -.67112066E+03  d E =-.532974E-01  mag=    80.0041
       N       E                     dE             d eps       ncg     rms          rms(c)
DAV:   1    -0.671571423115E+03   -0.37643E-01   -0.87386E-01 26656   0.106E+00    0.248E-01
RMM:   2    -0.671573249274E+03   -0.18262E-02   -0.20034E-02 23793   0.201E-01    0.202E-01
RMM:   3    -0.671573946483E+03   -0.69721E-03   -0.35062E-03 22407   0.837E-02    0.235E-01
RMM:   4    -0.671573799937E+03    0.14655E-03   -0.73330E-04 20035   0.430E-02    0.933E-02
RMM:   5    -0.671573847201E+03   -0.47264E-04   -0.30048E-04 17597   0.226E-02    0.115E-01
RMM:   6    -0.671573775664E+03    0.71537E-04   -0.10742E-04 14797   0.154E-02    0.785E-02
RMM:   7    -0.671573746566E+03    0.29098E-04   -0.61554E-05 13832   0.118E-02    0.502E-02
RMM:   8    -0.671573725357E+03    0.21209E-04   -0.26898E-05 13037   0.874E-03
  12 F= -.67157373E+03 E0= -.67116081E+03  d E =-.932457E-01  mag=    80.0037
       N       E                     dE             d eps       ncg     rms          rms(c)
DAV:   1    -0.671574391794E+03   -0.64523E-03   -0.20165E-02 27392   0.162E-01    0.417E-02
RMM:   2    -0.671574424271E+03   -0.32476E-04   -0.48550E-04 18030   0.314E-02    0.455E-02
RMM:   3    -0.671574440050E+03   -0.15780E-04   -0.90915E-05 14194   0.148E-02    0.374E-02
RMM:   4    -0.671574433987E+03    0.60638E-05   -0.19716E-05 12600   0.776E-03    0.157E-02
RMM:   5    -0.671574427797E+03    0.61891E-05   -0.68351E-06 11089   0.432E-03    0.193E-02
RMM:   6    -0.671574418518E+03    0.92797E-05   -0.37547E-06 10358   0.351E-03    0.108E-02
RMM:   7    -0.671574412564E+03    0.59539E-05   -0.15171E-06  8641   0.265E-03    0.932E-03
RMM:   8    -0.671574409778E+03    0.27856E-05   -0.35811E-07  6521   0.225E-03
  13 F= -.67157441E+03 E0= -.67116157E+03  d E =-.939302E-01  mag=    80.0033
       N       E                     dE             d eps       ncg     rms          rms(c)
DAV:   1    -0.671592938125E+03   -0.18526E-01   -0.17305E-01 26256   0.438E-01    0.135E-01
RMM:   2    -0.671593089847E+03   -0.15172E-03   -0.42884E-03 22151   0.764E-02    0.774E-02
RMM:   3    -0.671593197315E+03   -0.10747E-03   -0.52239E-04 18048   0.313E-02    0.805E-02
RMM:   4    -0.671593187440E+03    0.98753E-05   -0.12359E-04 14713   0.176E-02    0.471E-02
RMM:   5    -0.671593197037E+03   -0.95968E-05   -0.35768E-05 13021   0.942E-03    0.326E-02
RMM:   6    -0.671593202177E+03   -0.51400E-05   -0.15993E-05 12435   0.613E-03    0.353E-02
RMM:   7    -0.671593202210E+03   -0.33062E-07   -0.98257E-06 12229   0.536E-03    0.213E-02
RMM:   8    -0.671593207829E+03   -0.56196E-05   -0.40287E-06 10297   0.335E-03
  14 F= -.67159321E+03 E0= -.67118043E+03  d E =-.187981E-01  mag=    80.0029
       N       E                     dE             d eps       ncg     rms          rms(c)
DAV:   1    -0.671608366976E+03   -0.15165E-01   -0.14623E+00 25536   0.128E+00    0.393E-01
RMM:   2    -0.671610180531E+03   -0.18136E-02   -0.36545E-02 24163   0.223E-01    0.229E-01
RMM:   3    -0.671611221716E+03   -0.10412E-02   -0.45401E-03 22607   0.911E-02    0.243E-01
RMM:   4    -0.671611116277E+03    0.10544E-03   -0.97130E-04 20916   0.480E-02    0.141E-01
RMM:   5    -0.671611186894E+03   -0.70618E-04   -0.32932E-04 17897   0.244E-02    0.120E-01
RMM:   6    -0.671611179244E+03    0.76499E-05   -0.13700E-04 15319   0.177E-02    0.968E-02
RMM:   7    -0.671611187716E+03   -0.84713E-05   -0.89823E-05 14529   0.137E-02    0.486E-02
RMM:   8    -0.671611210382E+03   -0.22667E-04   -0.36201E-05 13288   0.942E-03
  15 F= -.67161121E+03 E0= -.67119864E+03  d E =-.368006E-01  mag=    80.0025
       N       E                     dE             d eps       ncg     rms          rms(c)
DAV:   1    -0.671612423819E+03   -0.12361E-02   -0.68000E-02 27120   0.277E-01    0.884E-02
RMM:   2    -0.671612652538E+03   -0.22872E-03   -0.17168E-03 20431   0.486E-02    0.654E-02
RMM:   3    -0.671612730445E+03   -0.77907E-04   -0.22294E-04 15761   0.219E-02    0.707E-02
RMM:   4    -0.671612730438E+03    0.74506E-08   -0.56075E-05 13457   0.129E-02    0.314E-02
RMM:   5    -0.671612748865E+03   -0.18427E-04   -0.14533E-05 12341   0.595E-03    0.279E-02
RMM:   6    -0.671612762468E+03   -0.13603E-04   -0.67724E-06 11753   0.454E-03    0.210E-02
RMM:   7    -0.671612782326E+03   -0.19858E-04   -0.44080E-06 10803   0.352E-03    0.121E-02
RMM:   8    -0.671612798658E+03   -0.16332E-04   -0.12354E-06  8221   0.257E-03
  16 F= -.67161280E+03 E0= -.67120015E+03  d E =-.383889E-01  mag=    80.0021
       N       E                     dE             d eps       ncg     rms          rms(c)
DAV:   1    -0.671627740024E+03   -0.14958E-01   -0.16993E-01 26320   0.373E-01    0.133E-01
RMM:   2    -0.671627885157E+03   -0.14513E-03   -0.41177E-03 20963   0.608E-02    0.741E-02
RMM:   3    -0.671627976556E+03   -0.91399E-04   -0.43003E-04 16564   0.245E-02    0.573E-02
RMM:   4    -0.671627999154E+03   -0.22599E-04   -0.92183E-05 13929   0.141E-02    0.614E-02
RMM:   5    -0.671628013309E+03   -0.14155E-04   -0.29509E-05 12978   0.872E-03    0.346E-02
RMM:   6    -0.671628036508E+03   -0.23199E-04   -0.13616E-05 12240   0.553E-03    0.300E-02
RMM:   7    -0.671628064427E+03   -0.27919E-04   -0.78893E-06 11772   0.501E-03    0.151E-02
RMM:   8    -0.671628086435E+03   -0.22008E-04   -0.28091E-06 10007   0.321E-03
  17 F= -.67162809E+03 E0= -.67121549E+03  d E =-.152878E-01  mag=    80.0018
       N       E                     dE             d eps       ncg     rms          rms(c)
DAV:   1    -0.671639729820E+03   -0.11665E-01   -0.99676E-01 25376   0.905E-01    0.321E-01
RMM:   2    -0.671640659071E+03   -0.92925E-03   -0.23962E-02 23974   0.147E-01    0.181E-01
RMM:   3    -0.671641534965E+03   -0.87589E-03   -0.25815E-03 20988   0.589E-02    0.149E-01
RMM:   4    -0.671641630157E+03   -0.95192E-04   -0.51839E-04 18745   0.326E-02    0.149E-01
RMM:   5    -0.671641654722E+03   -0.24565E-04   -0.17291E-04 15737   0.196E-02    0.897E-02
RMM:   6    -0.671641723725E+03   -0.69003E-04   -0.84916E-05 14342   0.136E-02    0.675E-02
RMM:   7    -0.671641816797E+03   -0.93072E-04   -0.49123E-05 13560   0.112E-02    0.344E-02
RMM:   8    -0.671641873590E+03   -0.56793E-04   -0.17409E-05 12477   0.687E-03
  18 F= -.67164187E+03 E0= -.67122937E+03  d E =-.290749E-01  mag=    80.0015
       N       E                     dE             d eps       ncg     rms          rms(c)
DAV:   1    -0.671659684427E+03   -0.17868E-01   -0.17796E-01 26592   0.445E-01    0.109E-01
RMM:   2    -0.671660025345E+03   -0.34092E-03   -0.36568E-03 22077   0.723E-02    0.727E-02
RMM:   3    -0.671660166451E+03   -0.14111E-03   -0.48752E-04 18070   0.308E-02    0.881E-02
RMM:   4    -0.671660160759E+03    0.56922E-05   -0.11040E-04 14627   0.169E-02    0.454E-02
RMM:   5    -0.671660203903E+03   -0.43144E-04   -0.34689E-05 13265   0.918E-03    0.436E-02
RMM:   6    -0.671660235748E+03   -0.31845E-04   -0.17270E-05 12448   0.695E-03    0.271E-02
RMM:   7    -0.671660294285E+03   -0.58537E-04   -0.11425E-05 12094   0.500E-03    0.170E-02
RMM:   8    -0.671660325339E+03   -0.31054E-04   -0.39540E-06 10786   0.368E-03
  19 F= -.67166033E+03 E0= -.67124779E+03  d E =-.184517E-01  mag=    80.0014
       N       E                     dE             d eps       ncg     rms          rms(c)
DAV:   1    -0.671668649505E+03   -0.83552E-02   -0.16973E-01 26688   0.434E-01    0.106E-01
RMM:   2    -0.671668953065E+03   -0.30356E-03   -0.34659E-03 22015   0.704E-02    0.688E-02
RMM:   3    -0.671669076764E+03   -0.12370E-03   -0.46069E-04 17838   0.298E-02    0.820E-02
RMM:   4    -0.671669071142E+03    0.56219E-05   -0.10801E-04 14452   0.168E-02    0.397E-02
RMM:   5    -0.671669099191E+03   -0.28049E-04   -0.34511E-05 12971   0.913E-03    0.346E-02
RMM:   6    -0.671669120185E+03   -0.20994E-04   -0.15924E-05 12331   0.631E-03    0.305E-02
RMM:   7    -0.671669144521E+03   -0.24336E-04   -0.10286E-05 12090   0.515E-03    0.209E-02
RMM:   8    -0.671669160847E+03   -0.16326E-04   -0.36414E-06 10234   0.337E-03
  20 F= -.67166916E+03 E0= -.67125661E+03  d E =-.272873E-01  mag=    80.0012
       N       E                     dE             d eps       ncg     rms          rms(c)
DAV:   1    -0.671670008909E+03   -0.86439E-03   -0.29214E-02 27152   0.180E-01    0.440E-02
RMM:   2    -0.671670074648E+03   -0.65739E-04   -0.60245E-04 17751   0.292E-02    0.301E-02
RMM:   3    -0.671670103228E+03   -0.28579E-04   -0.77609E-05 13969   0.130E-02    0.346E-02
RMM:   4    -0.671670108135E+03   -0.49071E-05   -0.18979E-05 12378   0.739E-03    0.172E-02
RMM:   5    -0.671670124463E+03   -0.16328E-04   -0.56649E-06 10696   0.395E-03    0.116E-02
RMM:   6    -0.671670140643E+03   -0.16180E-04   -0.28151E-06  9010   0.295E-03    0.946E-03
RMM:   7    -0.671670155942E+03   -0.15298E-04   -0.11735E-06  7965   0.253E-03    0.923E-03
RMM:   8    -0.671670162800E+03   -0.68587E-05   -0.19784E-07  5703   0.215E-03
  21 F= -.67167016E+03 E0= -.67125761E+03  d E =-.282892E-01  mag=    80.0011
       N       E                     dE             d eps       ncg     rms          rms(c)
DAV:   1    -0.671679393582E+03   -0.92376E-02   -0.10839E-01 26304   0.322E-01    0.119E-01
RMM:   2    -0.671679568139E+03   -0.17456E-03   -0.22092E-03 21122   0.534E-02    0.706E-02
RMM:   3    -0.671679632440E+03   -0.64300E-04   -0.25353E-04 15936   0.226E-02    0.703E-02
RMM:   4    -0.671679631724E+03    0.71572E-06   -0.74355E-05 13918   0.144E-02    0.529E-02
RMM:   5    -0.671679645454E+03   -0.13730E-04   -0.26997E-05 12881   0.863E-03    0.298E-02
RMM:   6    -0.671679655331E+03   -0.98767E-05   -0.11755E-05 12232   0.549E-03    0.301E-02
RMM:   7    -0.671679662869E+03   -0.75381E-05   -0.69442E-06 11679   0.458E-03    0.181E-02
RMM:   8    -0.671679670407E+03   -0.75381E-05   -0.18738E-06  9220   0.284E-03
  22 F= -.67167967E+03 E0= -.67126711E+03  d E =-.950761E-02  mag=    80.0009
       N       E                     dE             d eps       ncg     rms          rms(c)
DAV:   1    -0.671683014950E+03   -0.33521E-02   -0.14957E-01 26064   0.378E-01    0.139E-01
RMM:   2    -0.671683249831E+03   -0.23488E-03   -0.30328E-03 21923   0.626E-02    0.825E-02
RMM:   3    -0.671683334496E+03   -0.84665E-04   -0.34954E-04 16796   0.262E-02    0.813E-02
RMM:   4    -0.671683332265E+03    0.22310E-05   -0.97771E-05 14423   0.165E-02    0.636E-02
RMM:   5    -0.671683341781E+03   -0.95158E-05   -0.36545E-05 13285   0.101E-02    0.390E-02
RMM:   6    -0.671683347190E+03   -0.54091E-05   -0.16413E-05 12539   0.642E-03    0.360E-02
RMM:   7    -0.671683351543E+03   -0.43535E-05   -0.10142E-05 12014   0.535E-03    0.198E-02
RMM:   8    -0.671683358778E+03   -0.72345E-05   -0.30312E-06 10286   0.331E-03
  23 F= -.67168336E+03 E0= -.67127077E+03  d E =-.131960E-01  mag=    80.0008
       N       E                     dE             d eps       ncg     rms          rms(c)
DAV:   1    -0.671685970676E+03   -0.26191E-02   -0.39901E-02 27152   0.221E-01    0.646E-02
RMM:   2    -0.671686056979E+03   -0.86302E-04   -0.10036E-03 19650   0.406E-02    0.401E-02
RMM:   3    -0.671686091147E+03   -0.34168E-04   -0.14527E-04 15179   0.165E-02    0.315E-02
RMM:   4    -0.671686096887E+03   -0.57397E-05   -0.30156E-05 13178   0.933E-03    0.318E-02
RMM:   5    -0.671686101142E+03   -0.42552E-05   -0.92267E-06 12239   0.525E-03    0.187E-02
RMM:   6    -0.671686110542E+03   -0.93998E-05   -0.45658E-06 11191   0.359E-03    0.164E-02
RMM:   7    -0.671686123441E+03   -0.12899E-04   -0.29473E-06 10702   0.326E-03    0.101E-02
RMM:   8    -0.671686131499E+03   -0.80578E-05   -0.77059E-07  7544   0.238E-03
  24 F= -.67168613E+03 E0= -.67127353E+03  d E =-.277272E-02  mag=    80.0006
       N       E                     dE             d eps       ncg     rms          rms(c)
DAV:   1    -0.671686496405E+03   -0.37296E-03   -0.12747E-02 27120   0.125E-01    0.370E-02
RMM:   2    -0.671686523148E+03   -0.26743E-04   -0.32614E-04 16493   0.231E-02    0.229E-02
RMM:   3    -0.671686534276E+03   -0.11128E-04   -0.45121E-05 13763   0.100E-02    0.185E-02
RMM:   4    -0.671686536611E+03   -0.23348E-05   -0.10081E-05 12257   0.547E-03    0.170E-02
RMM:   5    -0.671686540519E+03   -0.39078E-05   -0.31288E-06 10487   0.335E-03    0.902E-03
RMM:   6    -0.671686547331E+03   -0.68117E-05   -0.10074E-06  7782   0.242E-03    0.981E-03
RMM:   7    -0.671686555789E+03   -0.84587E-05   -0.58440E-07  7007   0.220E-03    0.539E-03
RMM:   8    -0.671686562820E+03   -0.70306E-05   -0.51211E-08  5210   0.192E-03
  25 F= -.67168656E+03 E0= -.67127396E+03  d E =-.320404E-02  mag=    80.0005
       N       E                     dE             d eps       ncg     rms          rms(c)
DAV:   1    -0.671688008223E+03   -0.14524E-02   -0.23592E-02 26896   0.160E-01    0.570E-02
RMM:   2    -0.671688059915E+03   -0.51692E-04   -0.56070E-04 17429   0.292E-02    0.370E-02
RMM:   3    -0.671688077143E+03   -0.17228E-04   -0.79027E-05 14623   0.130E-02    0.329E-02
RMM:   4    -0.671688072335E+03    0.48084E-05   -0.21396E-05 12706   0.777E-03    0.245E-02
RMM:   5    -0.671688067615E+03    0.47199E-05   -0.63067E-06 11568   0.434E-03    0.111E-02
RMM:   6    -0.671688071660E+03   -0.40452E-05   -0.25430E-06  9914   0.302E-03    0.150E-02
RMM:   7    -0.671688076149E+03   -0.44894E-05   -0.10179E-06  8239   0.254E-03    0.744E-03
RMM:   8    -0.671688081760E+03   -0.56112E-05   -0.11393E-07  5683   0.207E-03
  26 F= -.67168808E+03 E0= -.67127548E+03  d E =-.151894E-02  mag=    80.0004
       N       E                     dE             d eps       ncg     rms          rms(c)
DAV:   1    -0.671688475391E+03   -0.39924E-03   -0.37483E-02 26896   0.202E-01    0.719E-02
RMM:   2    -0.671688554642E+03   -0.79251E-04   -0.88396E-04 18795   0.369E-02    0.443E-02
RMM:   3    -0.671688577130E+03   -0.22488E-04   -0.12401E-04 15042   0.156E-02    0.361E-02
RMM:   4    -0.671688569502E+03    0.76275E-05   -0.32814E-05 13250   0.962E-03    0.322E-02
RMM:   5    -0.671688557269E+03    0.12233E-04   -0.99177E-06 12107   0.543E-03    0.134E-02
RMM:   6    -0.671688559602E+03   -0.23339E-05   -0.44929E-06 11208   0.363E-03    0.201E-02
RMM:   7    -0.671688560737E+03   -0.11348E-05   -0.21031E-06 10058   0.302E-03    0.884E-03
RMM:   8    -0.671688565616E+03   -0.48792E-05   -0.26081E-07  6224   0.215E-03
  27 F= -.67168857E+03 E0= -.67127596E+03  d E =-.200280E-02  mag=    80.0004
       N       E                     dE             d eps       ncg     rms          rms(c)
DAV:   1    -0.671689465129E+03   -0.90439E-03   -0.10251E-02 26736   0.100E-01    0.455E-02
RMM:   2    -0.671689492065E+03   -0.26936E-04   -0.22312E-04 15720   0.180E-02    0.271E-02
RMM:   3    -0.671689504467E+03   -0.12402E-04   -0.30291E-05 13925   0.813E-03    0.250E-02
RMM:   4    -0.671689502095E+03    0.23725E-05   -0.80214E-06 11833   0.477E-03    0.203E-02
RMM:   5    -0.671689498070E+03    0.40247E-05   -0.24646E-06  9679   0.303E-03    0.107E-02
RMM:   6    -0.671689497846E+03    0.22445E-06   -0.82973E-07  7814   0.245E-03    0.642E-03
RMM:   7    -0.671689500709E+03   -0.28629E-05   -0.29675E-07  6093   0.216E-03    0.356E-03
RMM:   8    -0.671689505244E+03   -0.45351E-05   -0.42784E-08  5200   0.201E-03
  28 F= -.67168951E+03 E0= -.67127690E+03  d E =-.939627E-03  mag=    80.0004
       N       E                     dE             d eps       ncg     rms          rms(c)
DAV:   1    -0.671690549445E+03   -0.10487E-02   -0.92253E-02 26688   0.300E-01    0.136E-01
RMM:   2    -0.671690765150E+03   -0.21571E-03   -0.20013E-03 21339   0.533E-02    0.762E-02
RMM:   3    -0.671690835586E+03   -0.70436E-04   -0.26786E-04 16163   0.218E-02    0.554E-02
RMM:   4    -0.671690823835E+03    0.11751E-04   -0.80392E-05 14679   0.144E-02    0.549E-02
RMM:   5    -0.671690793463E+03    0.30373E-04   -0.25716E-05 13120   0.862E-03    0.276E-02
RMM:   6    -0.671690788189E+03    0.52736E-05   -0.96096E-06 12189   0.493E-03    0.274E-02
RMM:   7    -0.671690783575E+03    0.46142E-05   -0.58061E-06 11810   0.428E-03    0.147E-02
RMM:   8    -0.671690787559E+03   -0.39847E-05   -0.20900E-06  9527   0.291E-03
  29 F= -.67169079E+03 E0= -.67127817E+03  d E =-.222194E-02  mag=    80.0004
       N       E                     dE             d eps       ncg     rms          rms(c)
DAV:   1    -0.671692718403E+03   -0.19348E-02   -0.19605E-02 26864   0.147E-01    0.585E-02
RMM:   2    -0.671692758371E+03   -0.39968E-04   -0.38893E-04 16837   0.264E-02    0.333E-02
RMM:   3    -0.671692780190E+03   -0.21819E-04   -0.55935E-05 14514   0.111E-02    0.237E-02
RMM:   4    -0.671692779534E+03    0.65565E-06   -0.14680E-05 12644   0.667E-03    0.264E-02
RMM:   5    -0.671692773263E+03    0.62715E-05   -0.59379E-06 11847   0.464E-03    0.137E-02
RMM:   6    -0.671692772077E+03    0.11860E-05   -0.21614E-06  9339   0.286E-03    0.110E-02
RMM:   7    -0.671692772551E+03   -0.47451E-06   -0.70314E-07  7646   0.246E-03    0.745E-03
RMM:   8    -0.671692775312E+03   -0.27604E-05   -0.45901E-08  5332   0.205E-03
  30 F= -.67169278E+03 E0= -.67128014E+03  d E =-.198775E-02  mag=    80.0005
       N       E                     dE             d eps       ncg     rms          rms(c)
DAV:   1    -0.671693663129E+03   -0.89058E-03   -0.57796E-02 26992   0.253E-01    0.101E-01
RMM:   2    -0.671693776857E+03   -0.11373E-03   -0.11278E-03 20468   0.453E-02    0.577E-02
RMM:   3    -0.671693831706E+03   -0.54850E-04   -0.17121E-04 15508   0.185E-02    0.484E-02
RMM:   4    -0.671693825689E+03    0.60177E-05   -0.49920E-05 14265   0.122E-02    0.441E-02
RMM:   5    -0.671693809689E+03    0.15999E-04   -0.17938E-05 12966   0.722E-03    0.248E-02
RMM:   6    -0.671693801784E+03    0.79051E-05   -0.75769E-06 12000   0.450E-03    0.220E-02
RMM:   7    -0.671693797961E+03    0.38235E-05   -0.41014E-06 11586   0.383E-03    0.130E-02
RMM:   8    -0.671693800529E+03   -0.25681E-05   -0.94242E-07  8103   0.247E-03
  31 F= -.67169380E+03 E0= -.67128114E+03  d E =-.301297E-02  mag=    80.0007
       N       E                     dE             d eps       ncg     rms          rms(c)
DAV:   1    -0.671693838799E+03   -0.40838E-04   -0.13091E-03 25520   0.384E-02    0.158E-02
RMM:   2    -0.671693851551E+03   -0.12752E-04   -0.27245E-05 14116   0.736E-03    0.123E-02
RMM:   3    -0.671693859401E+03   -0.78501E-05   -0.48008E-06 11212   0.400E-03    0.129E-02
RMM:   4    -0.671693863331E+03   -0.39302E-05   -0.96587E-07  7905   0.252E-03    0.446E-03
RMM:   5    -0.671693873758E+03   -0.10427E-04   -0.15737E-07  5390   0.195E-03    0.380E-03
RMM:   6    -0.671693881625E+03   -0.78673E-05   -0.32259E-08  5003   0.185E-03    0.187E-03
RMM:   7    -0.671693886811E+03   -0.51861E-05   -0.63636E-09  4819   0.185E-03    0.214E-03
RMM:   8    -0.671693889720E+03   -0.29090E-05   -0.24903E-09  4750   0.185E-03
  32 F= -.67169389E+03 E0= -.67128123E+03  d E =-.310216E-02  mag=    80.0008
       N       E                     dE             d eps       ncg     rms          rms(c)
DAV:   1    -0.671694566186E+03   -0.67937E-03   -0.81478E-03 26736   0.990E-02    0.336E-02
RMM:   2    -0.671694570422E+03   -0.42357E-05   -0.19868E-04 15282   0.176E-02    0.203E-02
RMM:   3    -0.671694578151E+03   -0.77290E-05   -0.23773E-05 13635   0.767E-03    0.161E-02
RMM:   4    -0.671694578360E+03   -0.20955E-06   -0.50734E-06 11708   0.401E-03    0.135E-02
RMM:   5    -0.671694580215E+03   -0.18552E-05   -0.17728E-06  9465   0.285E-03    0.651E-03
RMM:   6    -0.671694583467E+03   -0.32512E-05   -0.45663E-07  6337   0.224E-03    0.455E-03
RMM:   7    -0.671694587627E+03   -0.41607E-05   -0.12831E-07  5550   0.205E-03    0.283E-03
RMM:   8    -0.671694591042E+03   -0.34147E-05   -0.21969E-08  5015   0.199E-03
  33 F= -.67169459E+03 E0= -.67128192E+03  d E =-.701322E-03  mag=    80.0009
       N       E                     dE             d eps       ncg     rms          rms(c)
DAV:   1    -0.671694748810E+03   -0.16118E-03   -0.55175E-03 26416   0.815E-02    0.275E-02
RMM:   2    -0.671694753246E+03   -0.44354E-05   -0.13623E-04 15014   0.146E-02    0.180E-02
RMM:   3    -0.671694759777E+03   -0.65309E-05   -0.16750E-05 13285   0.658E-03    0.181E-02
RMM:   4    -0.671694758981E+03    0.79628E-06   -0.34708E-06 11199   0.351E-03    0.115E-02
RMM:   5    -0.671694760735E+03   -0.17541E-05   -0.67567E-07  6860   0.232E-03    0.793E-03
RMM:   6    -0.671694762746E+03   -0.20117E-05   -0.25601E-07  6066   0.219E-03    0.551E-03
RMM:   7    -0.671694766015E+03   -0.32689E-05   -0.11952E-07  5450   0.210E-03    0.325E-03
RMM:   8    -0.671694769209E+03   -0.31935E-05   -0.44927E-08  5109   0.207E-03
  34 F= -.67169477E+03 E0= -.67128208E+03  d E =-.879488E-03  mag=    80.0010
       N       E                     dE             d eps       ncg     rms          rms(c)
DAV:   1    -0.671695027214E+03   -0.26120E-03   -0.31569E-03 26240   0.634E-02    0.223E-02
RMM:   2    -0.671695035517E+03   -0.83027E-05   -0.75903E-05 14692   0.118E-02    0.151E-02
RMM:   3    -0.671695039531E+03   -0.40145E-05   -0.10126E-05 12992   0.546E-03    0.138E-02
RMM:   4    -0.671695039977E+03   -0.44610E-06   -0.21831E-06 10617   0.309E-03    0.868E-03
RMM:   5    -0.671695042715E+03   -0.27381E-05   -0.23549E-07  5860   0.213E-03    0.692E-03
RMM:   6    -0.671695045821E+03   -0.31060E-05   -0.11425E-07  5490   0.209E-03    0.463E-03
RMM:   7    -0.671695050518E+03   -0.46967E-05   -0.44377E-08  5075   0.204E-03    0.234E-03
RMM:   8    -0.671695054151E+03   -0.36331E-05   -0.47675E-08  5054   0.209E-03
  35 F= -.67169505E+03 E0= -.67128236E+03  d E =-.284942E-03  mag=    80.0012
       N       E                     dE             d eps       ncg     rms          rms(c)
DAV:   1    -0.671695261196E+03   -0.21068E-03   -0.25873E-02 27040   0.181E-01    0.640E-02
RMM:   2    -0.671695320666E+03   -0.59470E-04   -0.60652E-04 18891   0.330E-02    0.416E-02
RMM:   3    -0.671695345006E+03   -0.24340E-04   -0.85119E-05 14804   0.142E-02    0.367E-02
RMM:   4    -0.671695341754E+03    0.32522E-05   -0.21970E-05 13653   0.842E-03    0.258E-02
RMM:   5    -0.671695342530E+03   -0.77626E-06   -0.71874E-06 12253   0.467E-03    0.183E-02
RMM:   6    -0.671695345620E+03   -0.30901E-05   -0.38362E-06 11392   0.352E-03    0.140E-02
RMM:   7    -0.671695350790E+03   -0.51702E-05   -0.21810E-06 10867   0.305E-03    0.860E-03
RMM:   8    -0.671695355283E+03   -0.44922E-05   -0.22099E-07  6373   0.224E-03
  36 F= -.67169536E+03 E0= -.67128265E+03  d E =-.586074E-03  mag=    80.0013
       N       E                     dE             d eps       ncg     rms          rms(c)
DAV:   1    -0.671695522367E+03   -0.17158E-03   -0.18601E-03 25792   0.505E-02    0.198E-02
RMM:   2    -0.671695534201E+03   -0.11834E-04   -0.43939E-05 14528   0.988E-03    0.150E-02
RMM:   3    -0.671695540398E+03   -0.61970E-05   -0.65919E-06 12663   0.492E-03    0.154E-02
RMM:   4    -0.671695541617E+03   -0.12191E-05   -0.15314E-06  9620   0.286E-03    0.677E-03
RMM:   5    -0.671695546052E+03   -0.44350E-05   -0.68308E-08  5144   0.197E-03    0.559E-03
RMM:   6    -0.671695550578E+03   -0.45253E-05   -0.49951E-08  5161   0.197E-03    0.346E-03
RMM:   7    -0.671695555423E+03   -0.48457E-05   -0.15518E-08  4901   0.194E-03    0.203E-03
RMM:   8    -0.671695558545E+03   -0.31218E-05   -0.28071E-08  4913   0.200E-03
  37 F= -.67169556E+03 E0= -.67128286E+03  d E =-.203263E-03  mag=    80.0015
       N       E                     dE             d eps       ncg     rms          rms(c)
DAV:   1    -0.671695888498E+03   -0.33307E-03   -0.16768E-02 27296   0.151E-01    0.586E-02
RMM:   2    -0.671695940999E+03   -0.52501E-04   -0.36761E-04 17699   0.280E-02    0.384E-02
RMM:   3    -0.671695965568E+03   -0.24568E-04   -0.53101E-05 14503   0.123E-02    0.320E-02
RMM:   4    -0.671695964089E+03    0.14785E-05   -0.14547E-05 13054   0.718E-03    0.211E-02
RMM:   5    -0.671695966815E+03   -0.27255E-05   -0.50790E-06 11885   0.408E-03    0.157E-02
RMM:   6    -0.671695969647E+03   -0.28322E-05   -0.21601E-06 10176   0.303E-03    0.113E-02
RMM:   7    -0.671695972878E+03   -0.32312E-05   -0.12437E-06  9114   0.270E-03    0.674E-03
RMM:   8    -0.671695975567E+03   -0.26892E-05   -0.11655E-07  5585   0.222E-03
  38 F= -.67169598E+03 E0= -.67128326E+03  d E =-.620285E-03  mag=    80.0016
       N       E                     dE             d eps       ncg     rms          rms(c)
DAV:   1    -0.671696144373E+03   -0.17149E-03   -0.67096E-02 27200   0.303E-01    0.117E-01
RMM:   2    -0.671696351163E+03   -0.20679E-03   -0.14496E-03 22880   0.558E-02    0.751E-02
RMM:   3    -0.671696432800E+03   -0.81637E-04   -0.20903E-04 16169   0.225E-02    0.625E-02
RMM:   4    -0.671696424206E+03    0.85942E-05   -0.60885E-05 14452   0.146E-02    0.438E-02
RMM:   5    -0.671696424308E+03   -0.10151E-06   -0.21514E-05 13715   0.781E-03    0.310E-02
RMM:   6    -0.671696425000E+03   -0.69244E-06   -0.10374E-05 12831   0.552E-03    0.223E-02
RMM:   7    -0.671696427241E+03   -0.22412E-05   -0.67815E-06 12445   0.469E-03    0.151E-02
RMM:   8    -0.671696429386E+03   -0.21444E-05   -0.23392E-06 11172   0.322E-03
  39 F= -.67169643E+03 E0= -.67128370E+03  d E =-.107410E-02  mag=    80.0017
       N       E                     dE             d eps       ncg     rms          rms(c)
DAV:   1    -0.671696633312E+03   -0.20607E-03   -0.17161E-03 26048   0.489E-02    0.190E-02
RMM:   2    -0.671696642181E+03   -0.88695E-05   -0.42284E-05 14402   0.956E-03    0.155E-02
RMM:   3    -0.671696647146E+03   -0.49649E-05   -0.65836E-06 12524   0.476E-03    0.170E-02
RMM:   4    -0.671696647000E+03    0.14668E-06   -0.13195E-06  9460   0.274E-03    0.592E-03
RMM:   5    -0.671696649232E+03   -0.22324E-05   -0.12127E-07  5457   0.202E-03    0.531E-03
RMM:   6    -0.671696651962E+03   -0.27302E-05   -0.31508E-08  4924   0.193E-03    0.286E-03
RMM:   7    -0.671696655048E+03   -0.30855E-05   -0.30368E-08  4915   0.193E-03    0.182E-03
RMM:   8    -0.671696656899E+03   -0.18515E-05   -0.18988E-08  4827   0.197E-03
  40 F= -.67169666E+03 E0= -.67128392E+03  d E =-.227513E-03  mag=    80.0019
       N       E                     dE             d eps       ncg     rms          rms(c)
DAV:   1    -0.671697273161E+03   -0.61811E-03   -0.15469E-02 27152   0.146E-01    0.558E-02
RMM:   2    -0.671697321328E+03   -0.48168E-04   -0.34684E-04 17588   0.272E-02    0.368E-02
RMM:   3    -0.671697344980E+03   -0.23651E-04   -0.52003E-05 14425   0.118E-02    0.286E-02
RMM:   4    -0.671697343843E+03    0.11367E-05   -0.13787E-05 12788   0.690E-03    0.192E-02
RMM:   5    -0.671697345357E+03   -0.15139E-05   -0.48813E-06 11683   0.403E-03    0.133E-02
RMM:   6    -0.671697347031E+03   -0.16741E-05   -0.17872E-06  9179   0.284E-03    0.102E-02
RMM:   7    -0.671697348672E+03   -0.16410E-05   -0.10830E-06  8568   0.263E-03    0.740E-03
RMM:   8    -0.671697349581E+03   -0.90944E-06   -0.12245E-07  5445   0.223E-03
  41 F= -.67169735E+03 E0= -.67128460E+03  d E =-.920196E-03  mag=    80.0020
       N       E                     dE             d eps       ncg     rms          rms(c)
DAV:   1    -0.671698846181E+03   -0.14975E-02   -0.61873E-02 26624   0.292E-01    0.112E-01
RMM:   2    -0.671699039832E+03   -0.19365E-03   -0.13679E-03 22504   0.543E-02    0.734E-02
RMM:   3    -0.671699116071E+03   -0.76239E-04   -0.20541E-04 16211   0.219E-02    0.574E-02
RMM:   4    -0.671699108395E+03    0.76764E-05   -0.58278E-05 14404   0.141E-02    0.388E-02
RMM:   5    -0.671699109270E+03   -0.87544E-06   -0.20654E-05 13325   0.771E-03    0.263E-02
RMM:   6    -0.671699110011E+03   -0.74040E-06   -0.91297E-06 12647   0.504E-03    0.213E-02
RMM:   7    -0.671699110603E+03   -0.59279E-06   -0.57836E-06 12360   0.430E-03    0.168E-02
RMM:   8    -0.671699110402E+03    0.20117E-06   -0.21931E-06 11050   0.311E-03
  42 F= -.67169911E+03 E0= -.67128634E+03  d E =-.268102E-02  mag=    80.0022
       N       E                     dE             d eps       ncg     rms          rms(c)
DAV:   1    -0.671703635347E+03   -0.45247E-02   -0.24749E-01 25712   0.585E-01    0.224E-01
RMM:   2    -0.671704441245E+03   -0.80590E-03   -0.54294E-03 23956   0.109E-01    0.149E-01
RMM:   3    -0.671704689485E+03   -0.24824E-03   -0.83180E-04 21417   0.442E-02    0.114E-01
RMM:   4    -0.671704653236E+03    0.36248E-04   -0.22175E-04 17056   0.257E-02    0.734E-02
RMM:   5    -0.671704648775E+03    0.44615E-05   -0.85877E-05 14720   0.156E-02    0.466E-02
RMM:   6    -0.671704647619E+03    0.11553E-05   -0.39220E-05 14286   0.969E-03    0.317E-02
RMM:   7    -0.671704652437E+03   -0.48177E-05   -0.20460E-05 13934   0.753E-03    0.370E-02
RMM:   8    -0.671704645696E+03    0.67414E-05   -0.81322E-06 12782   0.527E-03
  43 F= -.67170465E+03 E0= -.67129181E+03  d E =-.821631E-02  mag=    80.0024
       N       E                     dE             d eps       ncg     rms          rms(c)
DAV:   1    -0.671701020686E+03    0.36318E-02   -0.99074E-01 26240   0.117E+00    0.448E-01
RMM:   2    -0.671704285907E+03   -0.32652E-02   -0.21709E-02 24320   0.218E-01    0.302E-01
RMM:   3    -0.671705242943E+03   -0.95704E-03   -0.33495E-03 24127   0.891E-02    0.234E-01
RMM:   4    -0.671705081997E+03    0.16095E-03   -0.90239E-04 21860   0.508E-02    0.144E-01
RMM:   5    -0.671705073666E+03    0.83311E-05   -0.35479E-04 18856   0.276E-02    0.101E-01
RMM:   6    -0.671705067156E+03    0.65099E-05   -0.14826E-04 15733   0.178E-02    0.914E-02
RMM:   7    -0.671705046881E+03    0.20275E-04   -0.86612E-05 14817   0.150E-02    0.673E-02
RMM:   8    -0.671705027583E+03    0.19297E-04   -0.34872E-05 14401   0.105E-02
  44 F= -.67170503E+03 E0= -.67129209E+03  d E =-.859820E-02  mag=    80.0026
       N       E                     dE             d eps       ncg     rms          rms(c)
DAV:   1    -0.671706850534E+03   -0.18037E-02   -0.35162E-01 27568   0.696E-01    0.267E-01
RMM:   2    -0.671708004684E+03   -0.11541E-02   -0.76235E-03 24110   0.129E-01    0.182E-01
RMM:   3    -0.671708380797E+03   -0.37611E-03   -0.11689E-03 22272   0.530E-02    0.154E-01
RMM:   4    -0.671708311888E+03    0.68909E-04   -0.31184E-04 18227   0.303E-02    0.943E-02
RMM:   5    -0.671708315960E+03   -0.40717E-05   -0.12340E-04 15256   0.172E-02    0.714E-02
RMM:   6    -0.671708310170E+03    0.57896E-05   -0.50972E-05 14532   0.117E-02    0.484E-02
RMM:   7    -0.671708316900E+03   -0.67297E-05   -0.36172E-05 14067   0.983E-03    0.338E-02
RMM:   8    -0.671708321301E+03   -0.44014E-05   -0.12990E-05 13185   0.657E-03
  45 F= -.67170832E+03 E0= -.67129545E+03  d E =-.118919E-01  mag=    80.0028
       N       E                     dE             d eps       ncg     rms          rms(c)
DAV:   1    -0.671708341511E+03   -0.24611E-04   -0.68670E-02 27536   0.307E-01    0.118E-01
RMM:   2    -0.671708552312E+03   -0.21080E-03   -0.14831E-03 22664   0.571E-02    0.801E-02
RMM:   3    -0.671708639828E+03   -0.87516E-04   -0.22616E-04 16516   0.232E-02    0.698E-02
RMM:   4    -0.671708623490E+03    0.16338E-04   -0.63248E-05 14544   0.146E-02    0.442E-02
RMM:   5    -0.671708622593E+03    0.89733E-06   -0.22356E-05 13498   0.771E-03    0.297E-02
RMM:   6    -0.671708620731E+03    0.18617E-05   -0.10075E-05 12643   0.551E-03    0.201E-02
RMM:   7    -0.671708620826E+03   -0.94995E-07   -0.72245E-06 12476   0.482E-03    0.153E-02
RMM:   8    -0.671708620450E+03    0.37625E-06   -0.25793E-06 11377   0.335E-03
  46 F= -.67170862E+03 E0= -.67129571E+03  d E =-.121911E-01  mag=    80.0030
       N       E                     dE             d eps       ncg     rms          rms(c)
DAV:   1    -0.671708747179E+03   -0.12635E-03   -0.10952E-02 27376   0.123E-01    0.469E-02
RMM:   2    -0.671708777699E+03   -0.30520E-04   -0.23900E-04 16498   0.228E-02    0.328E-02
RMM:   3    -0.671708796754E+03   -0.19055E-04   -0.35935E-05 14389   0.101E-02    0.304E-02
RMM:   4    -0.671708793559E+03    0.31954E-05   -0.88128E-06 12618   0.560E-03    0.177E-02
RMM:   5    -0.671708795047E+03   -0.14883E-05   -0.31508E-06 10974   0.322E-03    0.122E-02
RMM:   6    -0.671708796362E+03   -0.13146E-05   -0.12933E-06  9376   0.268E-03    0.760E-03
RMM:   7    -0.671708798103E+03   -0.17411E-05   -0.67423E-07  7813   0.243E-03    0.451E-03
RMM:   8    -0.671708799593E+03   -0.14901E-05   -0.17259E-07  5657   0.216E-03
  47 F= -.67170880E+03 E0= -.67129591E+03  d E =-.123702E-01  mag=    80.0032
       N       E                     dE             d eps       ncg     rms          rms(c)
DAV:   1    -0.671708984689E+03   -0.18659E-03   -0.14231E-03 25312   0.446E-02    0.166E-02
RMM:   2    -0.671708988646E+03   -0.39567E-05   -0.32206E-05 14052   0.853E-03    0.116E-02
RMM:   3    -0.671708992315E+03   -0.36689E-05   -0.40959E-06 11427   0.383E-03    0.936E-03
RMM:   4    -0.671708992332E+03   -0.17229E-07   -0.54281E-07  7193   0.233E-03    0.511E-03
RMM:   5    -0.671708993143E+03   -0.81072E-06   -0.44299E-08  4959   0.196E-03    0.504E-03
RMM:   6    -0.671708993648E+03   -0.50478E-06   -0.23699E-08  4880   0.195E-03    0.319E-03
RMM:   7    -0.671708994152E+03   -0.50385E-06   -0.22338E-08  4747   0.200E-03    0.163E-03
RMM:   8    -0.671708994489E+03   -0.33760E-06   -0.21312E-08  4679   0.202E-03
  48 F= -.67170899E+03 E0= -.67129610E+03  d E =-.194896E-03  mag=    80.0034
       N       E                     dE             d eps       ncg     rms          rms(c)
DAV:   1    -0.671709182613E+03   -0.18846E-03   -0.12707E-02 26656   0.133E-01    0.500E-02
RMM:   2    -0.671709216747E+03   -0.34134E-04   -0.28505E-04 17021   0.251E-02    0.346E-02
RMM:   3    -0.671709236455E+03   -0.19708E-04   -0.45121E-05 14284   0.111E-02    0.279E-02
RMM:   4    -0.671709234328E+03    0.21276E-05   -0.12184E-05 12448   0.650E-03    0.169E-02
RMM:   5    -0.671709234793E+03   -0.46520E-06   -0.41755E-06 11159   0.375E-03    0.115E-02
RMM:   6    -0.671709234884E+03   -0.91270E-07   -0.13438E-06  8015   0.264E-03    0.813E-03
RMM:   7    -0.671709234928E+03   -0.44238E-07   -0.72474E-07  7453   0.248E-03    0.747E-03
RMM:   8    -0.671709234365E+03    0.56298E-06   -0.97637E-08  5195   0.218E-03
  49 F= -.67170923E+03 E0= -.67129632E+03  d E =-.434772E-03  mag=    80.0036
       N       E                     dE             d eps       ncg     rms          rms(c)
DAV:   1    -0.671709551396E+03   -0.31647E-03   -0.65174E-05 21024   0.957E-03    0.420E-03
RMM:   2    -0.671709551407E+03   -0.11642E-07   -0.29437E-06  9375   0.316E-03    0.813E-03
RMM:   3    -0.671709551438E+03   -0.30734E-07   -0.30995E-07  5767   0.194E-03    0.220E-03
RMM:   4    -0.671709551517E+03   -0.79162E-07   -0.10102E-10  4325   0.162E-03    0.223E-03
RMM:   5    -0.671709551561E+03   -0.43772E-07   -0.29691E-10  4229   0.163E-03    0.154E-03
RMM:   6    -0.671709551669E+03   -0.10757E-06    0.00000E+00  4367   0.163E-03    0.116E-03
RMM:   7    -0.671709551875E+03   -0.20675E-06    0.00000E+00  4535   0.165E-03    0.912E-04
RMM:   8    -0.671709552088E+03   -0.21281E-06   -0.18805E-10  4552   0.165E-03
  50 F= -.67170955E+03 E0= -.67129664E+03  d E =-.317723E-03  mag=    80.0038
       N       E                     dE             d eps       ncg     rms          rms(c)
DAV:   1    -0.671710484339E+03   -0.93246E-03   -0.59483E-04 24336   0.273E-02    0.691E-03
RMM:   2    -0.671710484694E+03   -0.35437E-06   -0.12467E-05 11925   0.493E-03    0.550E-03
RMM:   3    -0.671710485729E+03   -0.10356E-05   -0.13424E-06  7539   0.268E-03    0.528E-03
RMM:   4    -0.671710485764E+03   -0.34459E-07   -0.11197E-07  4987   0.196E-03    0.239E-03
RMM:   5    -0.671710486092E+03   -0.32783E-06   -0.57373E-09  4526   0.186E-03    0.197E-03
RMM:   6    -0.671710486452E+03   -0.35996E-06   -0.10265E-08  4519   0.186E-03    0.184E-03
RMM:   7    -0.671710486712E+03   -0.26077E-06   -0.78895E-09  4501   0.188E-03    0.135E-03
RMM:   8    -0.671710486969E+03   -0.25705E-06   -0.17350E-09  4422   0.188E-03
  51 F= -.67171049E+03 E0= -.67129756E+03  d E =-.125260E-02  mag=    80.0040
       N       E                     dE             d eps       ncg     rms          rms(c)
DAV:   1    -0.671712275410E+03   -0.17887E-02   -0.23362E-03 25312   0.538E-02    0.138E-02
RMM:   2    -0.671712277669E+03   -0.22585E-05   -0.52155E-05 14439   0.940E-03    0.102E-02
RMM:   3    -0.671712280936E+03   -0.32675E-05   -0.68294E-06 11231   0.442E-03    0.113E-02
RMM:   4    -0.671712280683E+03    0.25285E-06   -0.10992E-06  7410   0.249E-03    0.477E-03
RMM:   5    -0.671712281240E+03   -0.55693E-06   -0.18534E-07  5282   0.196E-03    0.464E-03
RMM:   6    -0.671712281611E+03   -0.37067E-06   -0.36417E-08  4763   0.188E-03    0.378E-03
RMM:   7    -0.671712281941E+03   -0.33015E-06   -0.21039E-08  4687   0.189E-03    0.221E-03
RMM:   8    -0.671712282375E+03   -0.43400E-06   -0.11869E-08  4602   0.190E-03
  52 F= -.67171228E+03 E0= -.67129935E+03  d E =-.304801E-02  mag=    80.0042
       N       E                     dE             d eps       ncg     rms          rms(c)
DAV:   1    -0.671715539819E+03   -0.32579E-02   -0.93550E-03 26592   0.107E-01    0.278E-02
RMM:   2    -0.671715551330E+03   -0.11512E-04   -0.20669E-04 15722   0.189E-02    0.203E-02
RMM:   3    -0.671715561292E+03   -0.99614E-05   -0.30140E-05 13305   0.864E-03    0.227E-02
RMM:   4    -0.671715559886E+03    0.14058E-05   -0.66962E-06 11401   0.466E-03    0.107E-02
RMM:   5    -0.671715560762E+03   -0.87637E-06   -0.21769E-06  8648   0.284E-03    0.890E-03
RMM:   6    -0.671715560985E+03   -0.22305E-06   -0.56714E-07  6487   0.231E-03    0.617E-03
RMM:   7    -0.671715561477E+03   -0.49127E-06   -0.19798E-07  5586   0.216E-03    0.538E-03
RMM:   8    -0.671715561855E+03   -0.37858E-06   -0.72205E-08  5049   0.211E-03
  53 F= -.67171556E+03 E0= -.67130261E+03  d E =-.632749E-02  mag=    80.0043
       N       E                     dE             d eps       ncg     rms          rms(c)
DAV:   1    -0.671720489734E+03   -0.49283E-02   -0.37510E-02 26352   0.215E-01    0.558E-02
RMM:   2    -0.671720545090E+03   -0.55355E-04   -0.81724E-04 18939   0.380E-02    0.403E-02
RMM:   3    -0.671720577581E+03   -0.32491E-04   -0.12654E-04 15317   0.164E-02    0.463E-02
RMM:   4    -0.671720571443E+03    0.61374E-05   -0.29717E-05 12955   0.936E-03    0.213E-02
RMM:   5    -0.671720573572E+03   -0.21285E-05   -0.10219E-05 11989   0.502E-03    0.189E-02
RMM:   6    -0.671720573056E+03    0.51642E-06   -0.41996E-06 10800   0.364E-03    0.135E-02
RMM:   7    -0.671720573718E+03   -0.66217E-06   -0.24293E-06  9791   0.301E-03    0.111E-02
RMM:   8    -0.671720574019E+03   -0.30175E-06   -0.72514E-07  7239   0.243E-03
  54 F= -.67172057E+03 E0= -.67130758E+03  d E =-.113397E-01  mag=    80.0045
       N       E                     dE             d eps       ncg     rms          rms(c)
DAV:   1    -0.671723045247E+03   -0.24715E-02   -0.15036E-01 25632   0.430E-01    0.112E-01
RMM:   2    -0.671723291302E+03   -0.24606E-03   -0.32517E-03 22942   0.760E-02    0.798E-02
RMM:   3    -0.671723407378E+03   -0.11608E-03   -0.50593E-04 18211   0.318E-02    0.914E-02
RMM:   4    -0.671723382864E+03    0.24515E-04   -0.11627E-04 15200   0.179E-02    0.442E-02
RMM:   5    -0.671723389606E+03   -0.67423E-05   -0.41569E-05 13506   0.977E-03    0.396E-02
RMM:   6    -0.671723385453E+03    0.41528E-05   -0.16490E-05 12627   0.666E-03    0.286E-02
RMM:   7    -0.671723386052E+03   -0.59884E-06   -0.11187E-05 12168   0.533E-03    0.204E-02
RMM:   8    -0.671723386339E+03   -0.28731E-06   -0.46463E-06 10922   0.386E-03
  55 F= -.67172339E+03 E0= -.67131032E+03  d E =-.141520E-01  mag=    80.0046
       N       E                     dE             d eps       ncg     rms          rms(c)
DAV:   1    -0.671723643167E+03   -0.25711E-03   -0.85644E-03 27440   0.103E-01    0.282E-02
RMM:   2    -0.671723662790E+03   -0.19623E-04   -0.19104E-04 15638   0.184E-02    0.269E-02
RMM:   3    -0.671723674590E+03   -0.11800E-04   -0.30314E-05 13174   0.903E-03    0.255E-02
RMM:   4    -0.671723675056E+03   -0.46659E-06   -0.63692E-06 11515   0.466E-03    0.104E-02
RMM:   5    -0.671723677960E+03   -0.29039E-05   -0.15501E-06  8085   0.263E-03    0.905E-03
RMM:   6    -0.671723680161E+03   -0.22007E-05   -0.37862E-07  6463   0.222E-03    0.739E-03
RMM:   7    -0.671723682125E+03   -0.19642E-05   -0.17968E-07  5527   0.210E-03    0.423E-03
RMM:   8    -0.671723684386E+03   -0.22608E-05   -0.82363E-08  5155   0.208E-03
  56 F= -.67172368E+03 E0= -.67131063E+03  d E =-.144500E-01  mag=    80.0048
       N       E                     dE             d eps       ncg     rms          rms(c)
DAV:   1    -0.671724488946E+03   -0.80682E-03   -0.31285E-03 26528   0.681E-02    0.188E-02
RMM:   2    -0.671724496198E+03   -0.72522E-05   -0.68994E-05 14699   0.124E-02    0.134E-02
RMM:   3    -0.671724500349E+03   -0.41509E-05   -0.86187E-06 13239   0.564E-03    0.140E-02
RMM:   4    -0.671724500386E+03   -0.36787E-07   -0.18595E-06 10648   0.297E-03    0.811E-03
RMM:   5    -0.671724501648E+03   -0.12615E-05   -0.79056E-08  5258   0.201E-03    0.544E-03
RMM:   6    -0.671724503169E+03   -0.15213E-05   -0.71396E-08  5189   0.206E-03    0.386E-03
RMM:   7    -0.671724505318E+03   -0.21490E-05   -0.30100E-08  4825   0.202E-03    0.227E-03
RMM:   8    -0.671724506753E+03   -0.14352E-05   -0.76169E-08  5001   0.211E-03
  57 F= -.67172451E+03 E0= -.67131145E+03  d E =-.822367E-03  mag=    80.0049
       N       E                     dE             d eps       ncg     rms          rms(c)
DAV:   1    -0.671725815082E+03   -0.13098E-02   -0.28066E-02 26704   0.204E-01    0.562E-02
RMM:   2    -0.671725875230E+03   -0.60148E-04   -0.60484E-04 20223   0.369E-02    0.368E-02
RMM:   3    -0.671725905904E+03   -0.30674E-04   -0.85567E-05 14865   0.152E-02    0.395E-02
RMM:   4    -0.671725901083E+03    0.48210E-05   -0.20553E-05 13979   0.865E-03    0.241E-02
RMM:   5    -0.671725901057E+03    0.26077E-07   -0.63292E-06 12369   0.437E-03    0.144E-02
RMM:   6    -0.671725902132E+03   -0.10757E-05   -0.34483E-06 11637   0.366E-03    0.116E-02
RMM:   7    -0.671725904270E+03   -0.21374E-05   -0.19913E-06 10334   0.293E-03    0.648E-03
RMM:   8    -0.671725905268E+03   -0.99838E-06   -0.26050E-07  6265   0.226E-03
  58 F= -.67172591E+03 E0= -.67131283E+03  d E =-.222088E-02  mag=    80.0051
       N       E                     dE             d eps       ncg     rms          rms(c)
DAV:   1    -0.671726016949E+03   -0.11268E-03   -0.49676E-03 27328   0.858E-02    0.239E-02
RMM:   2    -0.671726027039E+03   -0.10090E-04   -0.11170E-04 14880   0.158E-02    0.170E-02
RMM:   3    -0.671726032870E+03   -0.58310E-05   -0.14774E-05 13960   0.730E-03    0.172E-02
RMM:   4    -0.671726032531E+03    0.33854E-06   -0.37040E-06 11915   0.378E-03    0.109E-02
RMM:   5    -0.671726033260E+03   -0.72876E-06   -0.50921E-07  6924   0.226E-03    0.639E-03
RMM:   6    -0.671726034419E+03   -0.11590E-05   -0.28592E-07  6217   0.220E-03    0.499E-03
RMM:   7    -0.671726036177E+03   -0.17579E-05   -0.75327E-08  5127   0.208E-03    0.247E-03
RMM:   8    -0.671726037361E+03   -0.11837E-05   -0.14021E-07  5229   0.205E-03
  59 F= -.67172604E+03 E0= -.67131296E+03  d E =-.235297E-02  mag=    80.0052
       N       E                     dE             d eps       ncg     rms          rms(c)
DAV:   1    -0.671726742325E+03   -0.70615E-03   -0.70903E-03 26672   0.101E-01    0.377E-02
RMM:   2    -0.671726764169E+03   -0.21844E-04   -0.16357E-04 15018   0.198E-02    0.259E-02
RMM:   3    -0.671726778151E+03   -0.13982E-04   -0.22632E-05 14502   0.902E-03    0.292E-02
RMM:   4    -0.671726774605E+03    0.35465E-05   -0.60387E-06 12525   0.476E-03    0.134E-02
RMM:   5    -0.671726775377E+03   -0.77207E-06   -0.17854E-06 10190   0.283E-03    0.952E-03
RMM:   6    -0.671726776239E+03   -0.86147E-06   -0.77477E-07  8591   0.255E-03    0.510E-03
RMM:   7    -0.671726777787E+03   -0.15483E-05   -0.21397E-07  5961   0.224E-03    0.282E-03
RMM:   8    -0.671726778811E+03   -0.10240E-05   -0.16188E-08  4903   0.207E-03
  60 F= -.67172678E+03 E0= -.67131370E+03  d E =-.741450E-03  mag=    80.0053
       N       E                     dE             d eps       ncg     rms          rms(c)
DAV:   1    -0.671727532427E+03   -0.75464E-03   -0.63690E-02 26288   0.304E-01    0.113E-01
RMM:   2    -0.671727727063E+03   -0.19464E-03   -0.14204E-03 24015   0.586E-02    0.736E-02
RMM:   3    -0.671727825517E+03   -0.98454E-04   -0.21013E-04 15749   0.238E-02    0.806E-02
RMM:   4    -0.671727798597E+03    0.26920E-04   -0.63280E-05 14681   0.156E-02    0.416E-02
RMM:   5    -0.671727797376E+03    0.12214E-05   -0.20618E-05 14097   0.747E-03    0.269E-02
RMM:   6    -0.671727795993E+03    0.13825E-05   -0.10871E-05 13056   0.617E-03    0.185E-02
RMM:   7    -0.671727797416E+03   -0.14221E-05   -0.69048E-06 12725   0.454E-03    0.130E-02
RMM:   8    -0.671727797979E+03   -0.56392E-06   -0.19935E-06 10668   0.305E-03
  61 F= -.67172780E+03 E0= -.67131474E+03  d E =-.176062E-02  mag=    80.0054
       N       E                     dE             d eps       ncg     rms          rms(c)
DAV:   1    -0.671728546333E+03   -0.74892E-03   -0.18049E-02 27408   0.157E-01    0.664E-02
RMM:   2    -0.671728607710E+03   -0.61377E-04   -0.37677E-04 17971   0.293E-02    0.374E-02
RMM:   3    -0.671728636826E+03   -0.29116E-04   -0.47146E-05 14696   0.121E-02    0.223E-02
RMM:   4    -0.671728640440E+03   -0.36135E-05   -0.12873E-05 13765   0.674E-03    0.265E-02
RMM:   5    -0.671728640184E+03    0.25611E-06   -0.46066E-06 11946   0.416E-03    0.139E-02
RMM:   6    -0.671728642345E+03   -0.21611E-05   -0.20816E-06 10634   0.301E-03    0.106E-02
RMM:   7    -0.671728644288E+03   -0.19427E-05   -0.13364E-06  9986   0.275E-03    0.482E-03
RMM:   8    -0.671728645536E+03   -0.12480E-05   -0.74463E-09  5092   0.201E-03
  62 F= -.67172865E+03 E0= -.67131560E+03  d E =-.847556E-03  mag=    80.0055
       N       E                     dE             d eps       ncg     rms          rms(c)
DAV:   1    -0.671728976770E+03   -0.33248E-03   -0.59207E-02 27200   0.285E-01    0.120E-01
RMM:   2    -0.671729177895E+03   -0.20112E-03   -0.12087E-03 23385   0.527E-02    0.692E-02
RMM:   3    -0.671729268241E+03   -0.90347E-04   -0.16335E-04 15437   0.207E-02    0.594E-02
RMM:   4    -0.671729262382E+03    0.58590E-05   -0.45033E-05 14579   0.129E-02    0.439E-02
RMM:   5    -0.671729261329E+03    0.10533E-05   -0.15646E-05 13844   0.681E-03    0.216E-02
RMM:   6    -0.671729265242E+03   -0.39134E-05   -0.99388E-06 12800   0.565E-03    0.198E-02
RMM:   7    -0.671729266952E+03   -0.17094E-05   -0.57966E-06 12309   0.452E-03    0.109E-02
RMM:   8    -0.671729268583E+03   -0.16317E-05   -0.12607E-06  9494   0.272E-03
  63 F= -.67172927E+03 E0= -.67131625E+03  d E =-.147060E-02  mag=    80.0056
       N       E                     dE             d eps       ncg     rms          rms(c)
DAV:   1    -0.671729796728E+03   -0.52978E-03   -0.12176E-02 27344   0.122E-01    0.617E-02
RMM:   2    -0.671729844827E+03   -0.48099E-04   -0.25482E-04 16675   0.233E-02    0.350E-02
RMM:   3    -0.671729866683E+03   -0.21856E-04   -0.30985E-05 14596   0.980E-03    0.201E-02
RMM:   4    -0.671729868691E+03   -0.20084E-05   -0.91259E-06 12474   0.572E-03    0.200E-02
RMM:   5    -0.671729870514E+03   -0.18221E-05   -0.36399E-06 11601   0.390E-03    0.924E-03
RMM:   6    -0.671729873358E+03   -0.28443E-05   -0.13108E-06  8807   0.267E-03    0.753E-03
RMM:   7    -0.671729874748E+03   -0.13900E-05   -0.29761E-07  6625   0.239E-03    0.561E-03
RMM:   8    -0.671729875500E+03   -0.75251E-06   -0.69935E-09  4982   0.217E-03
  64 F= -.67172988E+03 E0= -.67131687E+03  d E =-.606917E-03  mag=    80.0057
       N       E                     dE             d eps       ncg     rms          rms(c)
DAV:   1    -0.671730473202E+03   -0.59845E-03   -0.10974E-01 27120   0.367E-01    0.184E-01
RMM:   2    -0.671730903295E+03   -0.43009E-03   -0.22382E-03 23821   0.692E-02    0.104E-01
RMM:   3    -0.671731043076E+03   -0.13978E-03   -0.27123E-04 17069   0.266E-02    0.643E-02
RMM:   4    -0.671731051968E+03   -0.88927E-05   -0.84168E-05 14796   0.171E-02    0.671E-02
RMM:   5    -0.671731044607E+03    0.73612E-05   -0.33991E-05 14410   0.103E-02    0.387E-02
RMM:   6    -0.671731047851E+03   -0.32438E-05   -0.17336E-05 13874   0.691E-03    0.290E-02
RMM:   7    -0.671731047927E+03   -0.76368E-07   -0.10309E-05 12758   0.589E-03    0.162E-02
RMM:   8    -0.671731048869E+03   -0.94110E-06   -0.31104E-06 11760   0.359E-03
  65 F= -.67173105E+03 E0= -.67131808E+03  d E =-.178029E-02  mag=    80.0058
       N       E                     dE             d eps       ncg     rms          rms(c)
DAV:   1    -0.671731019634E+03    0.28294E-04   -0.16787E-02 27264   0.144E-01    0.724E-02
RMM:   2    -0.671731078224E+03   -0.58590E-04   -0.35162E-04 17660   0.273E-02    0.414E-02
RMM:   3    -0.671731103954E+03   -0.25730E-04   -0.42873E-05 14678   0.114E-02    0.268E-02
RMM:   4    -0.671731105023E+03   -0.10687E-05   -0.12876E-05 13239   0.675E-03    0.248E-02
RMM:   5    -0.671731105081E+03   -0.58208E-07   -0.45423E-06 11839   0.406E-03    0.156E-02
RMM:   6    -0.671731105645E+03   -0.56345E-06   -0.21849E-06 10630   0.307E-03    0.117E-02
RMM:   7    -0.671731105845E+03   -0.20023E-06   -0.13339E-06  9570   0.276E-03    0.502E-03
RMM:   8    -0.671731105927E+03   -0.81956E-07   -0.35213E-08  5368   0.212E-03
  66 F= -.67173111E+03 E0= -.67131815E+03  d E =-.183734E-02  mag=    80.0058
       N       E                     dE             d eps       ncg     rms          rms(c)
DAV:   1    -0.671732146413E+03   -0.10406E-02   -0.34108E-02 27680   0.212E-01    0.114E-01
RMM:   2    -0.671732295518E+03   -0.14911E-03   -0.66641E-04 21778   0.414E-02    0.656E-02
RMM:   3    -0.671732351076E+03   -0.55558E-04   -0.88211E-05 14909   0.162E-02    0.374E-02
RMM:   4    -0.671732351000E+03    0.75437E-07   -0.31140E-05 14187   0.109E-02    0.357E-02
RMM:   5    -0.671732346797E+03    0.42035E-05   -0.11835E-05 12957   0.616E-03    0.212E-02
RMM:   6    -0.671732346051E+03    0.74552E-06   -0.60808E-06 12434   0.424E-03    0.201E-02
RMM:   7    -0.671732342426E+03    0.36256E-05   -0.32661E-06 11897   0.352E-03    0.899E-03
RMM:   8    -0.671732341281E+03    0.11446E-05   -0.33054E-07  7069   0.232E-03
  67 F= -.67173234E+03 E0= -.67131939E+03  d E =-.123535E-02  mag=    80.0059
       N       E                     dE             d eps       ncg     rms          rms(c)
DAV:   1    -0.671732338858E+03    0.35679E-05   -0.17805E-01 27312   0.484E-01    0.261E-01
RMM:   2    -0.671733181961E+03   -0.84310E-03   -0.34616E-03 24049   0.946E-02    0.152E-01
RMM:   3    -0.671733423479E+03   -0.24152E-03   -0.47711E-04 20989   0.373E-02    0.888E-02
RMM:   4    -0.671733419595E+03    0.38845E-05   -0.15203E-04 15993   0.223E-02    0.827E-02
RMM:   5    -0.671733402980E+03    0.16615E-04   -0.67512E-05 14509   0.147E-02    0.546E-02
RMM:   6    -0.671733394220E+03    0.87591E-05   -0.32006E-05 14309   0.916E-03    0.425E-02
RMM:   7    -0.671733380360E+03    0.13861E-04   -0.17898E-05 13695   0.739E-03    0.198E-02
RMM:   8    -0.671733374972E+03    0.53872E-05   -0.56609E-06 12126   0.453E-03
  68 F= -.67173337E+03 E0= -.67132045E+03  d E =-.226905E-02  mag=    80.0059
       N       E                     dE             d eps       ncg     rms          rms(c)
DAV:   1    -0.671734583720E+03   -0.12034E-02   -0.32417E-02 28016   0.198E-01    0.118E-01
RMM:   2    -0.671734739541E+03   -0.15582E-03   -0.62341E-04 21006   0.389E-02    0.671E-02
RMM:   3    -0.671734792329E+03   -0.52788E-04   -0.78054E-05 14867   0.153E-02    0.373E-02
RMM:   4    -0.671734789609E+03    0.27195E-05   -0.28619E-05 14098   0.102E-02    0.392E-02
RMM:   5    -0.671734776707E+03    0.12902E-04   -0.10907E-05 13004   0.590E-03    0.231E-02
RMM:   6    -0.671734767915E+03    0.87922E-05   -0.57913E-06 12192   0.433E-03    0.186E-02
RMM:   7    -0.671734760375E+03    0.75400E-05   -0.34827E-06 11995   0.360E-03    0.708E-03
RMM:   8    -0.671734757348E+03    0.30273E-05   -0.19817E-07  6519   0.223E-03
  69 F= -.67173476E+03 E0= -.67132183E+03  d E =-.138238E-02  mag=    80.0059
       N       E                     dE             d eps       ncg     rms          rms(c)
DAV:   1    -0.671735315154E+03   -0.55478E-03   -0.29185E-01 26896   0.593E-01    0.352E-01
RMM:   2    -0.671736842288E+03   -0.15271E-02   -0.55527E-03 24117   0.117E-01    0.204E-01
RMM:   3    -0.671737239534E+03   -0.39725E-03   -0.72239E-04 22066   0.461E-02    0.113E-01
RMM:   4    -0.671737242747E+03   -0.32131E-05   -0.25209E-04 17461   0.277E-02    0.114E-01
RMM:   5    -0.671737198481E+03    0.44266E-04   -0.10776E-04 15069   0.179E-02    0.783E-02
RMM:   6    -0.671737167716E+03    0.30765E-04   -0.53565E-05 14446   0.123E-02    0.507E-02
RMM:   7    -0.671737147084E+03    0.20632E-04   -0.30345E-05 14208   0.939E-03    0.237E-02
RMM:   8    -0.671737140714E+03    0.63698E-05   -0.91100E-06 12704   0.573E-03
  70 F= -.67173714E+03 E0= -.67132422E+03  d E =-.376574E-02  mag=    80.0060
       N       E                     dE             d eps       ncg     rms          rms(c)
DAV:   1    -0.671737075203E+03    0.71881E-04   -0.35591E-02 27888   0.207E-01    0.123E-01
RMM:   2    -0.671737249651E+03   -0.17445E-03   -0.68670E-04 21414   0.410E-02    0.708E-02
RMM:   3    -0.671737302786E+03   -0.53135E-04   -0.86813E-05 14985   0.162E-02    0.402E-02
RMM:   4    -0.671737296579E+03    0.62063E-05   -0.34177E-05 14135   0.113E-02    0.382E-02
RMM:   5    -0.671737278985E+03    0.17594E-04   -0.12636E-05 13013   0.640E-03    0.194E-02
RMM:   6    -0.671737267823E+03    0.11162E-04   -0.66243E-06 12415   0.441E-03    0.224E-02
RMM:   7    -0.671737258816E+03    0.90068E-05   -0.32375E-06 11789   0.355E-03    0.769E-03
RMM:   8    -0.671737254415E+03    0.44014E-05   -0.14277E-07  6217   0.218E-03
  71 F= -.67173725E+03 E0= -.67132433E+03  d E =-.387944E-02  mag=    80.0061
       N       E                     dE             d eps       ncg     rms          rms(c)
DAV:   1    -0.671738676192E+03   -0.14174E-02   -0.35917E-02 27488   0.224E-01    0.992E-02
RMM:   2    -0.671738801936E+03   -0.12574E-03   -0.72440E-04 21797   0.425E-02    0.565E-02
RMM:   3    -0.671738857988E+03   -0.56053E-04   -0.10351E-04 14899   0.170E-02    0.407E-02
RMM:   4    -0.671738854954E+03    0.30347E-05   -0.32148E-05 14196   0.112E-02    0.301E-02
RMM:   5    -0.671738845970E+03    0.89840E-05   -0.10107E-05 12743   0.561E-03    0.186E-02
RMM:   6    -0.671738839485E+03    0.64848E-05   -0.51719E-06 12116   0.406E-03    0.181E-02
RMM:   7    -0.671738830189E+03    0.92955E-05   -0.30562E-06 11670   0.338E-03    0.104E-02
RMM:   8    -0.671738825650E+03    0.45388E-05   -0.26117E-07  6535   0.224E-03
  72 F= -.67173883E+03 E0= -.67132592E+03  d E =-.157124E-02  mag=    80.0063
       N       E                     dE             d eps       ncg     rms          rms(c)
DAV:   1    -0.671739180048E+03   -0.34986E-03   -0.30022E-02 27456   0.205E-01    0.908E-02
RMM:   2    -0.671739283299E+03   -0.10325E-03   -0.60920E-04 21034   0.390E-02    0.532E-02
RMM:   3    -0.671739333896E+03   -0.50596E-04   -0.89736E-05 14742   0.160E-02    0.492E-02
RMM:   4    -0.671739325846E+03    0.80494E-05   -0.27119E-05 14121   0.103E-02    0.273E-02
RMM:   5    -0.671739318694E+03    0.71516E-05   -0.85577E-06 12673   0.498E-03    0.196E-02
RMM:   6    -0.671739311359E+03    0.73351E-05   -0.48657E-06 11931   0.418E-03    0.137E-02
RMM:   7    -0.671739303567E+03    0.77924E-05   -0.31117E-06 11788   0.338E-03    0.848E-03
RMM:   8    -0.671739299305E+03    0.42622E-05   -0.40674E-07  7193   0.235E-03
  73 F= -.67173930E+03 E0= -.67132640E+03  d E =-.204489E-02  mag=    80.0065
       N       E                     dE             d eps       ncg     rms          rms(c)
DAV:   1    -0.671740077931E+03   -0.77436E-03   -0.17003E-02 27712   0.156E-01    0.721E-02
RMM:   2    -0.671740131070E+03   -0.53139E-04   -0.36179E-04 18311   0.309E-02    0.421E-02
RMM:   3    -0.671740161235E+03   -0.30165E-04   -0.52046E-05 14518   0.132E-02    0.323E-02
RMM:   4    -0.671740155710E+03    0.55255E-05   -0.17320E-05 13651   0.816E-03    0.215E-02
[...]
RMM:   8    -0.671808862734E+03   -0.47218E-05   -0.11609E-07  5802   0.216E-03
 207 F= -.67180886E+03 E0= -.67140124E+03  d E =-.825838E-03  mag=    80.0496
       N       E                     dE             d eps       ncg     rms          rms(c)
DAV:   1    -0.671808830427E+03    0.27585E-04   -0.14088E-01 25696   0.425E-01    0.244E-01
RMM:   2    -0.671809608911E+03   -0.77848E-03   -0.27029E-03 24202   0.876E-02    0.151E-01
RMM:   3    -0.671809847972E+03   -0.23906E-03   -0.47048E-04 21563   0.376E-02    0.137E-01
RMM:   4    -0.671809761717E+03    0.86255E-04   -0.14711E-04 15617   0.223E-02    0.685E-02
RMM:   5    -0.671809757156E+03    0.45607E-05   -0.56810E-05 14662   0.128E-02    0.533E-02
RMM:   6    -0.671809743231E+03    0.13926E-04   -0.30392E-05 14228   0.954E-03    0.341E-02
RMM:   7    -0.671809751828E+03   -0.85975E-05   -0.17794E-05 13664   0.733E-03    0.212E-02
RMM:   8    -0.671809761145E+03   -0.93165E-05   -0.56277E-06 12013   0.459E-03
 208 F= -.67180976E+03 E0= -.67140224E+03  d E =-.172425E-02  mag=    80.0496
       N       E                     dE             d eps       ncg     rms          rms(c)
DAV:   1    -0.671810345267E+03   -0.59344E-03   -0.38202E-02 27648   0.221E-01    0.127E-01
RMM:   2    -0.671810569121E+03   -0.22385E-03   -0.74494E-04 22881   0.457E-02    0.775E-02
RMM:   3    -0.671810629889E+03   -0.60768E-04   -0.12310E-04 15137   0.194E-02    0.630E-02
RMM:   4    -0.671810621321E+03    0.85677E-05   -0.48521E-05 14401   0.140E-02    0.341E-02
RMM:   5    -0.671810632802E+03   -0.11481E-04   -0.15786E-05 13357   0.674E-03    0.235E-02
RMM:   6    -0.671810642484E+03   -0.96816E-05   -0.74878E-06 12555   0.491E-03    0.195E-02
RMM:   7    -0.671810655362E+03   -0.12878E-04   -0.39100E-06 11983   0.373E-03    0.120E-02
RMM:   8    -0.671810664519E+03   -0.91577E-05   -0.77242E-07  8425   0.254E-03
 209 F= -.67181066E+03 E0= -.67140321E+03  d E =-.903375E-03  mag=    80.0496
       N       E                     dE             d eps       ncg     rms          rms(c)
DAV:   1    -0.671810726484E+03   -0.71122E-04   -0.32414E-02 27744   0.203E-01    0.117E-01
RMM:   2    -0.671810917854E+03   -0.19137E-03   -0.63224E-04 22284   0.421E-02    0.710E-02
RMM:   3    -0.671810974589E+03   -0.56735E-04   -0.10095E-04 14888   0.175E-02    0.586E-02
RMM:   4    -0.671810965727E+03    0.88625E-05   -0.38624E-05 14339   0.124E-02    0.347E-02
RMM:   5    -0.671810977587E+03   -0.11861E-04   -0.13040E-05 13189   0.602E-03    0.247E-02
RMM:   6    -0.671810986871E+03   -0.92839E-05   -0.65012E-06 12245   0.472E-03    0.176E-02
RMM:   7    -0.671811001647E+03   -0.14776E-04   -0.39591E-06 12003   0.375E-03    0.991E-03
RMM:   8    -0.671811012312E+03   -0.10665E-04   -0.76441E-07  8359   0.253E-03
 210 F= -.67181101E+03 E0= -.67140363E+03  d E =-.125117E-02  mag=    80.0495
       N       E                     dE             d eps       ncg     rms          rms(c)
DAV:   1    -0.671811396003E+03   -0.39436E-03   -0.15692E-02 27632   0.148E-01    0.781E-02
RMM:   2    -0.671811486014E+03   -0.90011E-04   -0.32908E-04 18192   0.308E-02    0.480E-02
RMM:   3    -0.671811520338E+03   -0.34324E-04   -0.51840E-05 14548   0.138E-02    0.382E-02
RMM:   4    -0.671811524448E+03   -0.41099E-05   -0.19330E-05 13937   0.876E-03    0.212E-02
RMM:   5    -0.671811548171E+03   -0.23723E-04   -0.61406E-06 12144   0.459E-03    0.139E-02
RMM:   6    -0.671811568866E+03   -0.20695E-04   -0.29359E-06 11569   0.328E-03    0.119E-02
RMM:   7    -0.671811585543E+03   -0.16677E-04   -0.11331E-06  9468   0.269E-03    0.743E-03
RMM:   8    -0.671811597728E+03   -0.12185E-04   -0.37589E-08  5368   0.207E-03
 211 F= -.67181160E+03 E0= -.67140427E+03  d E =-.585416E-03  mag=    80.0494
       N       E                     dE             d eps       ncg     rms          rms(c)
DAV:   1    -0.671811664288E+03   -0.78746E-04   -0.13390E-02 27840   0.137E-01    0.721E-02
RMM:   2    -0.671811745853E+03   -0.81564E-04   -0.28389E-04 17326   0.285E-02    0.466E-02
RMM:   3    -0.671811780869E+03   -0.35016E-04   -0.46328E-05 14538   0.131E-02    0.433E-02
RMM:   4    -0.671811780897E+03   -0.28405E-07   -0.16406E-05 13779   0.802E-03    0.210E-02
RMM:   5    -0.671811803020E+03   -0.22123E-04   -0.52821E-06 12053   0.406E-03    0.176E-02
RMM:   6    -0.671811821391E+03   -0.18371E-04   -0.27207E-06 11482   0.335E-03    0.109E-02
RMM:   7    -0.671811842181E+03   -0.20789E-04   -0.12917E-06  9697   0.272E-03    0.580E-03
RMM:   8    -0.671811856925E+03   -0.14744E-04   -0.58232E-08  5536   0.213E-03
 212 F= -.67181186E+03 E0= -.67140459E+03  d E =-.844613E-03  mag=    80.0492
       N       E                     dE             d eps       ncg     rms          rms(c)
DAV:   1    -0.671812170906E+03   -0.32873E-03   -0.13288E-02 27664   0.134E-01    0.747E-02
RMM:   2    -0.671812255445E+03   -0.84539E-04   -0.27148E-04 17187   0.277E-02    0.462E-02
RMM:   3    -0.671812292281E+03   -0.36836E-04   -0.42490E-05 14572   0.127E-02    0.386E-02
RMM:   4    -0.671812295739E+03   -0.34585E-05   -0.15717E-05 13895   0.788E-03    0.217E-02
RMM:   5    -0.671812319406E+03   -0.23667E-04   -0.51569E-06 11979   0.409E-03    0.180E-02
RMM:   6    -0.671812338544E+03   -0.19137E-04   -0.24681E-06 11205   0.315E-03    0.112E-02
RMM:   7    -0.671812358484E+03   -0.19940E-04   -0.10392E-06  9169   0.266E-03    0.531E-03
RMM:   8    -0.671812373076E+03   -0.14592E-04   -0.40189E-08  5416   0.210E-03
 213 F= -.67181237E+03 E0= -.67140515E+03  d E =-.516151E-03  mag=    80.0491
       N       E                     dE             d eps       ncg     rms          rms(c)
DAV:   1    -0.671812395738E+03   -0.37254E-04   -0.28677E-02 27408   0.197E-01    0.110E-01
RMM:   2    -0.671812559314E+03   -0.16358E-03   -0.57251E-04 22074   0.405E-02    0.662E-02
RMM:   3    -0.671812625777E+03   -0.66463E-04   -0.91048E-05 14842   0.172E-02    0.557E-02
RMM:   4    -0.671812625189E+03    0.58813E-06   -0.34337E-05 14452   0.119E-02    0.314E-02
RMM:   5    -0.671812649703E+03   -0.24514E-04   -0.11696E-05 13258   0.572E-03    0.251E-02
RMM:   6    -0.671812669865E+03   -0.20162E-04   -0.60288E-06 12306   0.450E-03    0.171E-02
RMM:   7    -0.671812691677E+03   -0.21812E-04   -0.34678E-06 11919   0.361E-03    0.961E-03
RMM:   8    -0.671812707294E+03   -0.15617E-04   -0.50977E-07  7805   0.245E-03
 214 F= -.67181271E+03 E0= -.67140554E+03  d E =-.850369E-03  mag=    80.0489
       N       E                     dE             d eps       ncg     rms          rms(c)
DAV:   1    -0.671812978695E+03   -0.28702E-03   -0.16432E-02 28368   0.148E-01    0.849E-02
RMM:   2    -0.671813081088E+03   -0.10239E-03   -0.33319E-04 18248   0.309E-02    0.511E-02
RMM:   3    -0.671813123188E+03   -0.42100E-04   -0.53169E-05 14619   0.139E-02    0.397E-02
RMM:   4    -0.671813126783E+03   -0.35954E-05   -0.20085E-05 14187   0.893E-03    0.217E-02
RMM:   5    -0.671813148102E+03   -0.21318E-04   -0.64146E-06 12185   0.469E-03    0.142E-02
RMM:   6    -0.671813165844E+03   -0.17743E-04   -0.32819E-06 11688   0.352E-03    0.100E-02
RMM:   7    -0.671813179935E+03   -0.14090E-04   -0.11483E-06  9668   0.272E-03    0.673E-03
RMM:   8    -0.671813188988E+03   -0.90529E-05   -0.31208E-08  5423   0.206E-03
 215 F= -.67181319E+03 E0= -.67140606E+03  d E =-.481694E-03  mag=    80.0487
       N       E                     dE             d eps       ncg     rms          rms(c)
DAV:   1    -0.671813157353E+03    0.22582E-04   -0.36082E-02 26864   0.219E-01    0.126E-01
RMM:   2    -0.671813358363E+03   -0.20101E-03   -0.72437E-04 22967   0.459E-02    0.764E-02
RMM:   3    -0.671813435595E+03   -0.77232E-04   -0.12336E-04 15190   0.199E-02    0.627E-02
RMM:   4    -0.671813432007E+03    0.35879E-05   -0.47584E-05 14540   0.141E-02    0.317E-02
RMM:   5    -0.671813449980E+03   -0.17973E-04   -0.15547E-05 13763   0.683E-03    0.218E-02
RMM:   6    -0.671813465284E+03   -0.15304E-04   -0.79688E-06 12912   0.514E-03    0.144E-02
RMM:   7    -0.671813479573E+03   -0.14289E-04   -0.34017E-06 11805   0.368E-03    0.115E-02
RMM:   8    -0.671813487611E+03   -0.80378E-05   -0.74936E-07  8735   0.256E-03
 216 F= -.67181349E+03 E0= -.67140642E+03  d E =-.780317E-03  mag=    80.0485
       N       E                     dE             d eps       ncg     rms          rms(c)
DAV:   1    -0.671813730718E+03   -0.25114E-03   -0.21889E-02 27888   0.173E-01    0.966E-02
RMM:   2    -0.671813849991E+03   -0.11927E-03   -0.44978E-04 20141   0.359E-02    0.584E-02
RMM:   3    -0.671813903672E+03   -0.53681E-04   -0.73187E-05 14753   0.159E-02    0.467E-02
RMM:   4    -0.671813904023E+03   -0.35064E-06   -0.28041E-05 14437   0.107E-02    0.257E-02
RMM:   5    -0.671813919614E+03   -0.15591E-04   -0.88983E-06 12743   0.534E-03    0.167E-02
RMM:   6    -0.671813932643E+03   -0.13029E-04   -0.45813E-06 12172   0.394E-03    0.132E-02
RMM:   7    -0.671813944052E+03   -0.11410E-04   -0.20970E-06 11165   0.309E-03    0.930E-03
RMM:   8    -0.671813951491E+03   -0.74389E-05   -0.10525E-07  5938   0.213E-03
 217 F= -.67181395E+03 E0= -.67140695E+03  d E =-.463880E-03  mag=    80.0483
       N       E                     dE             d eps       ncg     rms          rms(c)
DAV:   1    -0.671813947439E+03   -0.33863E-05   -0.13997E-02 28064   0.138E-01    0.773E-02
RMM:   2    -0.671814026206E+03   -0.78767E-04   -0.29197E-04 17594   0.289E-02    0.503E-02
RMM:   3    -0.671814067243E+03   -0.41037E-04   -0.50114E-05 14639   0.136E-02    0.485E-02
RMM:   4    -0.671814063014E+03    0.42291E-05   -0.18332E-05 14273   0.847E-03    0.231E-02
RMM:   5    -0.671814074595E+03   -0.11581E-04   -0.57001E-06 12253   0.421E-03    0.190E-02
RMM:   6    -0.671814084481E+03   -0.98865E-05   -0.32331E-06 11679   0.364E-03    0.106E-02
RMM:   7    -0.671814095800E+03   -0.11319E-04   -0.15355E-06 10228   0.279E-03    0.655E-03
RMM:   8    -0.671814103610E+03   -0.78105E-05   -0.53461E-08  5593   0.213E-03
 218 F= -.67181410E+03 E0= -.67140715E+03  d E =-.615999E-03  mag=    80.0482
       N       E                     dE             d eps       ncg     rms          rms(c)
DAV:   1    -0.671814247325E+03   -0.15152E-03   -0.29107E-02 27504   0.199E-01    0.112E-01
RMM:   2    -0.671814398285E+03   -0.15096E-03   -0.58954E-04 21945   0.410E-02    0.688E-02
RMM:   3    -0.671814465996E+03   -0.67712E-04   -0.96215E-05 14995   0.178E-02    0.595E-02
RMM:   4    -0.671814460665E+03    0.53314E-05   -0.36935E-05 14582   0.122E-02    0.329E-02
RMM:   5    -0.671814470592E+03   -0.99270E-05   -0.11835E-05 13526   0.582E-03    0.252E-02
RMM:   6    -0.671814476711E+03   -0.61193E-05   -0.60994E-06 12460   0.461E-03    0.161E-02
RMM:   7    -0.671814485024E+03   -0.83130E-05   -0.34191E-06 12007   0.358E-03    0.951E-03
RMM:   8    -0.671814491224E+03   -0.61998E-05   -0.43878E-07  7694   0.241E-03
 219 F= -.67181449E+03 E0= -.67140762E+03  d E =-.387614E-03  mag=    80.0481
       N       E                     dE             d eps       ncg     rms          rms(c)
DAV:   1    -0.671814480550E+03    0.44741E-05   -0.84839E-03 26816   0.107E-01    0.609E-02
RMM:   2    -0.671814526786E+03   -0.46236E-04   -0.17774E-04 15937   0.223E-02    0.363E-02
RMM:   3    -0.671814550556E+03   -0.23770E-04   -0.26495E-05 14572   0.101E-02    0.291E-02
RMM:   4    -0.671814551618E+03   -0.10622E-05   -0.93217E-06 13378   0.600E-03    0.179E-02
RMM:   5    -0.671814559774E+03   -0.81561E-05   -0.31468E-06 11503   0.342E-03    0.139E-02
RMM:   6    -0.671814566405E+03   -0.66306E-05   -0.11804E-06  9306   0.270E-03    0.785E-03
RMM:   7    -0.671814573652E+03   -0.72476E-05   -0.33158E-07  7013   0.241E-03    0.405E-03
RMM:   8    -0.671814579386E+03   -0.57337E-05   -0.14301E-08  5121   0.215E-03
 220 F= -.67181458E+03 E0= -.67140775E+03  d E =-.475775E-03  mag=    80.0480
       N       E                     dE             d eps       ncg     rms          rms(c)
DAV:   1    -0.671814702334E+03   -0.12868E-03   -0.16052E-02 26976   0.149E-01    0.820E-02
RMM:   2    -0.671814778090E+03   -0.75756E-04   -0.33408E-04 18224   0.310E-02    0.502E-02
RMM:   3    -0.671814820860E+03   -0.42771E-04   -0.52807E-05 14647   0.140E-02    0.405E-02
RMM:   4    -0.671814819167E+03    0.16927E-05   -0.20641E-05 14178   0.902E-03    0.220E-02
RMM:   5    -0.671814825325E+03   -0.61574E-05   -0.62040E-06 12220   0.466E-03    0.137E-02
RMM:   6    -0.671814830430E+03   -0.51055E-05   -0.31245E-06 11691   0.343E-03    0.967E-03
RMM:   7    -0.671814834876E+03   -0.44452E-05   -0.12404E-06  9764   0.273E-03    0.601E-03
RMM:   8    -0.671814838022E+03   -0.31460E-05   -0.28474E-08  5333   0.203E-03
 221 F= -.67181484E+03 E0= -.67140806E+03  d E =-.258636E-03  mag=    80.0479
       N       E                     dE             d eps       ncg     rms          rms(c)
DAV:   1    -0.671814844614E+03   -0.97388E-05   -0.23665E-03 26352   0.575E-02    0.316E-02
RMM:   2    -0.671814858100E+03   -0.13486E-04   -0.52325E-05 14614   0.123E-02    0.209E-02
RMM:   3    -0.671814868664E+03   -0.10564E-04   -0.93337E-06 13980   0.612E-03    0.194E-02
RMM:   4    -0.671814869121E+03   -0.45728E-06   -0.28943E-06 11348   0.361E-03    0.903E-03
RMM:   5    -0.671814873827E+03   -0.47055E-05   -0.19881E-07  6212   0.208E-03    0.780E-03
RMM:   6    -0.671814877996E+03   -0.41691E-05   -0.10384E-07  5592   0.206E-03    0.481E-03
RMM:   7    -0.671814882423E+03   -0.44270E-05   -0.30516E-08  5106   0.198E-03    0.319E-03
RMM:   8    -0.671814886147E+03   -0.37244E-05   -0.89405E-08  5302   0.207E-03
 222 F= -.67181489E+03 E0= -.67140813E+03  d E =-.306761E-03  mag=    80.0478
       N       E                     dE             d eps       ncg     rms          rms(c)
DAV:   1    -0.671814998359E+03   -0.11594E-03   -0.11897E-02 27040   0.130E-01    0.688E-02
RMM:   2    -0.671815050670E+03   -0.52311E-04   -0.25168E-04 16839   0.269E-02    0.409E-02
RMM:   3    -0.671815083577E+03   -0.32907E-04   -0.37515E-05 14551   0.120E-02    0.314E-02
RMM:   4    -0.671815082867E+03    0.71013E-06   -0.13801E-05 13671   0.724E-03    0.190E-02
RMM:   5    -0.671815086345E+03   -0.34776E-05   -0.42698E-06 11789   0.399E-03    0.111E-02
RMM:   6    -0.671815088707E+03   -0.23618E-05   -0.19477E-06 10697   0.294E-03    0.810E-03
RMM:   7    -0.671815090255E+03   -0.15488E-05   -0.39356E-07  7185   0.245E-03    0.518E-03
RMM:   8    -0.671815091242E+03   -0.98674E-06   -0.53856E-09  4919   0.214E-03
 223 F= -.67181509E+03 E0= -.67140837E+03  d E =-.205095E-03  mag=    80.0478
       N       E                     dE             d eps       ncg     rms          rms(c)
DAV:   1    -0.671815096398E+03   -0.61425E-05   -0.17727E-03 25776   0.503E-02    0.267E-02
RMM:   2    -0.671815105007E+03   -0.86091E-05   -0.39933E-05 14539   0.108E-02    0.163E-02
RMM:   3    -0.671815112224E+03   -0.72173E-05   -0.59884E-06 13341   0.493E-03    0.126E-02
RMM:   4    -0.671815112661E+03   -0.43632E-06   -0.15995E-06 10147   0.295E-03    0.765E-03
RMM:   5    -0.671815115008E+03   -0.23474E-05   -0.75231E-08  5257   0.201E-03    0.609E-03
RMM:   6    -0.671815116909E+03   -0.19008E-05   -0.28826E-08  4975   0.201E-03    0.442E-03
RMM:   7    -0.671815119133E+03   -0.22245E-05   -0.38663E-08  4885   0.200E-03    0.220E-03
RMM:   8    -0.671815121136E+03   -0.20028E-05   -0.49245E-08  4939   0.204E-03
 224 F= -.67181512E+03 E0= -.67140841E+03  d E =-.234989E-03  mag=    80.0478
       N       E                     dE             d eps       ncg     rms          rms(c)
DAV:   1    -0.671815217172E+03   -0.98038E-04   -0.11908E-02 27136   0.126E-01    0.716E-02
RMM:   2    -0.671815273648E+03   -0.56476E-04   -0.24429E-04 16849   0.262E-02    0.421E-02
RMM:   3    -0.671815306094E+03   -0.32446E-04   -0.36729E-05 14584   0.118E-02    0.330E-02
RMM:   4    -0.671815305443E+03    0.65053E-06   -0.14159E-05 13528   0.726E-03    0.196E-02
RMM:   5    -0.671815309427E+03   -0.39842E-05   -0.42048E-06 11831   0.390E-03    0.100E-02
RMM:   6    -0.671815312232E+03   -0.28047E-05   -0.17567E-06 10140   0.285E-03    0.746E-03
RMM:   7    -0.671815313669E+03   -0.14375E-05   -0.23772E-07  6566   0.236E-03    0.552E-03
RMM:   8    -0.671815314190E+03   -0.52061E-06   -0.86612E-09  4964   0.215E-03
 225 F= -.67181531E+03 E0= -.67140865E+03  d E =-.193054E-03  mag=    80.0478
       N       E                     dE             d eps       ncg     rms          rms(c)
DAV:   1    -0.671815305343E+03    0.83260E-05   -0.66986E-03 27408   0.947E-02    0.539E-02
RMM:   2    -0.671815336424E+03   -0.31081E-04   -0.14021E-04 15427   0.197E-02    0.316E-02
RMM:   3    -0.671815355928E+03   -0.19504E-04   -0.20789E-05 14480   0.891E-03    0.241E-02
RMM:   4    -0.671815355700E+03    0.22771E-06   -0.73158E-06 12201   0.525E-03    0.154E-02
RMM:   5    -0.671815357942E+03   -0.22417E-05   -0.20603E-06 10461   0.307E-03    0.933E-03
RMM:   6    -0.671815359378E+03   -0.14361E-05   -0.45956E-07  7135   0.243E-03    0.728E-03
RMM:   7    -0.671815359956E+03   -0.57742E-06   -0.12924E-07  5744   0.228E-03    0.403E-03
RMM:   8    -0.671815360435E+03   -0.47963E-06   -0.37825E-08  5132   0.216E-03
 226 F= -.67181536E+03 E0= -.67140873E+03  d E =-.239299E-03  mag=    80.0478
       N       E                     dE             d eps       ncg     rms          rms(c)
DAV:   1    -0.671815439007E+03   -0.79051E-04   -0.92487E-03 27104   0.111E-01    0.633E-02
RMM:   2    -0.671815483572E+03   -0.44566E-04   -0.19335E-04 16128   0.232E-02    0.404E-02
RMM:   3    -0.671815509436E+03   -0.25864E-04   -0.32593E-05 14560   0.111E-02    0.374E-02
RMM:   4    -0.671815506012E+03    0.34245E-05   -0.12233E-05 13304   0.672E-03    0.184E-02
RMM:   5    -0.671815507581E+03   -0.15693E-05   -0.33923E-06 11335   0.348E-03    0.146E-02
RMM:   6    -0.671815507872E+03   -0.29104E-06   -0.14807E-06  9864   0.285E-03    0.837E-03
RMM:   7    -0.671815508747E+03   -0.87451E-06   -0.43214E-07  6828   0.238E-03    0.400E-03
RMM:   8    -0.671815509396E+03   -0.64960E-06   -0.19677E-08  4960   0.211E-03
 227 F= -.67181551E+03 E0= -.67140892E+03  d E =-.148961E-03  mag=    80.0478
       N       E                     dE             d eps       ncg     rms          rms(c)
DAV:   1    -0.671815509353E+03   -0.60629E-06   -0.43085E-03 27456   0.759E-02    0.433E-02
RMM:   2    -0.671815530574E+03   -0.21221E-04   -0.91888E-05 14953   0.159E-02    0.267E-02
RMM:   3    -0.671815543542E+03   -0.12968E-04   -0.15083E-05 14376   0.755E-03    0.231E-02
RMM:   4    -0.671815542659E+03    0.88243E-06   -0.50970E-06 11698   0.451E-03    0.121E-02
RMM:   5    -0.671815544154E+03   -0.14943E-05   -0.85506E-07  7869   0.257E-03    0.864E-03
RMM:   6    -0.671815545526E+03   -0.13728E-05   -0.23199E-07  6236   0.231E-03    0.656E-03
RMM:   7    -0.671815546537E+03   -0.10105E-05   -0.70841E-08  5052   0.220E-03    0.365E-03
RMM:   8    -0.671815547552E+03   -0.10151E-05   -0.14085E-07  5087   0.219E-03
 228 F= -.67181555E+03 E0= -.67140899E+03  d E =-.187117E-03  mag=    80.0478
       N       E                     dE             d eps       ncg     rms          rms(c)
DAV:   1    -0.671815613682E+03   -0.67146E-04   -0.56200E-03 26624   0.904E-02    0.470E-02
RMM:   2    -0.671815639734E+03   -0.26051E-04   -0.12433E-04 15144   0.187E-02    0.310E-02
RMM:   3    -0.671815654325E+03   -0.14591E-04   -0.21117E-05 14447   0.908E-03    0.301E-02
RMM:   4    -0.671815652051E+03    0.22738E-05   -0.70462E-06 12470   0.528E-03    0.134E-02
RMM:   5    -0.671815653920E+03   -0.18687E-05   -0.16856E-06  9811   0.286E-03    0.108E-02
RMM:   6    -0.671815654990E+03   -0.10696E-05   -0.54869E-07  7512   0.250E-03    0.683E-03
RMM:   7    -0.671815656324E+03   -0.13341E-05   -0.15379E-07  5513   0.229E-03    0.368E-03
RMM:   8    -0.671815657281E+03   -0.95740E-06   -0.10295E-07  5001   0.219E-03
 229 F= -.67181566E+03 E0= -.67140912E+03  d E =-.109729E-03  mag=    80.0479
