 vasp.6.2.1 16May21 (build Jul 28 2021 23:24:15) complex                        
  
 executed on      IFC19_CrayMPICH date 2021.11.25  10:27:50
 running   16 mpi-ranks, with    4 threads/rank
 distrk:  each k-point on   16 cores,    1 groups
 distr:  one band on NCORE=   1 cores,   16 groups


--------------------------------------------------------------------------------------------------------


 INCAR:
   ALGO = Fast
   EDIFF = 0.0001
   EDIFFG = -0.05
   ENCUT = 500
   GGA = PE
   IBRION = 2
   ISIF = 0
   ISMEAR = 0
   ISPIN = 2
   ISTART = 1
   ISYM = 0
   LASPH = True
   LORBIT = 11
   LREAL = False
   LWAVE = True
   MAGMOM = 2*1.2 4*0.6
   NCORE = 4
   NELM = 80
   NSW = 300
   PREC = Accurate
   SIGMA = 0.2
   SYMPREC = 1e-10

 POTCAR:    PAW_PBE Ir 06Sep2000                  
 POTCAR:    PAW_PBE O 08Apr2002                   
 POTCAR:    PAW_PBE Ir 06Sep2000                  
   SHA256 =  7c6af8d4d487b237782eb51e6f62977b27a1da78c3c96acd1cebefd6c308f120 Ir/POTCAR             
   COPYR  = (c) Copyright 06Sep2000 Georg Kresse                                                    
   COPYR  = This file is part of the software VASP. Any use, copying, and all other rights are regul
   COPYR  = If you do not have a valid VASP license, you may not use, copy or distribute this file. 
   VRHFIN =Ir: s1d8                                                                                 
   LEXCH  = PE                                                                                      
   EATOM  =   560.1833 eV,   41.1723 Ry                                                             
                                                                                                    
   TITEL  = PAW_PBE Ir 06Sep2000                                                                    
   LULTRA =        F    use ultrasoft PP ?                                                          
   IUNSCR =        1    unscreen: 0-lin 1-nonlin 2-no                                               
   RPACOR =    2.250    partial core radius                                                         
   POMASS =  192.220; ZVAL   =    9.000    mass and valenz                                          
   RCORE  =    2.600    outmost cutoff radius                                                       
   RWIGS  =    2.690; RWIGS  =    1.423    wigner-seitz radius (au A)                               
   ENMAX  =  210.864; ENMIN  =  158.148 eV                                                          
   RCLOC  =    1.857    cutoff for local pot                                                        
   LCOR   =        T    correct aug charges                                                         
   LPAW   =        T    paw PP                                                                      
   EAUG   =  318.962                                                                                
   DEXC   =    0.000                                                                                
   RMAX   =    2.667    core radius for proj-oper                                                   
   RAUG   =    1.300    factor for augmentation sphere                                              
   RDEP   =    2.748    radius for radial grids                                                     
   RDEPT  =    2.300    core radius for aug-charge                                                  
                                                                                                    
   Atomic configuration                                                                             
   16 entries                                                                                       
     n  l   j            E        occ.                                                              
     1  0  0.50    -76100.0449   2.0000                                                             
     2  0  0.50    -13308.1683   2.0000                                                             
     2  1  1.50    -11558.0021   6.0000                                                             
     3  0  0.50     -3110.7274   2.0000                                                             
     3  1  1.50     -2599.2109   6.0000                                                             
     3  2  2.50     -2037.1515  10.0000                                                             
     4  0  0.50      -661.6001   2.0000                                                             
     4  1  1.50      -493.8981   6.0000                                                             
     4  2  2.50      -288.1909  10.0000                                                             
     4  3  3.50       -59.5718  14.0000                                                             
     5  0  0.50       -95.3879   2.0000                                                             
     5  1  1.50       -52.2747   6.0000                                                             
     5  2  2.50        -5.4180   8.0000                                                             
     6  0  0.50        -5.5479   1.0000                                                             
     6  1  1.50        -6.8029   0.0000                                                             
     5  3  2.50        -1.3606   0.0000                                                             
   Description                                                                                      
     l       E           TYP  RCUT    TYP  RCUT                                                     
     2     -5.4179967     23  2.600                                                                 
     2     -6.7785793     23  2.600                                                                 
     0     -5.5478636     23  2.600                                                                 
     0      2.2542272     23  2.600                                                                 
     1     -2.7211652     23  2.600                                                                 
     1     20.4087390     23  2.600                                                                 
  local pseudopotential read in
  partial core-charges read in
  partial kinetic energy density read in
  atomic valenz-charges read in
  non local Contribution for L=           2  read in
    real space projection operators read in
  non local Contribution for L=           2  read in
    real space projection operators read in
  non local Contribution for L=           0  read in
    real space projection operators read in
  non local Contribution for L=           0  read in
    real space projection operators read in
  non local Contribution for L=           1  read in
    real space projection operators read in
  non local Contribution for L=           1  read in
    real space projection operators read in
    PAW grid and wavefunctions read in
 
   number of l-projection  operators is LMAX  =           6
   number of lm-projection operators is LMMAX =          18
 
 POTCAR:    PAW_PBE O 08Apr2002                   
   SHA256 =  818f92134a0a090dccd8ba1447fa70422a3b330e708bb4f08108d8ae51209ddf O/POTCAR              
   COPYR  = (c) Copyright 08Apr2002 Georg Kresse                                                    
   COPYR  = This file is part of the software VASP. Any use, copying, and all other rights are regul
   COPYR  = If you do not have a valid VASP license, you may not use, copy or distribute this file. 
   VRHFIN =O: s2p4                                                                                  
   LEXCH  = PE                                                                                      
   EATOM  =   432.3788 eV,   31.7789 Ry                                                             
                                                                                                    
   TITEL  = PAW_PBE O 08Apr2002                                                                     
   LULTRA =        F    use ultrasoft PP ?                                                          
   IUNSCR =        1    unscreen: 0-lin 1-nonlin 2-no                                               
   RPACOR =    1.200    partial core radius                                                         
   POMASS =   16.000; ZVAL   =    6.000    mass and valenz                                          
   RCORE  =    1.520    outmost cutoff radius                                                       
   RWIGS  =    1.550; RWIGS  =    0.820    wigner-seitz radius (au A)                               
   ENMAX  =  400.000; ENMIN  =  300.000 eV                                                          
   ICORE  =        2    local potential                                                             
   LCOR   =        T    correct aug charges                                                         
   LPAW   =        T    paw PP                                                                      
   EAUG   =  605.392                                                                                
   DEXC   =    0.000                                                                                
   RMAX   =    1.553    core radius for proj-oper                                                   
   RAUG   =    1.300    factor for augmentation sphere                                              
   RDEP   =    1.550    radius for radial grids                                                     
   RDEPT  =    1.329    core radius for aug-charge                                                  
                                                                                                    
   Atomic configuration                                                                             
    4 entries                                                                                       
     n  l   j            E        occ.                                                              
     1  0  0.50      -514.6923   2.0000                                                             
     2  0  0.50       -23.9615   2.0000                                                             
     2  1  0.50        -9.0305   4.0000                                                             
     3  2  1.50        -9.5241   0.0000                                                             
   Description                                                                                      
     l       E           TYP  RCUT    TYP  RCUT                                                     
     0    -23.9615318     23  1.200                                                                 
     0     -9.5240782     23  1.200                                                                 
     1     -9.0304911     23  1.520                                                                 
     1      8.1634956     23  1.520                                                                 
     2     -9.5240782      7  1.500                                                                 
  local pseudopotential read in
  partial core-charges read in
  partial kinetic energy density read in
  kinetic energy density of atom read in
  atomic valenz-charges read in
  non local Contribution for L=           0  read in
    real space projection operators read in
  non local Contribution for L=           0  read in
    real space projection operators read in
  non local Contribution for L=           1  read in
    real space projection operators read in
  non local Contribution for L=           1  read in
    real space projection operators read in
    PAW grid and wavefunctions read in
 
   number of l-projection  operators is LMAX  =           4
   number of lm-projection operators is LMMAX =           8
 
  PAW_PBE Ir 06Sep2000                  :
 energy of atom  1       EATOM= -560.1833
 kinetic energy error for atom=    0.0018 (will be added to EATOM!!)
  PAW_PBE O 08Apr2002                   :
 energy of atom  2       EATOM= -432.3788
 kinetic energy error for atom=    0.0224 (will be added to EATOM!!)
 
 
 POSCAR: Ir2 O4
  positions in direct lattice
  No initial velocities read in
 exchange correlation table for  LEXCH =        8
   RHO(1)=    0.500       N(1)  =     2000
   RHO(2)=  100.500       N(2)  =     4000
 


--------------------------------------------------------------------------------------------------------


 ion  position               nearest neighbor table
   1  0.500  0.500  0.000-   4 1.98   6 1.98   5 2.02   3 2.02   3 2.02   5 2.02
   2  0.000  0.000  0.000-   3 1.98   5 1.98   6 2.02   4 2.02   4 2.02   6 2.02
   3  0.000  0.308  0.617-   2 1.98   1 2.02   1 2.02
   4  0.500  0.808  0.000-   1 1.98   2 2.02   2 2.02
   5  0.000  0.692  0.383-   2 1.98   1 2.02   1 2.02
   6  0.500  0.192  0.000-   1 1.98   2 2.02   2 2.02
 

IMPORTANT INFORMATION: All symmetrisations will be switched off!
NOSYMM: (Re-)initialisation of all symmetry stuff for point group C_1.


----------------------------------------------------------------------------------------

                                     Primitive cell                                     

  volume of cell :      65.8840

  direct lattice vectors                    reciprocal lattice vectors
     0.000000000  0.000000000 -3.189507000     0.000000000  0.000000000 -0.313528078
     4.544939000 -4.544939000  0.000000000     0.000000000 -0.220024955  0.000000000
    -4.544939000  0.000000000  0.000000000    -0.220024955 -0.220024955  0.000000000

  length of vectors
     3.189507000  6.427514374  4.544939000     0.313528078  0.220024955  0.311162276

  position of ions in fractional coordinates (direct lattice)
     0.500000000  0.500000000  1.000000000
     0.000000000  0.000000000  0.000000000
     0.000000000  0.308354000  0.616708000
     0.500000000  0.808354000  1.000000000
     0.000000000  0.691646000  0.383292000
     0.500000000  0.191646000  1.000000000

  ion indices of the primitive-cell ions
   primitive index   ion index
                 1           1
                 2           2
                 3           3
                 4           4
                 5           5
                 6           6

----------------------------------------------------------------------------------------

 
 
 KPOINTS: Automatic kpoint scheme                 

Automatic generation of k-mesh.
 Grid dimensions read from file:
 generate k-points for:   16    8   12

 Generating k-lattice:

  Cartesian coordinates                     Fractional coordinates (reciprocal lattice)
     0.000000000  0.000000000 -0.019595505     0.062500000  0.000000000  0.000000000
     0.000000000 -0.027503119  0.000000000     0.000000000  0.125000000  0.000000000
    -0.018335413 -0.018335413  0.000000000     0.000000000  0.000000000  0.083333333

  Length of vectors
     0.019595505  0.027503119  0.025930190

  Shift w.r.t. Gamma in fractional coordinates (k-lattice)
     0.000000000  0.000000000  0.000000000

 -----------------------------------------------------------------------------
|                                                                             |
|           W    W    AA    RRRRR   N    N  II  N    N   GGGG   !!!           |
|           W    W   A  A   R    R  NN   N  II  NN   N  G    G  !!!           |
|           W    W  A    A  R    R  N N  N  II  N N  N  G       !!!           |
|           W WW W  AAAAAA  RRRRR   N  N N  II  N  N N  G  GGG   !            |
|           WW  WW  A    A  R   R   N   NN  II  N   NN  G    G                |
|           W    W  A    A  R    R  N    N  II  N    N   GGGG   !!!           |
|                                                                             |
|     Your reciprocal lattice and k-lattice belong to different lattice       |
|     classes:                                                                |
|                                                                             |
|        The reciprocal lattice is simple tetragonal,                         |
|        whereas your k-lattice is simple monoclinic.                         |
|                                                                             |
|     Results are often still useful ...                                      |
|                                                                             |
 -----------------------------------------------------------------------------

 WARNING: IBZKPT: internal override: KBLOWUP is changed to .FALSE.
      ... skipping the blow-up phase ...

 
 Subroutine IBZKPT returns following result:
 ===========================================
 
 Found    772 irreducible k-points:
 
 Following reciprocal coordinates:
            Coordinates               Weight
  0.000000  0.000000  0.000000      1.000000
  0.062500  0.000000  0.000000      2.000000
  0.125000  0.000000  0.000000      2.000000
  0.187500  0.000000  0.000000      2.000000
  0.250000  0.000000  0.000000      2.000000
  0.312500  0.000000  0.000000      2.000000
  0.375000  0.000000  0.000000      2.000000
  0.437500  0.000000  0.000000      2.000000
  0.500000  0.000000  0.000000      1.000000
  0.000000  0.125000  0.000000      2.000000
  0.062500  0.125000  0.000000      2.000000
  0.125000  0.125000  0.000000      2.000000
  0.187500  0.125000  0.000000      2.000000
  0.250000  0.125000  0.000000      2.000000
  0.312500  0.125000  0.000000      2.000000
  0.375000  0.125000  0.000000      2.000000
  0.437500  0.125000  0.000000      2.000000
  0.500000  0.125000  0.000000      2.000000
 -0.437500  0.125000  0.000000      2.000000
 -0.375000  0.125000  0.000000      2.000000
 -0.312500  0.125000  0.000000      2.000000
 -0.250000  0.125000  0.000000      2.000000
 -0.187500  0.125000  0.000000      2.000000
 -0.125000  0.125000  0.000000      2.000000
 -0.062500  0.125000  0.000000      2.000000
  0.000000  0.250000  0.000000      2.000000
  0.062500  0.250000  0.000000      2.000000
  0.125000  0.250000  0.000000      2.000000
  0.187500  0.250000  0.000000      2.000000
  0.250000  0.250000  0.000000      2.000000
  0.312500  0.250000  0.000000      2.000000
  0.375000  0.250000  0.000000      2.000000
  0.437500  0.250000  0.000000      2.000000
  0.500000  0.250000  0.000000      2.000000
 -0.437500  0.250000  0.000000      2.000000
 -0.375000  0.250000  0.000000      2.000000
 -0.312500  0.250000  0.000000      2.000000
 -0.250000  0.250000  0.000000      2.000000
 -0.187500  0.250000  0.000000      2.000000
 -0.125000  0.250000  0.000000      2.000000
 -0.062500  0.250000  0.000000      2.000000
  0.000000  0.375000  0.000000      2.000000
  0.062500  0.375000  0.000000      2.000000
  0.125000  0.375000  0.000000      2.000000
  0.187500  0.375000  0.000000      2.000000
  0.250000  0.375000  0.000000      2.000000
  0.312500  0.375000  0.000000      2.000000
  0.375000  0.375000  0.000000      2.000000
  0.437500  0.375000  0.000000      2.000000
  0.500000  0.375000  0.000000      2.000000
 -0.437500  0.375000  0.000000      2.000000
 -0.375000  0.375000  0.000000      2.000000
 -0.312500  0.375000  0.000000      2.000000
 -0.250000  0.375000  0.000000      2.000000
 -0.187500  0.375000  0.000000      2.000000
 -0.125000  0.375000  0.000000      2.000000
 -0.062500  0.375000  0.000000      2.000000
  0.000000  0.500000  0.000000      1.000000
  0.062500  0.500000  0.000000      2.000000
  0.125000  0.500000  0.000000      2.000000
  0.187500  0.500000  0.000000      2.000000
  0.250000  0.500000  0.000000      2.000000
  0.312500  0.500000  0.000000      2.000000
  0.375000  0.500000  0.000000      2.000000
  0.437500  0.500000  0.000000      2.000000
  0.500000  0.500000  0.000000      1.000000
  0.000000  0.000000  0.083333      2.000000
  0.062500  0.000000  0.083333      2.000000
  0.125000  0.000000  0.083333      2.000000
  0.187500  0.000000  0.083333      2.000000
  0.250000  0.000000  0.083333      2.000000
  0.312500  0.000000  0.083333      2.000000
  0.375000  0.000000  0.083333      2.000000
  0.437500  0.000000  0.083333      2.000000
  0.500000  0.000000  0.083333      2.000000
 -0.437500  0.000000  0.083333      2.000000
 -0.375000  0.000000  0.083333      2.000000
 -0.312500  0.000000  0.083333      2.000000
 -0.250000  0.000000  0.083333      2.000000
 -0.187500  0.000000  0.083333      2.000000
 -0.125000  0.000000  0.083333      2.000000
 -0.062500  0.000000  0.083333      2.000000
  0.000000  0.125000  0.083333      2.000000
  0.062500  0.125000  0.083333      2.000000
  0.125000  0.125000  0.083333      2.000000
  0.187500  0.125000  0.083333      2.000000
  0.250000  0.125000  0.083333      2.000000
  0.312500  0.125000  0.083333      2.000000
  0.375000  0.125000  0.083333      2.000000
  0.437500  0.125000  0.083333      2.000000
  0.500000  0.125000  0.083333      2.000000
 -0.437500  0.125000  0.083333      2.000000
 -0.375000  0.125000  0.083333      2.000000
 -0.312500  0.125000  0.083333      2.000000
 -0.250000  0.125000  0.083333      2.000000
 -0.187500  0.125000  0.083333      2.000000
 -0.125000  0.125000  0.083333      2.000000
 -0.062500  0.125000  0.083333      2.000000
  0.000000  0.250000  0.083333      2.000000
  0.062500  0.250000  0.083333      2.000000
  0.125000  0.250000  0.083333      2.000000
  0.187500  0.250000  0.083333      2.000000
  0.250000  0.250000  0.083333      2.000000
  0.312500  0.250000  0.083333      2.000000
  0.375000  0.250000  0.083333      2.000000
  0.437500  0.250000  0.083333      2.000000
  0.500000  0.250000  0.083333      2.000000
 -0.437500  0.250000  0.083333      2.000000
 -0.375000  0.250000  0.083333      2.000000
 -0.312500  0.250000  0.083333      2.000000
 -0.250000  0.250000  0.083333      2.000000
 -0.187500  0.250000  0.083333      2.000000
 -0.125000  0.250000  0.083333      2.000000
 -0.062500  0.250000  0.083333      2.000000
  0.000000  0.375000  0.083333      2.000000
  0.062500  0.375000  0.083333      2.000000
  0.125000  0.375000  0.083333      2.000000
  0.187500  0.375000  0.083333      2.000000
  0.250000  0.375000  0.083333      2.000000
  0.312500  0.375000  0.083333      2.000000
  0.375000  0.375000  0.083333      2.000000
  0.437500  0.375000  0.083333      2.000000
  0.500000  0.375000  0.083333      2.000000
 -0.437500  0.375000  0.083333      2.000000
 -0.375000  0.375000  0.083333      2.000000
 -0.312500  0.375000  0.083333      2.000000
 -0.250000  0.375000  0.083333      2.000000
 -0.187500  0.375000  0.083333      2.000000
 -0.125000  0.375000  0.083333      2.000000
 -0.062500  0.375000  0.083333      2.000000
  0.000000  0.500000  0.083333      2.000000
  0.062500  0.500000  0.083333      2.000000
  0.125000  0.500000  0.083333      2.000000
  0.187500  0.500000  0.083333      2.000000
  0.250000  0.500000  0.083333      2.000000
  0.312500  0.500000  0.083333      2.000000
  0.375000  0.500000  0.083333      2.000000
  0.437500  0.500000  0.083333      2.000000
  0.500000  0.500000  0.083333      2.000000
 -0.437500  0.500000  0.083333      2.000000
 -0.375000  0.500000  0.083333      2.000000
 -0.312500  0.500000  0.083333      2.000000
 -0.250000  0.500000  0.083333      2.000000
 -0.187500  0.500000  0.083333      2.000000
 -0.125000  0.500000  0.083333      2.000000
 -0.062500  0.500000  0.083333      2.000000
  0.000000 -0.375000  0.083333      2.000000
  0.062500 -0.375000  0.083333      2.000000
  0.125000 -0.375000  0.083333      2.000000
  0.187500 -0.375000  0.083333      2.000000
  0.250000 -0.375000  0.083333      2.000000
  0.312500 -0.375000  0.083333      2.000000
  0.375000 -0.375000  0.083333      2.000000
  0.437500 -0.375000  0.083333      2.000000
  0.500000 -0.375000  0.083333      2.000000
 -0.437500 -0.375000  0.083333      2.000000
 -0.375000 -0.375000  0.083333      2.000000
 -0.312500 -0.375000  0.083333      2.000000
 -0.250000 -0.375000  0.083333      2.000000
 -0.187500 -0.375000  0.083333      2.000000
 -0.125000 -0.375000  0.083333      2.000000
 -0.062500 -0.375000  0.083333      2.000000
  0.000000 -0.250000  0.083333      2.000000
  0.062500 -0.250000  0.083333      2.000000
  0.125000 -0.250000  0.083333      2.000000
  0.187500 -0.250000  0.083333      2.000000
  0.250000 -0.250000  0.083333      2.000000
  0.312500 -0.250000  0.083333      2.000000
  0.375000 -0.250000  0.083333      2.000000
  0.437500 -0.250000  0.083333      2.000000
  0.500000 -0.250000  0.083333      2.000000
 -0.437500 -0.250000  0.083333      2.000000
 -0.375000 -0.250000  0.083333      2.000000
 -0.312500 -0.250000  0.083333      2.000000
 -0.250000 -0.250000  0.083333      2.000000
 -0.187500 -0.250000  0.083333      2.000000
 -0.125000 -0.250000  0.083333      2.000000
 -0.062500 -0.250000  0.083333      2.000000
  0.000000 -0.125000  0.083333      2.000000
  0.062500 -0.125000  0.083333      2.000000
  0.125000 -0.125000  0.083333      2.000000
  0.187500 -0.125000  0.083333      2.000000
  0.250000 -0.125000  0.083333      2.000000
  0.312500 -0.125000  0.083333      2.000000
  0.375000 -0.125000  0.083333      2.000000
  0.437500 -0.125000  0.083333      2.000000
  0.500000 -0.125000  0.083333      2.000000
 -0.437500 -0.125000  0.083333      2.000000
 -0.375000 -0.125000  0.083333      2.000000
 -0.312500 -0.125000  0.083333      2.000000
 -0.250000 -0.125000  0.083333      2.000000
 -0.187500 -0.125000  0.083333      2.000000
 -0.125000 -0.125000  0.083333      2.000000
 -0.062500 -0.125000  0.083333      2.000000
  0.000000  0.000000  0.166667      2.000000
  0.062500  0.000000  0.166667      2.000000
  0.125000  0.000000  0.166667      2.000000
  0.187500  0.000000  0.166667      2.000000
  0.250000  0.000000  0.166667      2.000000
  0.312500  0.000000  0.166667      2.000000
  0.375000  0.000000  0.166667      2.000000
  0.437500  0.000000  0.166667      2.000000
  0.500000  0.000000  0.166667      2.000000
 -0.437500  0.000000  0.166667      2.000000
 -0.375000  0.000000  0.166667      2.000000
 -0.312500  0.000000  0.166667      2.000000
 -0.250000  0.000000  0.166667      2.000000
 -0.187500  0.000000  0.166667      2.000000
 -0.125000  0.000000  0.166667      2.000000
 -0.062500  0.000000  0.166667      2.000000
  0.000000  0.125000  0.166667      2.000000
  0.062500  0.125000  0.166667      2.000000
  0.125000  0.125000  0.166667      2.000000
  0.187500  0.125000  0.166667      2.000000
  0.250000  0.125000  0.166667      2.000000
  0.312500  0.125000  0.166667      2.000000
  0.375000  0.125000  0.166667      2.000000
  0.437500  0.125000  0.166667      2.000000
  0.500000  0.125000  0.166667      2.000000
 -0.437500  0.125000  0.166667      2.000000
 -0.375000  0.125000  0.166667      2.000000
 -0.312500  0.125000  0.166667      2.000000
 -0.250000  0.125000  0.166667      2.000000
 -0.187500  0.125000  0.166667      2.000000
 -0.125000  0.125000  0.166667      2.000000
 -0.062500  0.125000  0.166667      2.000000
  0.000000  0.250000  0.166667      2.000000
  0.062500  0.250000  0.166667      2.000000
  0.125000  0.250000  0.166667      2.000000
  0.187500  0.250000  0.166667      2.000000
  0.250000  0.250000  0.166667      2.000000
  0.312500  0.250000  0.166667      2.000000
  0.375000  0.250000  0.166667      2.000000
  0.437500  0.250000  0.166667      2.000000
  0.500000  0.250000  0.166667      2.000000
 -0.437500  0.250000  0.166667      2.000000
 -0.375000  0.250000  0.166667      2.000000
 -0.312500  0.250000  0.166667      2.000000
 -0.250000  0.250000  0.166667      2.000000
 -0.187500  0.250000  0.166667      2.000000
 -0.125000  0.250000  0.166667      2.000000
 -0.062500  0.250000  0.166667      2.000000
  0.000000  0.375000  0.166667      2.000000
  0.062500  0.375000  0.166667      2.000000
  0.125000  0.375000  0.166667      2.000000
  0.187500  0.375000  0.166667      2.000000
  0.250000  0.375000  0.166667      2.000000
  0.312500  0.375000  0.166667      2.000000
  0.375000  0.375000  0.166667      2.000000
  0.437500  0.375000  0.166667      2.000000
  0.500000  0.375000  0.166667      2.000000
 -0.437500  0.375000  0.166667      2.000000
 -0.375000  0.375000  0.166667      2.000000
 -0.312500  0.375000  0.166667      2.000000
 -0.250000  0.375000  0.166667      2.000000
 -0.187500  0.375000  0.166667      2.000000
 -0.125000  0.375000  0.166667      2.000000
 -0.062500  0.375000  0.166667      2.000000
  0.000000  0.500000  0.166667      2.000000
  0.062500  0.500000  0.166667      2.000000
  0.125000  0.500000  0.166667      2.000000
  0.187500  0.500000  0.166667      2.000000
  0.250000  0.500000  0.166667      2.000000
  0.312500  0.500000  0.166667      2.000000
  0.375000  0.500000  0.166667      2.000000
  0.437500  0.500000  0.166667      2.000000
  0.500000  0.500000  0.166667      2.000000
 -0.437500  0.500000  0.166667      2.000000
 -0.375000  0.500000  0.166667      2.000000
 -0.312500  0.500000  0.166667      2.000000
 -0.250000  0.500000  0.166667      2.000000
 -0.187500  0.500000  0.166667      2.000000
 -0.125000  0.500000  0.166667      2.000000
 -0.062500  0.500000  0.166667      2.000000
  0.000000 -0.375000  0.166667      2.000000
  0.062500 -0.375000  0.166667      2.000000
  0.125000 -0.375000  0.166667      2.000000
  0.187500 -0.375000  0.166667      2.000000
  0.250000 -0.375000  0.166667      2.000000
  0.312500 -0.375000  0.166667      2.000000
  0.375000 -0.375000  0.166667      2.000000
  0.437500 -0.375000  0.166667      2.000000
  0.500000 -0.375000  0.166667      2.000000
 -0.437500 -0.375000  0.166667      2.000000
 -0.375000 -0.375000  0.166667      2.000000
 -0.312500 -0.375000  0.166667      2.000000
 -0.250000 -0.375000  0.166667      2.000000
 -0.187500 -0.375000  0.166667      2.000000
 -0.125000 -0.375000  0.166667      2.000000
 -0.062500 -0.375000  0.166667      2.000000
  0.000000 -0.250000  0.166667      2.000000
  0.062500 -0.250000  0.166667      2.000000
  0.125000 -0.250000  0.166667      2.000000
  0.187500 -0.250000  0.166667      2.000000
  0.250000 -0.250000  0.166667      2.000000
  0.312500 -0.250000  0.166667      2.000000
  0.375000 -0.250000  0.166667      2.000000
  0.437500 -0.250000  0.166667      2.000000
  0.500000 -0.250000  0.166667      2.000000
 -0.437500 -0.250000  0.166667      2.000000
 -0.375000 -0.250000  0.166667      2.000000
 -0.312500 -0.250000  0.166667      2.000000
 -0.250000 -0.250000  0.166667      2.000000
 -0.187500 -0.250000  0.166667      2.000000
 -0.125000 -0.250000  0.166667      2.000000
 -0.062500 -0.250000  0.166667      2.000000
  0.000000 -0.125000  0.166667      2.000000
  0.062500 -0.125000  0.166667      2.000000
  0.125000 -0.125000  0.166667      2.000000
  0.187500 -0.125000  0.166667      2.000000
  0.250000 -0.125000  0.166667      2.000000
  0.312500 -0.125000  0.166667      2.000000
  0.375000 -0.125000  0.166667      2.000000
  0.437500 -0.125000  0.166667      2.000000
  0.500000 -0.125000  0.166667      2.000000
 -0.437500 -0.125000  0.166667      2.000000
 -0.375000 -0.125000  0.166667      2.000000
 -0.312500 -0.125000  0.166667      2.000000
 -0.250000 -0.125000  0.166667      2.000000
 -0.187500 -0.125000  0.166667      2.000000
 -0.125000 -0.125000  0.166667      2.000000
 -0.062500 -0.125000  0.166667      2.000000
  0.000000 -0.000000  0.250000      2.000000
  0.062500 -0.000000  0.250000      2.000000
  0.125000 -0.000000  0.250000      2.000000
  0.187500 -0.000000  0.250000      2.000000
  0.250000 -0.000000  0.250000      2.000000
  0.312500 -0.000000  0.250000      2.000000
  0.375000 -0.000000  0.250000      2.000000
  0.437500 -0.000000  0.250000      2.000000
  0.500000 -0.000000  0.250000      2.000000
 -0.437500 -0.000000  0.250000      2.000000
 -0.375000 -0.000000  0.250000      2.000000
 -0.312500 -0.000000  0.250000      2.000000
 -0.250000 -0.000000  0.250000      2.000000
 -0.187500 -0.000000  0.250000      2.000000
 -0.125000 -0.000000  0.250000      2.000000
 -0.062500 -0.000000  0.250000      2.000000
  0.000000  0.125000  0.250000      2.000000
  0.062500  0.125000  0.250000      2.000000
  0.125000  0.125000  0.250000      2.000000
  0.187500  0.125000  0.250000      2.000000
  0.250000  0.125000  0.250000      2.000000
  0.312500  0.125000  0.250000      2.000000
  0.375000  0.125000  0.250000      2.000000
  0.437500  0.125000  0.250000      2.000000
  0.500000  0.125000  0.250000      2.000000
 -0.437500  0.125000  0.250000      2.000000
 -0.375000  0.125000  0.250000      2.000000
 -0.312500  0.125000  0.250000      2.000000
 -0.250000  0.125000  0.250000      2.000000
 -0.187500  0.125000  0.250000      2.000000
 -0.125000  0.125000  0.250000      2.000000
 -0.062500  0.125000  0.250000      2.000000
  0.000000  0.250000  0.250000      2.000000
  0.062500  0.250000  0.250000      2.000000
  0.125000  0.250000  0.250000      2.000000
  0.187500  0.250000  0.250000      2.000000
  0.250000  0.250000  0.250000      2.000000
  0.312500  0.250000  0.250000      2.000000
  0.375000  0.250000  0.250000      2.000000
  0.437500  0.250000  0.250000      2.000000
  0.500000  0.250000  0.250000      2.000000
 -0.437500  0.250000  0.250000      2.000000
 -0.375000  0.250000  0.250000      2.000000
 -0.312500  0.250000  0.250000      2.000000
 -0.250000  0.250000  0.250000      2.000000
 -0.187500  0.250000  0.250000      2.000000
 -0.125000  0.250000  0.250000      2.000000
 -0.062500  0.250000  0.250000      2.000000
  0.000000  0.375000  0.250000      2.000000
  0.062500  0.375000  0.250000      2.000000
  0.125000  0.375000  0.250000      2.000000
  0.187500  0.375000  0.250000      2.000000
  0.250000  0.375000  0.250000      2.000000
  0.312500  0.375000  0.250000      2.000000
  0.375000  0.375000  0.250000      2.000000
  0.437500  0.375000  0.250000      2.000000
  0.500000  0.375000  0.250000      2.000000
 -0.437500  0.375000  0.250000      2.000000
 -0.375000  0.375000  0.250000      2.000000
 -0.312500  0.375000  0.250000      2.000000
 -0.250000  0.375000  0.250000      2.000000
 -0.187500  0.375000  0.250000      2.000000
 -0.125000  0.375000  0.250000      2.000000
 -0.062500  0.375000  0.250000      2.000000
  0.000000  0.500000  0.250000      2.000000
  0.062500  0.500000  0.250000      2.000000
  0.125000  0.500000  0.250000      2.000000
  0.187500  0.500000  0.250000      2.000000
  0.250000  0.500000  0.250000      2.000000
  0.312500  0.500000  0.250000      2.000000
  0.375000  0.500000  0.250000      2.000000
  0.437500  0.500000  0.250000      2.000000
  0.500000  0.500000  0.250000      2.000000
 -0.437500  0.500000  0.250000      2.000000
 -0.375000  0.500000  0.250000      2.000000
 -0.312500  0.500000  0.250000      2.000000
 -0.250000  0.500000  0.250000      2.000000
 -0.187500  0.500000  0.250000      2.000000
 -0.125000  0.500000  0.250000      2.000000
 -0.062500  0.500000  0.250000      2.000000
  0.000000 -0.375000  0.250000      2.000000
  0.062500 -0.375000  0.250000      2.000000
  0.125000 -0.375000  0.250000      2.000000
  0.187500 -0.375000  0.250000      2.000000
  0.250000 -0.375000  0.250000      2.000000
  0.312500 -0.375000  0.250000      2.000000
  0.375000 -0.375000  0.250000      2.000000
  0.437500 -0.375000  0.250000      2.000000
  0.500000 -0.375000  0.250000      2.000000
 -0.437500 -0.375000  0.250000      2.000000
 -0.375000 -0.375000  0.250000      2.000000
 -0.312500 -0.375000  0.250000      2.000000
 -0.250000 -0.375000  0.250000      2.000000
 -0.187500 -0.375000  0.250000      2.000000
 -0.125000 -0.375000  0.250000      2.000000
 -0.062500 -0.375000  0.250000      2.000000
  0.000000 -0.250000  0.250000      2.000000
  0.062500 -0.250000  0.250000      2.000000
  0.125000 -0.250000  0.250000      2.000000
  0.187500 -0.250000  0.250000      2.000000
  0.250000 -0.250000  0.250000      2.000000
  0.312500 -0.250000  0.250000      2.000000
  0.375000 -0.250000  0.250000      2.000000
  0.437500 -0.250000  0.250000      2.000000
  0.500000 -0.250000  0.250000      2.000000
 -0.437500 -0.250000  0.250000      2.000000
 -0.375000 -0.250000  0.250000      2.000000
 -0.312500 -0.250000  0.250000      2.000000
 -0.250000 -0.250000  0.250000      2.000000
 -0.187500 -0.250000  0.250000      2.000000
 -0.125000 -0.250000  0.250000      2.000000
 -0.062500 -0.250000  0.250000      2.000000
  0.000000 -0.125000  0.250000      2.000000
  0.062500 -0.125000  0.250000      2.000000
  0.125000 -0.125000  0.250000      2.000000
  0.187500 -0.125000  0.250000      2.000000
  0.250000 -0.125000  0.250000      2.000000
  0.312500 -0.125000  0.250000      2.000000
  0.375000 -0.125000  0.250000      2.000000
  0.437500 -0.125000  0.250000      2.000000
  0.500000 -0.125000  0.250000      2.000000
 -0.437500 -0.125000  0.250000      2.000000
 -0.375000 -0.125000  0.250000      2.000000
 -0.312500 -0.125000  0.250000      2.000000
 -0.250000 -0.125000  0.250000      2.000000
 -0.187500 -0.125000  0.250000      2.000000
 -0.125000 -0.125000  0.250000      2.000000
 -0.062500 -0.125000  0.250000      2.000000
  0.000000 -0.000000  0.333333      2.000000
  0.062500 -0.000000  0.333333      2.000000
  0.125000 -0.000000  0.333333      2.000000
  0.187500 -0.000000  0.333333      2.000000
  0.250000 -0.000000  0.333333      2.000000
  0.312500 -0.000000  0.333333      2.000000
  0.375000 -0.000000  0.333333      2.000000
  0.437500 -0.000000  0.333333      2.000000
  0.500000 -0.000000  0.333333      2.000000
 -0.437500 -0.000000  0.333333      2.000000
 -0.375000 -0.000000  0.333333      2.000000
 -0.312500 -0.000000  0.333333      2.000000
 -0.250000 -0.000000  0.333333      2.000000
 -0.187500 -0.000000  0.333333      2.000000
 -0.125000 -0.000000  0.333333      2.000000
 -0.062500 -0.000000  0.333333      2.000000
  0.000000  0.125000  0.333333      2.000000
  0.062500  0.125000  0.333333      2.000000
  0.125000  0.125000  0.333333      2.000000
  0.187500  0.125000  0.333333      2.000000
  0.250000  0.125000  0.333333      2.000000
  0.312500  0.125000  0.333333      2.000000
  0.375000  0.125000  0.333333      2.000000
  0.437500  0.125000  0.333333      2.000000
  0.500000  0.125000  0.333333      2.000000
 -0.437500  0.125000  0.333333      2.000000
 -0.375000  0.125000  0.333333      2.000000
 -0.312500  0.125000  0.333333      2.000000
 -0.250000  0.125000  0.333333      2.000000
 -0.187500  0.125000  0.333333      2.000000
 -0.125000  0.125000  0.333333      2.000000
 -0.062500  0.125000  0.333333      2.000000
  0.000000  0.250000  0.333333      2.000000
  0.062500  0.250000  0.333333      2.000000
  0.125000  0.250000  0.333333      2.000000
  0.187500  0.250000  0.333333      2.000000
  0.250000  0.250000  0.333333      2.000000
  0.312500  0.250000  0.333333      2.000000
  0.375000  0.250000  0.333333      2.000000
  0.437500  0.250000  0.333333      2.000000
  0.500000  0.250000  0.333333      2.000000
 -0.437500  0.250000  0.333333      2.000000
 -0.375000  0.250000  0.333333      2.000000
 -0.312500  0.250000  0.333333      2.000000
 -0.250000  0.250000  0.333333      2.000000
 -0.187500  0.250000  0.333333      2.000000
 -0.125000  0.250000  0.333333      2.000000
 -0.062500  0.250000  0.333333      2.000000
  0.000000  0.375000  0.333333      2.000000
  0.062500  0.375000  0.333333      2.000000
  0.125000  0.375000  0.333333      2.000000
  0.187500  0.375000  0.333333      2.000000
  0.250000  0.375000  0.333333      2.000000
  0.312500  0.375000  0.333333      2.000000
  0.375000  0.375000  0.333333      2.000000
  0.437500  0.375000  0.333333      2.000000
  0.500000  0.375000  0.333333      2.000000
 -0.437500  0.375000  0.333333      2.000000
 -0.375000  0.375000  0.333333      2.000000
 -0.312500  0.375000  0.333333      2.000000
 -0.250000  0.375000  0.333333      2.000000
 -0.187500  0.375000  0.333333      2.000000
 -0.125000  0.375000  0.333333      2.000000
 -0.062500  0.375000  0.333333      2.000000
  0.000000  0.500000  0.333333      2.000000
  0.062500  0.500000  0.333333      2.000000
  0.125000  0.500000  0.333333      2.000000
  0.187500  0.500000  0.333333      2.000000
  0.250000  0.500000  0.333333      2.000000
  0.312500  0.500000  0.333333      2.000000
  0.375000  0.500000  0.333333      2.000000
  0.437500  0.500000  0.333333      2.000000
  0.500000  0.500000  0.333333      2.000000
 -0.437500  0.500000  0.333333      2.000000
 -0.375000  0.500000  0.333333      2.000000
 -0.312500  0.500000  0.333333      2.000000
 -0.250000  0.500000  0.333333      2.000000
 -0.187500  0.500000  0.333333      2.000000
 -0.125000  0.500000  0.333333      2.000000
 -0.062500  0.500000  0.333333      2.000000
  0.000000 -0.375000  0.333333      2.000000
  0.062500 -0.375000  0.333333      2.000000
  0.125000 -0.375000  0.333333      2.000000
  0.187500 -0.375000  0.333333      2.000000
  0.250000 -0.375000  0.333333      2.000000
  0.312500 -0.375000  0.333333      2.000000
  0.375000 -0.375000  0.333333      2.000000
  0.437500 -0.375000  0.333333      2.000000
  0.500000 -0.375000  0.333333      2.000000
 -0.437500 -0.375000  0.333333      2.000000
 -0.375000 -0.375000  0.333333      2.000000
 -0.312500 -0.375000  0.333333      2.000000
 -0.250000 -0.375000  0.333333      2.000000
 -0.187500 -0.375000  0.333333      2.000000
 -0.125000 -0.375000  0.333333      2.000000
 -0.062500 -0.375000  0.333333      2.000000
  0.000000 -0.250000  0.333333      2.000000
  0.062500 -0.250000  0.333333      2.000000
  0.125000 -0.250000  0.333333      2.000000
  0.187500 -0.250000  0.333333      2.000000
  0.250000 -0.250000  0.333333      2.000000
  0.312500 -0.250000  0.333333      2.000000
  0.375000 -0.250000  0.333333      2.000000
  0.437500 -0.250000  0.333333      2.000000
  0.500000 -0.250000  0.333333      2.000000
 -0.437500 -0.250000  0.333333      2.000000
 -0.375000 -0.250000  0.333333      2.000000
 -0.312500 -0.250000  0.333333      2.000000
 -0.250000 -0.250000  0.333333      2.000000
 -0.187500 -0.250000  0.333333      2.000000
 -0.125000 -0.250000  0.333333      2.000000
 -0.062500 -0.250000  0.333333      2.000000
  0.000000 -0.125000  0.333333      2.000000
  0.062500 -0.125000  0.333333      2.000000
  0.125000 -0.125000  0.333333      2.000000
  0.187500 -0.125000  0.333333      2.000000
  0.250000 -0.125000  0.333333      2.000000
  0.312500 -0.125000  0.333333      2.000000
  0.375000 -0.125000  0.333333      2.000000
  0.437500 -0.125000  0.333333      2.000000
  0.500000 -0.125000  0.333333      2.000000
 -0.437500 -0.125000  0.333333      2.000000
 -0.375000 -0.125000  0.333333      2.000000
 -0.312500 -0.125000  0.333333      2.000000
 -0.250000 -0.125000  0.333333      2.000000
 -0.187500 -0.125000  0.333333      2.000000
 -0.125000 -0.125000  0.333333      2.000000
 -0.062500 -0.125000  0.333333      2.000000
  0.000000  0.000000  0.416667      2.000000
  0.062500  0.000000  0.416667      2.000000
  0.125000  0.000000  0.416667      2.000000
  0.187500  0.000000  0.416667      2.000000
  0.250000  0.000000  0.416667      2.000000
  0.312500  0.000000  0.416667      2.000000
  0.375000  0.000000  0.416667      2.000000
  0.437500  0.000000  0.416667      2.000000
  0.500000  0.000000  0.416667      2.000000
 -0.437500  0.000000  0.416667      2.000000
 -0.375000  0.000000  0.416667      2.000000
 -0.312500  0.000000  0.416667      2.000000
 -0.250000  0.000000  0.416667      2.000000
 -0.187500  0.000000  0.416667      2.000000
 -0.125000  0.000000  0.416667      2.000000
 -0.062500  0.000000  0.416667      2.000000
  0.000000  0.125000  0.416667      2.000000
  0.062500  0.125000  0.416667      2.000000
  0.125000  0.125000  0.416667      2.000000
  0.187500  0.125000  0.416667      2.000000
  0.250000  0.125000  0.416667      2.000000
  0.312500  0.125000  0.416667      2.000000
  0.375000  0.125000  0.416667      2.000000
  0.437500  0.125000  0.416667      2.000000
  0.500000  0.125000  0.416667      2.000000
 -0.437500  0.125000  0.416667      2.000000
 -0.375000  0.125000  0.416667      2.000000
 -0.312500  0.125000  0.416667      2.000000
 -0.250000  0.125000  0.416667      2.000000
 -0.187500  0.125000  0.416667      2.000000
 -0.125000  0.125000  0.416667      2.000000
 -0.062500  0.125000  0.416667      2.000000
  0.000000  0.250000  0.416667      2.000000
  0.062500  0.250000  0.416667      2.000000
  0.125000  0.250000  0.416667      2.000000
  0.187500  0.250000  0.416667      2.000000
  0.250000  0.250000  0.416667      2.000000
  0.312500  0.250000  0.416667      2.000000
  0.375000  0.250000  0.416667      2.000000
  0.437500  0.250000  0.416667      2.000000
  0.500000  0.250000  0.416667      2.000000
 -0.437500  0.250000  0.416667      2.000000
 -0.375000  0.250000  0.416667      2.000000
 -0.312500  0.250000  0.416667      2.000000
 -0.250000  0.250000  0.416667      2.000000
 -0.187500  0.250000  0.416667      2.000000
 -0.125000  0.250000  0.416667      2.000000
 -0.062500  0.250000  0.416667      2.000000
  0.000000  0.375000  0.416667      2.000000
  0.062500  0.375000  0.416667      2.000000
  0.125000  0.375000  0.416667      2.000000
  0.187500  0.375000  0.416667      2.000000
  0.250000  0.375000  0.416667      2.000000
  0.312500  0.375000  0.416667      2.000000
  0.375000  0.375000  0.416667      2.000000
  0.437500  0.375000  0.416667      2.000000
  0.500000  0.375000  0.416667      2.000000
 -0.437500  0.375000  0.416667      2.000000
 -0.375000  0.375000  0.416667      2.000000
 -0.312500  0.375000  0.416667      2.000000
 -0.250000  0.375000  0.416667      2.000000
 -0.187500  0.375000  0.416667      2.000000
 -0.125000  0.375000  0.416667      2.000000
 -0.062500  0.375000  0.416667      2.000000
  0.000000  0.500000  0.416667      2.000000
  0.062500  0.500000  0.416667      2.000000
  0.125000  0.500000  0.416667      2.000000
  0.187500  0.500000  0.416667      2.000000
  0.250000  0.500000  0.416667      2.000000
  0.312500  0.500000  0.416667      2.000000
  0.375000  0.500000  0.416667      2.000000
  0.437500  0.500000  0.416667      2.000000
  0.500000  0.500000  0.416667      2.000000
 -0.437500  0.500000  0.416667      2.000000
 -0.375000  0.500000  0.416667      2.000000
 -0.312500  0.500000  0.416667      2.000000
 -0.250000  0.500000  0.416667      2.000000
 -0.187500  0.500000  0.416667      2.000000
 -0.125000  0.500000  0.416667      2.000000
 -0.062500  0.500000  0.416667      2.000000
  0.000000 -0.375000  0.416667      2.000000
  0.062500 -0.375000  0.416667      2.000000
  0.125000 -0.375000  0.416667      2.000000
  0.187500 -0.375000  0.416667      2.000000
  0.250000 -0.375000  0.416667      2.000000
  0.312500 -0.375000  0.416667      2.000000
  0.375000 -0.375000  0.416667      2.000000
  0.437500 -0.375000  0.416667      2.000000
  0.500000 -0.375000  0.416667      2.000000
 -0.437500 -0.375000  0.416667      2.000000
 -0.375000 -0.375000  0.416667      2.000000
 -0.312500 -0.375000  0.416667      2.000000
 -0.250000 -0.375000  0.416667      2.000000
 -0.187500 -0.375000  0.416667      2.000000
 -0.125000 -0.375000  0.416667      2.000000
 -0.062500 -0.375000  0.416667      2.000000
  0.000000 -0.250000  0.416667      2.000000
  0.062500 -0.250000  0.416667      2.000000
  0.125000 -0.250000  0.416667      2.000000
  0.187500 -0.250000  0.416667      2.000000
  0.250000 -0.250000  0.416667      2.000000
  0.312500 -0.250000  0.416667      2.000000
  0.375000 -0.250000  0.416667      2.000000
  0.437500 -0.250000  0.416667      2.000000
  0.500000 -0.250000  0.416667      2.000000
 -0.437500 -0.250000  0.416667      2.000000
 -0.375000 -0.250000  0.416667      2.000000
 -0.312500 -0.250000  0.416667      2.000000
 -0.250000 -0.250000  0.416667      2.000000
 -0.187500 -0.250000  0.416667      2.000000
 -0.125000 -0.250000  0.416667      2.000000
 -0.062500 -0.250000  0.416667      2.000000
  0.000000 -0.125000  0.416667      2.000000
  0.062500 -0.125000  0.416667      2.000000
  0.125000 -0.125000  0.416667      2.000000
  0.187500 -0.125000  0.416667      2.000000
  0.250000 -0.125000  0.416667      2.000000
  0.312500 -0.125000  0.416667      2.000000
  0.375000 -0.125000  0.416667      2.000000
  0.437500 -0.125000  0.416667      2.000000
  0.500000 -0.125000  0.416667      2.000000
 -0.437500 -0.125000  0.416667      2.000000
 -0.375000 -0.125000  0.416667      2.000000
 -0.312500 -0.125000  0.416667      2.000000
 -0.250000 -0.125000  0.416667      2.000000
 -0.187500 -0.125000  0.416667      2.000000
 -0.125000 -0.125000  0.416667      2.000000
 -0.062500 -0.125000  0.416667      2.000000
  0.000000 -0.000000  0.500000      1.000000
  0.062500 -0.000000  0.500000      2.000000
  0.125000 -0.000000  0.500000      2.000000
  0.187500 -0.000000  0.500000      2.000000
  0.250000 -0.000000  0.500000      2.000000
  0.312500 -0.000000  0.500000      2.000000
  0.375000 -0.000000  0.500000      2.000000
  0.437500 -0.000000  0.500000      2.000000
  0.500000 -0.000000  0.500000      1.000000
  0.000000  0.125000  0.500000      2.000000
  0.062500  0.125000  0.500000      2.000000
  0.125000  0.125000  0.500000      2.000000
  0.187500  0.125000  0.500000      2.000000
  0.250000  0.125000  0.500000      2.000000
  0.312500  0.125000  0.500000      2.000000
  0.375000  0.125000  0.500000      2.000000
  0.437500  0.125000  0.500000      2.000000
  0.500000  0.125000  0.500000      2.000000
 -0.437500  0.125000  0.500000      2.000000
 -0.375000  0.125000  0.500000      2.000000
 -0.312500  0.125000  0.500000      2.000000
 -0.250000  0.125000  0.500000      2.000000
 -0.187500  0.125000  0.500000      2.000000
 -0.125000  0.125000  0.500000      2.000000
 -0.062500  0.125000  0.500000      2.000000
  0.000000  0.250000  0.500000      2.000000
  0.062500  0.250000  0.500000      2.000000
  0.125000  0.250000  0.500000      2.000000
  0.187500  0.250000  0.500000      2.000000
  0.250000  0.250000  0.500000      2.000000
  0.312500  0.250000  0.500000      2.000000
  0.375000  0.250000  0.500000      2.000000
  0.437500  0.250000  0.500000      2.000000
  0.500000  0.250000  0.500000      2.000000
 -0.437500  0.250000  0.500000      2.000000
 -0.375000  0.250000  0.500000      2.000000
 -0.312500  0.250000  0.500000      2.000000
 -0.250000  0.250000  0.500000      2.000000
 -0.187500  0.250000  0.500000      2.000000
 -0.125000  0.250000  0.500000      2.000000
 -0.062500  0.250000  0.500000      2.000000
  0.000000  0.375000  0.500000      2.000000
  0.062500  0.375000  0.500000      2.000000
  0.125000  0.375000  0.500000      2.000000
  0.187500  0.375000  0.500000      2.000000
  0.250000  0.375000  0.500000      2.000000
  0.312500  0.375000  0.500000      2.000000
  0.375000  0.375000  0.500000      2.000000
  0.437500  0.375000  0.500000      2.000000
  0.500000  0.375000  0.500000      2.000000
 -0.437500  0.375000  0.500000      2.000000
 -0.375000  0.375000  0.500000      2.000000
 -0.312500  0.375000  0.500000      2.000000
 -0.250000  0.375000  0.500000      2.000000
 -0.187500  0.375000  0.500000      2.000000
 -0.125000  0.375000  0.500000      2.000000
 -0.062500  0.375000  0.500000      2.000000
  0.000000  0.500000  0.500000      1.000000
  0.062500  0.500000  0.500000      2.000000
  0.125000  0.500000  0.500000      2.000000
  0.187500  0.500000  0.500000      2.000000
  0.250000  0.500000  0.500000      2.000000
  0.312500  0.500000  0.500000      2.000000
  0.375000  0.500000  0.500000      2.000000
  0.437500  0.500000  0.500000      2.000000
  0.500000  0.500000  0.500000      1.000000
 
 Following cartesian coordinates:
            Coordinates               Weight
  0.000000  0.000000  0.000000      1.000000
  0.000000  0.000000 -0.019596      2.000000
  0.000000  0.000000 -0.039191      2.000000
  0.000000  0.000000 -0.058787      2.000000
  0.000000  0.000000 -0.078382      2.000000
  0.000000  0.000000 -0.097978      2.000000
  0.000000  0.000000 -0.117573      2.000000
  0.000000  0.000000 -0.137169      2.000000
  0.000000  0.000000 -0.156764      1.000000
  0.000000 -0.027503  0.000000      2.000000
  0.000000 -0.027503 -0.019596      2.000000
  0.000000 -0.027503 -0.039191      2.000000
  0.000000 -0.027503 -0.058787      2.000000
  0.000000 -0.027503 -0.078382      2.000000
  0.000000 -0.027503 -0.097978      2.000000
  0.000000 -0.027503 -0.117573      2.000000
  0.000000 -0.027503 -0.137169      2.000000
  0.000000 -0.027503 -0.156764      2.000000
  0.000000 -0.027503  0.137169      2.000000
  0.000000 -0.027503  0.117573      2.000000
  0.000000 -0.027503  0.097978      2.000000
  0.000000 -0.027503  0.078382      2.000000
  0.000000 -0.027503  0.058787      2.000000
  0.000000 -0.027503  0.039191      2.000000
  0.000000 -0.027503  0.019596      2.000000
  0.000000 -0.055006  0.000000      2.000000
  0.000000 -0.055006 -0.019596      2.000000
  0.000000 -0.055006 -0.039191      2.000000
  0.000000 -0.055006 -0.058787      2.000000
  0.000000 -0.055006 -0.078382      2.000000
  0.000000 -0.055006 -0.097978      2.000000
  0.000000 -0.055006 -0.117573      2.000000
  0.000000 -0.055006 -0.137169      2.000000
  0.000000 -0.055006 -0.156764      2.000000
  0.000000 -0.055006  0.137169      2.000000
  0.000000 -0.055006  0.117573      2.000000
  0.000000 -0.055006  0.097978      2.000000
  0.000000 -0.055006  0.078382      2.000000
  0.000000 -0.055006  0.058787      2.000000
  0.000000 -0.055006  0.039191      2.000000
  0.000000 -0.055006  0.019596      2.000000
  0.000000 -0.082509  0.000000      2.000000
  0.000000 -0.082509 -0.019596      2.000000
  0.000000 -0.082509 -0.039191      2.000000
  0.000000 -0.082509 -0.058787      2.000000
  0.000000 -0.082509 -0.078382      2.000000
  0.000000 -0.082509 -0.097978      2.000000
  0.000000 -0.082509 -0.117573      2.000000
  0.000000 -0.082509 -0.137169      2.000000
  0.000000 -0.082509 -0.156764      2.000000
  0.000000 -0.082509  0.137169      2.000000
  0.000000 -0.082509  0.117573      2.000000
  0.000000 -0.082509  0.097978      2.000000
  0.000000 -0.082509  0.078382      2.000000
  0.000000 -0.082509  0.058787      2.000000
  0.000000 -0.082509  0.039191      2.000000
  0.000000 -0.082509  0.019596      2.000000
  0.000000 -0.110012  0.000000      1.000000
  0.000000 -0.110012 -0.019596      2.000000
  0.000000 -0.110012 -0.039191      2.000000
  0.000000 -0.110012 -0.058787      2.000000
  0.000000 -0.110012 -0.078382      2.000000
  0.000000 -0.110012 -0.097978      2.000000
  0.000000 -0.110012 -0.117573      2.000000
  0.000000 -0.110012 -0.137169      2.000000
  0.000000 -0.110012 -0.156764      1.000000
 -0.018335 -0.018335  0.000000      2.000000
 -0.018335 -0.018335 -0.019596      2.000000
 -0.018335 -0.018335 -0.039191      2.000000
 -0.018335 -0.018335 -0.058787      2.000000
 -0.018335 -0.018335 -0.078382      2.000000
 -0.018335 -0.018335 -0.097978      2.000000
 -0.018335 -0.018335 -0.117573      2.000000
 -0.018335 -0.018335 -0.137169      2.000000
 -0.018335 -0.018335 -0.156764      2.000000
 -0.018335 -0.018335  0.137169      2.000000
 -0.018335 -0.018335  0.117573      2.000000
 -0.018335 -0.018335  0.097978      2.000000
 -0.018335 -0.018335  0.078382      2.000000
 -0.018335 -0.018335  0.058787      2.000000
 -0.018335 -0.018335  0.039191      2.000000
 -0.018335 -0.018335  0.019596      2.000000
 -0.018335 -0.045839  0.000000      2.000000
 -0.018335 -0.045839 -0.019596      2.000000
 -0.018335 -0.045839 -0.039191      2.000000
 -0.018335 -0.045839 -0.058787      2.000000
 -0.018335 -0.045839 -0.078382      2.000000
 -0.018335 -0.045839 -0.097978      2.000000
 -0.018335 -0.045839 -0.117573      2.000000
 -0.018335 -0.045839 -0.137169      2.000000
 -0.018335 -0.045839 -0.156764      2.000000
 -0.018335 -0.045839  0.137169      2.000000
 -0.018335 -0.045839  0.117573      2.000000
 -0.018335 -0.045839  0.097978      2.000000
 -0.018335 -0.045839  0.078382      2.000000
 -0.018335 -0.045839  0.058787      2.000000
 -0.018335 -0.045839  0.039191      2.000000
 -0.018335 -0.045839  0.019596      2.000000
 -0.018335 -0.073342  0.000000      2.000000
 -0.018335 -0.073342 -0.019596      2.000000
 -0.018335 -0.073342 -0.039191      2.000000
 -0.018335 -0.073342 -0.058787      2.000000
 -0.018335 -0.073342 -0.078382      2.000000
 -0.018335 -0.073342 -0.097978      2.000000
 -0.018335 -0.073342 -0.117573      2.000000
 -0.018335 -0.073342 -0.137169      2.000000
 -0.018335 -0.073342 -0.156764      2.000000
 -0.018335 -0.073342  0.137169      2.000000
 -0.018335 -0.073342  0.117573      2.000000
 -0.018335 -0.073342  0.097978      2.000000
 -0.018335 -0.073342  0.078382      2.000000
 -0.018335 -0.073342  0.058787      2.000000
 -0.018335 -0.073342  0.039191      2.000000
 -0.018335 -0.073342  0.019596      2.000000
 -0.018335 -0.100845  0.000000      2.000000
 -0.018335 -0.100845 -0.019596      2.000000
 -0.018335 -0.100845 -0.039191      2.000000
 -0.018335 -0.100845 -0.058787      2.000000
 -0.018335 -0.100845 -0.078382      2.000000
 -0.018335 -0.100845 -0.097978      2.000000
 -0.018335 -0.100845 -0.117573      2.000000
 -0.018335 -0.100845 -0.137169      2.000000
 -0.018335 -0.100845 -0.156764      2.000000
 -0.018335 -0.100845  0.137169      2.000000
 -0.018335 -0.100845  0.117573      2.000000
 -0.018335 -0.100845  0.097978      2.000000
 -0.018335 -0.100845  0.078382      2.000000
 -0.018335 -0.100845  0.058787      2.000000
 -0.018335 -0.100845  0.039191      2.000000
 -0.018335 -0.100845  0.019596      2.000000
 -0.018335 -0.128348  0.000000      2.000000
 -0.018335 -0.128348 -0.019596      2.000000
 -0.018335 -0.128348 -0.039191      2.000000
 -0.018335 -0.128348 -0.058787      2.000000
 -0.018335 -0.128348 -0.078382      2.000000
 -0.018335 -0.128348 -0.097978      2.000000
 -0.018335 -0.128348 -0.117573      2.000000
 -0.018335 -0.128348 -0.137169      2.000000
 -0.018335 -0.128348 -0.156764      2.000000
 -0.018335 -0.128348  0.137169      2.000000
 -0.018335 -0.128348  0.117573      2.000000
 -0.018335 -0.128348  0.097978      2.000000
 -0.018335 -0.128348  0.078382      2.000000
 -0.018335 -0.128348  0.058787      2.000000
 -0.018335 -0.128348  0.039191      2.000000
 -0.018335 -0.128348  0.019596      2.000000
 -0.018335  0.064174  0.000000      2.000000
 -0.018335  0.064174 -0.019596      2.000000
 -0.018335  0.064174 -0.039191      2.000000
 -0.018335  0.064174 -0.058787      2.000000
 -0.018335  0.064174 -0.078382      2.000000
 -0.018335  0.064174 -0.097978      2.000000
 -0.018335  0.064174 -0.117573      2.000000
 -0.018335  0.064174 -0.137169      2.000000
 -0.018335  0.064174 -0.156764      2.000000
 -0.018335  0.064174  0.137169      2.000000
 -0.018335  0.064174  0.117573      2.000000
 -0.018335  0.064174  0.097978      2.000000
 -0.018335  0.064174  0.078382      2.000000
 -0.018335  0.064174  0.058787      2.000000
 -0.018335  0.064174  0.039191      2.000000
 -0.018335  0.064174  0.019596      2.000000
 -0.018335  0.036671  0.000000      2.000000
 -0.018335  0.036671 -0.019596      2.000000
 -0.018335  0.036671 -0.039191      2.000000
 -0.018335  0.036671 -0.058787      2.000000
 -0.018335  0.036671 -0.078382      2.000000
 -0.018335  0.036671 -0.097978      2.000000
 -0.018335  0.036671 -0.117573      2.000000
 -0.018335  0.036671 -0.137169      2.000000
 -0.018335  0.036671 -0.156764      2.000000
 -0.018335  0.036671  0.137169      2.000000
 -0.018335  0.036671  0.117573      2.000000
 -0.018335  0.036671  0.097978      2.000000
 -0.018335  0.036671  0.078382      2.000000
 -0.018335  0.036671  0.058787      2.000000
 -0.018335  0.036671  0.039191      2.000000
 -0.018335  0.036671  0.019596      2.000000
 -0.018335  0.009168  0.000000      2.000000
 -0.018335  0.009168 -0.019596      2.000000
 -0.018335  0.009168 -0.039191      2.000000
 -0.018335  0.009168 -0.058787      2.000000
 -0.018335  0.009168 -0.078382      2.000000
 -0.018335  0.009168 -0.097978      2.000000
 -0.018335  0.009168 -0.117573      2.000000
 -0.018335  0.009168 -0.137169      2.000000
 -0.018335  0.009168 -0.156764      2.000000
 -0.018335  0.009168  0.137169      2.000000
 -0.018335  0.009168  0.117573      2.000000
 -0.018335  0.009168  0.097978      2.000000
 -0.018335  0.009168  0.078382      2.000000
 -0.018335  0.009168  0.058787      2.000000
 -0.018335  0.009168  0.039191      2.000000
 -0.018335  0.009168  0.019596      2.000000
 -0.036671 -0.036671  0.000000      2.000000
 -0.036671 -0.036671 -0.019596      2.000000
 -0.036671 -0.036671 -0.039191      2.000000
 -0.036671 -0.036671 -0.058787      2.000000
 -0.036671 -0.036671 -0.078382      2.000000
 -0.036671 -0.036671 -0.097978      2.000000
 -0.036671 -0.036671 -0.117573      2.000000
 -0.036671 -0.036671 -0.137169      2.000000
 -0.036671 -0.036671 -0.156764      2.000000
 -0.036671 -0.036671  0.137169      2.000000
 -0.036671 -0.036671  0.117573      2.000000
 -0.036671 -0.036671  0.097978      2.000000
 -0.036671 -0.036671  0.078382      2.000000
 -0.036671 -0.036671  0.058787      2.000000
 -0.036671 -0.036671  0.039191      2.000000
 -0.036671 -0.036671  0.019596      2.000000
 -0.036671 -0.064174  0.000000      2.000000
 -0.036671 -0.064174 -0.019596      2.000000
 -0.036671 -0.064174 -0.039191      2.000000
 -0.036671 -0.064174 -0.058787      2.000000
 -0.036671 -0.064174 -0.078382      2.000000
 -0.036671 -0.064174 -0.097978      2.000000
 -0.036671 -0.064174 -0.117573      2.000000
 -0.036671 -0.064174 -0.137169      2.000000
 -0.036671 -0.064174 -0.156764      2.000000
 -0.036671 -0.064174  0.137169      2.000000
 -0.036671 -0.064174  0.117573      2.000000
 -0.036671 -0.064174  0.097978      2.000000
 -0.036671 -0.064174  0.078382      2.000000
 -0.036671 -0.064174  0.058787      2.000000
 -0.036671 -0.064174  0.039191      2.000000
 -0.036671 -0.064174  0.019596      2.000000
 -0.036671 -0.091677  0.000000      2.000000
 -0.036671 -0.091677 -0.019596      2.000000
 -0.036671 -0.091677 -0.039191      2.000000
 -0.036671 -0.091677 -0.058787      2.000000
 -0.036671 -0.091677 -0.078382      2.000000
 -0.036671 -0.091677 -0.097978      2.000000
 -0.036671 -0.091677 -0.117573      2.000000
 -0.036671 -0.091677 -0.137169      2.000000
 -0.036671 -0.091677 -0.156764      2.000000
 -0.036671 -0.091677  0.137169      2.000000
 -0.036671 -0.091677  0.117573      2.000000
 -0.036671 -0.091677  0.097978      2.000000
 -0.036671 -0.091677  0.078382      2.000000
 -0.036671 -0.091677  0.058787      2.000000
 -0.036671 -0.091677  0.039191      2.000000
 -0.036671 -0.091677  0.019596      2.000000
 -0.036671 -0.119180  0.000000      2.000000
 -0.036671 -0.119180 -0.019596      2.000000
 -0.036671 -0.119180 -0.039191      2.000000
 -0.036671 -0.119180 -0.058787      2.000000
 -0.036671 -0.119180 -0.078382      2.000000
 -0.036671 -0.119180 -0.097978      2.000000
 -0.036671 -0.119180 -0.117573      2.000000
 -0.036671 -0.119180 -0.137169      2.000000
 -0.036671 -0.119180 -0.156764      2.000000
 -0.036671 -0.119180  0.137169      2.000000
 -0.036671 -0.119180  0.117573      2.000000
 -0.036671 -0.119180  0.097978      2.000000
 -0.036671 -0.119180  0.078382      2.000000
 -0.036671 -0.119180  0.058787      2.000000
 -0.036671 -0.119180  0.039191      2.000000
 -0.036671 -0.119180  0.019596      2.000000
 -0.036671 -0.146683  0.000000      2.000000
 -0.036671 -0.146683 -0.019596      2.000000
 -0.036671 -0.146683 -0.039191      2.000000
 -0.036671 -0.146683 -0.058787      2.000000
 -0.036671 -0.146683 -0.078382      2.000000
 -0.036671 -0.146683 -0.097978      2.000000
 -0.036671 -0.146683 -0.117573      2.000000
 -0.036671 -0.146683 -0.137169      2.000000
 -0.036671 -0.146683 -0.156764      2.000000
 -0.036671 -0.146683  0.137169      2.000000
 -0.036671 -0.146683  0.117573      2.000000
 -0.036671 -0.146683  0.097978      2.000000
 -0.036671 -0.146683  0.078382      2.000000
 -0.036671 -0.146683  0.058787      2.000000
 -0.036671 -0.146683  0.039191      2.000000
 -0.036671 -0.146683  0.019596      2.000000
 -0.036671  0.045839  0.000000      2.000000
 -0.036671  0.045839 -0.019596      2.000000
 -0.036671  0.045839 -0.039191      2.000000
 -0.036671  0.045839 -0.058787      2.000000
 -0.036671  0.045839 -0.078382      2.000000
 -0.036671  0.045839 -0.097978      2.000000
 -0.036671  0.045839 -0.117573      2.000000
 -0.036671  0.045839 -0.137169      2.000000
 -0.036671  0.045839 -0.156764      2.000000
 -0.036671  0.045839  0.137169      2.000000
 -0.036671  0.045839  0.117573      2.000000
 -0.036671  0.045839  0.097978      2.000000
 -0.036671  0.045839  0.078382      2.000000
 -0.036671  0.045839  0.058787      2.000000
 -0.036671  0.045839  0.039191      2.000000
 -0.036671  0.045839  0.019596      2.000000
 -0.036671  0.018335  0.000000      2.000000
 -0.036671  0.018335 -0.019596      2.000000
 -0.036671  0.018335 -0.039191      2.000000
 -0.036671  0.018335 -0.058787      2.000000
 -0.036671  0.018335 -0.078382      2.000000
 -0.036671  0.018335 -0.097978      2.000000
 -0.036671  0.018335 -0.117573      2.000000
 -0.036671  0.018335 -0.137169      2.000000
 -0.036671  0.018335 -0.156764      2.000000
 -0.036671  0.018335  0.137169      2.000000
 -0.036671  0.018335  0.117573      2.000000
 -0.036671  0.018335  0.097978      2.000000
 -0.036671  0.018335  0.078382      2.000000
 -0.036671  0.018335  0.058787      2.000000
 -0.036671  0.018335  0.039191      2.000000
 -0.036671  0.018335  0.019596      2.000000
 -0.036671 -0.009168  0.000000      2.000000
 -0.036671 -0.009168 -0.019596      2.000000
 -0.036671 -0.009168 -0.039191      2.000000
 -0.036671 -0.009168 -0.058787      2.000000
 -0.036671 -0.009168 -0.078382      2.000000
 -0.036671 -0.009168 -0.097978      2.000000
 -0.036671 -0.009168 -0.117573      2.000000
 -0.036671 -0.009168 -0.137169      2.000000
 -0.036671 -0.009168 -0.156764      2.000000
 -0.036671 -0.009168  0.137169      2.000000
 -0.036671 -0.009168  0.117573      2.000000
 -0.036671 -0.009168  0.097978      2.000000
 -0.036671 -0.009168  0.078382      2.000000
 -0.036671 -0.009168  0.058787      2.000000
 -0.036671 -0.009168  0.039191      2.000000
 -0.036671 -0.009168  0.019596      2.000000
 -0.055006 -0.055006  0.000000      2.000000
 -0.055006 -0.055006 -0.019596      2.000000
 -0.055006 -0.055006 -0.039191      2.000000
 -0.055006 -0.055006 -0.058787      2.000000
 -0.055006 -0.055006 -0.078382      2.000000
 -0.055006 -0.055006 -0.097978      2.000000
 -0.055006 -0.055006 -0.117573      2.000000
 -0.055006 -0.055006 -0.137169      2.000000
 -0.055006 -0.055006 -0.156764      2.000000
 -0.055006 -0.055006  0.137169      2.000000
 -0.055006 -0.055006  0.117573      2.000000
 -0.055006 -0.055006  0.097978      2.000000
 -0.055006 -0.055006  0.078382      2.000000
 -0.055006 -0.055006  0.058787      2.000000
 -0.055006 -0.055006  0.039191      2.000000
 -0.055006 -0.055006  0.019596      2.000000
 -0.055006 -0.082509  0.000000      2.000000
 -0.055006 -0.082509 -0.019596      2.000000
 -0.055006 -0.082509 -0.039191      2.000000
 -0.055006 -0.082509 -0.058787      2.000000
 -0.055006 -0.082509 -0.078382      2.000000
 -0.055006 -0.082509 -0.097978      2.000000
 -0.055006 -0.082509 -0.117573      2.000000
 -0.055006 -0.082509 -0.137169      2.000000
 -0.055006 -0.082509 -0.156764      2.000000
 -0.055006 -0.082509  0.137169      2.000000
 -0.055006 -0.082509  0.117573      2.000000
 -0.055006 -0.082509  0.097978      2.000000
 -0.055006 -0.082509  0.078382      2.000000
 -0.055006 -0.082509  0.058787      2.000000
 -0.055006 -0.082509  0.039191      2.000000
 -0.055006 -0.082509  0.019596      2.000000
 -0.055006 -0.110012  0.000000      2.000000
 -0.055006 -0.110012 -0.019596      2.000000
 -0.055006 -0.110012 -0.039191      2.000000
 -0.055006 -0.110012 -0.058787      2.000000
 -0.055006 -0.110012 -0.078382      2.000000
 -0.055006 -0.110012 -0.097978      2.000000
 -0.055006 -0.110012 -0.117573      2.000000
 -0.055006 -0.110012 -0.137169      2.000000
 -0.055006 -0.110012 -0.156764      2.000000
 -0.055006 -0.110012  0.137169      2.000000
 -0.055006 -0.110012  0.117573      2.000000
 -0.055006 -0.110012  0.097978      2.000000
 -0.055006 -0.110012  0.078382      2.000000
 -0.055006 -0.110012  0.058787      2.000000
 -0.055006 -0.110012  0.039191      2.000000
 -0.055006 -0.110012  0.019596      2.000000
 -0.055006 -0.137516  0.000000      2.000000
 -0.055006 -0.137516 -0.019596      2.000000
 -0.055006 -0.137516 -0.039191      2.000000
 -0.055006 -0.137516 -0.058787      2.000000
 -0.055006 -0.137516 -0.078382      2.000000
 -0.055006 -0.137516 -0.097978      2.000000
 -0.055006 -0.137516 -0.117573      2.000000
 -0.055006 -0.137516 -0.137169      2.000000
 -0.055006 -0.137516 -0.156764      2.000000
 -0.055006 -0.137516  0.137169      2.000000
 -0.055006 -0.137516  0.117573      2.000000
 -0.055006 -0.137516  0.097978      2.000000
 -0.055006 -0.137516  0.078382      2.000000
 -0.055006 -0.137516  0.058787      2.000000
 -0.055006 -0.137516  0.039191      2.000000
 -0.055006 -0.137516  0.019596      2.000000
 -0.055006 -0.165019  0.000000      2.000000
 -0.055006 -0.165019 -0.019596      2.000000
 -0.055006 -0.165019 -0.039191      2.000000
 -0.055006 -0.165019 -0.058787      2.000000
 -0.055006 -0.165019 -0.078382      2.000000
 -0.055006 -0.165019 -0.097978      2.000000
 -0.055006 -0.165019 -0.117573      2.000000
 -0.055006 -0.165019 -0.137169      2.000000
 -0.055006 -0.165019 -0.156764      2.000000
 -0.055006 -0.165019  0.137169      2.000000
 -0.055006 -0.165019  0.117573      2.000000
 -0.055006 -0.165019  0.097978      2.000000
 -0.055006 -0.165019  0.078382      2.000000
 -0.055006 -0.165019  0.058787      2.000000
 -0.055006 -0.165019  0.039191      2.000000
 -0.055006 -0.165019  0.019596      2.000000
 -0.055006  0.027503  0.000000      2.000000
 -0.055006  0.027503 -0.019596      2.000000
 -0.055006  0.027503 -0.039191      2.000000
 -0.055006  0.027503 -0.058787      2.000000
 -0.055006  0.027503 -0.078382      2.000000
 -0.055006  0.027503 -0.097978      2.000000
 -0.055006  0.027503 -0.117573      2.000000
 -0.055006  0.027503 -0.137169      2.000000
 -0.055006  0.027503 -0.156764      2.000000
 -0.055006  0.027503  0.137169      2.000000
 -0.055006  0.027503  0.117573      2.000000
 -0.055006  0.027503  0.097978      2.000000
 -0.055006  0.027503  0.078382      2.000000
 -0.055006  0.027503  0.058787      2.000000
 -0.055006  0.027503  0.039191      2.000000
 -0.055006  0.027503  0.019596      2.000000
 -0.055006  0.000000  0.000000      2.000000
 -0.055006  0.000000 -0.019596      2.000000
 -0.055006  0.000000 -0.039191      2.000000
 -0.055006  0.000000 -0.058787      2.000000
 -0.055006  0.000000 -0.078382      2.000000
 -0.055006  0.000000 -0.097978      2.000000
 -0.055006  0.000000 -0.117573      2.000000
 -0.055006  0.000000 -0.137169      2.000000
 -0.055006  0.000000 -0.156764      2.000000
 -0.055006  0.000000  0.137169      2.000000
 -0.055006  0.000000  0.117573      2.000000
 -0.055006  0.000000  0.097978      2.000000
 -0.055006  0.000000  0.078382      2.000000
 -0.055006  0.000000  0.058787      2.000000
 -0.055006  0.000000  0.039191      2.000000
 -0.055006  0.000000  0.019596      2.000000
 -0.055006 -0.027503  0.000000      2.000000
 -0.055006 -0.027503 -0.019596      2.000000
 -0.055006 -0.027503 -0.039191      2.000000
 -0.055006 -0.027503 -0.058787      2.000000
 -0.055006 -0.027503 -0.078382      2.000000
 -0.055006 -0.027503 -0.097978      2.000000
 -0.055006 -0.027503 -0.117573      2.000000
 -0.055006 -0.027503 -0.137169      2.000000
 -0.055006 -0.027503 -0.156764      2.000000
 -0.055006 -0.027503  0.137169      2.000000
 -0.055006 -0.027503  0.117573      2.000000
 -0.055006 -0.027503  0.097978      2.000000
 -0.055006 -0.027503  0.078382      2.000000
 -0.055006 -0.027503  0.058787      2.000000
 -0.055006 -0.027503  0.039191      2.000000
 -0.055006 -0.027503  0.019596      2.000000
 -0.073342 -0.073342  0.000000      2.000000
 -0.073342 -0.073342 -0.019596      2.000000
 -0.073342 -0.073342 -0.039191      2.000000
 -0.073342 -0.073342 -0.058787      2.000000
 -0.073342 -0.073342 -0.078382      2.000000
 -0.073342 -0.073342 -0.097978      2.000000
 -0.073342 -0.073342 -0.117573      2.000000
 -0.073342 -0.073342 -0.137169      2.000000
 -0.073342 -0.073342 -0.156764      2.000000
 -0.073342 -0.073342  0.137169      2.000000
 -0.073342 -0.073342  0.117573      2.000000
 -0.073342 -0.073342  0.097978      2.000000
 -0.073342 -0.073342  0.078382      2.000000
 -0.073342 -0.073342  0.058787      2.000000
 -0.073342 -0.073342  0.039191      2.000000
 -0.073342 -0.073342  0.019596      2.000000
 -0.073342 -0.100845  0.000000      2.000000
 -0.073342 -0.100845 -0.019596      2.000000
 -0.073342 -0.100845 -0.039191      2.000000
 -0.073342 -0.100845 -0.058787      2.000000
 -0.073342 -0.100845 -0.078382      2.000000
 -0.073342 -0.100845 -0.097978      2.000000
 -0.073342 -0.100845 -0.117573      2.000000
 -0.073342 -0.100845 -0.137169      2.000000
 -0.073342 -0.100845 -0.156764      2.000000
 -0.073342 -0.100845  0.137169      2.000000
 -0.073342 -0.100845  0.117573      2.000000
 -0.073342 -0.100845  0.097978      2.000000
 -0.073342 -0.100845  0.078382      2.000000
 -0.073342 -0.100845  0.058787      2.000000
 -0.073342 -0.100845  0.039191      2.000000
 -0.073342 -0.100845  0.019596      2.000000
 -0.073342 -0.128348  0.000000      2.000000
 -0.073342 -0.128348 -0.019596      2.000000
 -0.073342 -0.128348 -0.039191      2.000000
 -0.073342 -0.128348 -0.058787      2.000000
 -0.073342 -0.128348 -0.078382      2.000000
 -0.073342 -0.128348 -0.097978      2.000000
 -0.073342 -0.128348 -0.117573      2.000000
 -0.073342 -0.128348 -0.137169      2.000000
 -0.073342 -0.128348 -0.156764      2.000000
 -0.073342 -0.128348  0.137169      2.000000
 -0.073342 -0.128348  0.117573      2.000000
 -0.073342 -0.128348  0.097978      2.000000
 -0.073342 -0.128348  0.078382      2.000000
 -0.073342 -0.128348  0.058787      2.000000
 -0.073342 -0.128348  0.039191      2.000000
 -0.073342 -0.128348  0.019596      2.000000
 -0.073342 -0.155851  0.000000      2.000000
 -0.073342 -0.155851 -0.019596      2.000000
 -0.073342 -0.155851 -0.039191      2.000000
 -0.073342 -0.155851 -0.058787      2.000000
 -0.073342 -0.155851 -0.078382      2.000000
 -0.073342 -0.155851 -0.097978      2.000000
 -0.073342 -0.155851 -0.117573      2.000000
 -0.073342 -0.155851 -0.137169      2.000000
 -0.073342 -0.155851 -0.156764      2.000000
 -0.073342 -0.155851  0.137169      2.000000
 -0.073342 -0.155851  0.117573      2.000000
 -0.073342 -0.155851  0.097978      2.000000
 -0.073342 -0.155851  0.078382      2.000000
 -0.073342 -0.155851  0.058787      2.000000
 -0.073342 -0.155851  0.039191      2.000000
 -0.073342 -0.155851  0.019596      2.000000
 -0.073342 -0.183354  0.000000      2.000000
 -0.073342 -0.183354 -0.019596      2.000000
 -0.073342 -0.183354 -0.039191      2.000000
 -0.073342 -0.183354 -0.058787      2.000000
 -0.073342 -0.183354 -0.078382      2.000000
 -0.073342 -0.183354 -0.097978      2.000000
 -0.073342 -0.183354 -0.117573      2.000000
 -0.073342 -0.183354 -0.137169      2.000000
 -0.073342 -0.183354 -0.156764      2.000000
 -0.073342 -0.183354  0.137169      2.000000
 -0.073342 -0.183354  0.117573      2.000000
 -0.073342 -0.183354  0.097978      2.000000
 -0.073342 -0.183354  0.078382      2.000000
 -0.073342 -0.183354  0.058787      2.000000
 -0.073342 -0.183354  0.039191      2.000000
 -0.073342 -0.183354  0.019596      2.000000
 -0.073342  0.009168  0.000000      2.000000
 -0.073342  0.009168 -0.019596      2.000000
 -0.073342  0.009168 -0.039191      2.000000
 -0.073342  0.009168 -0.058787      2.000000
 -0.073342  0.009168 -0.078382      2.000000
 -0.073342  0.009168 -0.097978      2.000000
 -0.073342  0.009168 -0.117573      2.000000
 -0.073342  0.009168 -0.137169      2.000000
 -0.073342  0.009168 -0.156764      2.000000
 -0.073342  0.009168  0.137169      2.000000
 -0.073342  0.009168  0.117573      2.000000
 -0.073342  0.009168  0.097978      2.000000
 -0.073342  0.009168  0.078382      2.000000
 -0.073342  0.009168  0.058787      2.000000
 -0.073342  0.009168  0.039191      2.000000
 -0.073342  0.009168  0.019596      2.000000
 -0.073342 -0.018335  0.000000      2.000000
 -0.073342 -0.018335 -0.019596      2.000000
 -0.073342 -0.018335 -0.039191      2.000000
 -0.073342 -0.018335 -0.058787      2.000000
 -0.073342 -0.018335 -0.078382      2.000000
 -0.073342 -0.018335 -0.097978      2.000000
 -0.073342 -0.018335 -0.117573      2.000000
 -0.073342 -0.018335 -0.137169      2.000000
 -0.073342 -0.018335 -0.156764      2.000000
 -0.073342 -0.018335  0.137169      2.000000
 -0.073342 -0.018335  0.117573      2.000000
 -0.073342 -0.018335  0.097978      2.000000
 -0.073342 -0.018335  0.078382      2.000000
 -0.073342 -0.018335  0.058787      2.000000
 -0.073342 -0.018335  0.039191      2.000000
 -0.073342 -0.018335  0.019596      2.000000
 -0.073342 -0.045839  0.000000      2.000000
 -0.073342 -0.045839 -0.019596      2.000000
 -0.073342 -0.045839 -0.039191      2.000000
 -0.073342 -0.045839 -0.058787      2.000000
 -0.073342 -0.045839 -0.078382      2.000000
 -0.073342 -0.045839 -0.097978      2.000000
 -0.073342 -0.045839 -0.117573      2.000000
 -0.073342 -0.045839 -0.137169      2.000000
 -0.073342 -0.045839 -0.156764      2.000000
 -0.073342 -0.045839  0.137169      2.000000
 -0.073342 -0.045839  0.117573      2.000000
 -0.073342 -0.045839  0.097978      2.000000
 -0.073342 -0.045839  0.078382      2.000000
 -0.073342 -0.045839  0.058787      2.000000
 -0.073342 -0.045839  0.039191      2.000000
 -0.073342 -0.045839  0.019596      2.000000
 -0.091677 -0.091677  0.000000      2.000000
 -0.091677 -0.091677 -0.019596      2.000000
 -0.091677 -0.091677 -0.039191      2.000000
 -0.091677 -0.091677 -0.058787      2.000000
 -0.091677 -0.091677 -0.078382      2.000000
 -0.091677 -0.091677 -0.097978      2.000000
 -0.091677 -0.091677 -0.117573      2.000000
 -0.091677 -0.091677 -0.137169      2.000000
 -0.091677 -0.091677 -0.156764      2.000000
 -0.091677 -0.091677  0.137169      2.000000
 -0.091677 -0.091677  0.117573      2.000000
 -0.091677 -0.091677  0.097978      2.000000
 -0.091677 -0.091677  0.078382      2.000000
 -0.091677 -0.091677  0.058787      2.000000
 -0.091677 -0.091677  0.039191      2.000000
 -0.091677 -0.091677  0.019596      2.000000
 -0.091677 -0.119180  0.000000      2.000000
 -0.091677 -0.119180 -0.019596      2.000000
 -0.091677 -0.119180 -0.039191      2.000000
 -0.091677 -0.119180 -0.058787      2.000000
 -0.091677 -0.119180 -0.078382      2.000000
 -0.091677 -0.119180 -0.097978      2.000000
 -0.091677 -0.119180 -0.117573      2.000000
 -0.091677 -0.119180 -0.137169      2.000000
 -0.091677 -0.119180 -0.156764      2.000000
 -0.091677 -0.119180  0.137169      2.000000
 -0.091677 -0.119180  0.117573      2.000000
 -0.091677 -0.119180  0.097978      2.000000
 -0.091677 -0.119180  0.078382      2.000000
 -0.091677 -0.119180  0.058787      2.000000
 -0.091677 -0.119180  0.039191      2.000000
 -0.091677 -0.119180  0.019596      2.000000
 -0.091677 -0.146683  0.000000      2.000000
 -0.091677 -0.146683 -0.019596      2.000000
 -0.091677 -0.146683 -0.039191      2.000000
 -0.091677 -0.146683 -0.058787      2.000000
 -0.091677 -0.146683 -0.078382      2.000000
 -0.091677 -0.146683 -0.097978      2.000000
 -0.091677 -0.146683 -0.117573      2.000000
 -0.091677 -0.146683 -0.137169      2.000000
 -0.091677 -0.146683 -0.156764      2.000000
 -0.091677 -0.146683  0.137169      2.000000
 -0.091677 -0.146683  0.117573      2.000000
 -0.091677 -0.146683  0.097978      2.000000
 -0.091677 -0.146683  0.078382      2.000000
 -0.091677 -0.146683  0.058787      2.000000
 -0.091677 -0.146683  0.039191      2.000000
 -0.091677 -0.146683  0.019596      2.000000
 -0.091677 -0.174186  0.000000      2.000000
[...]
  248                  m_alltoallv_z                         0.000868                  2   8
  249                  map_scatter                           0.000151                  2   8
  250        forloc                                0.000928                            1   3
  251          m_sumb_d                              0.000022                          1   4
  252        fornl                                 2.075867                            1   3
  253          phase                                 0.194700                        772   4
  254          m_sumb_d                              0.000046                          2   4
  255        fordep                                0.030362                            1   3
  256          setdij_                               0.030170                          6   4
  257            m_sumb_d                              0.001014                        6   5
  258        setdij_                               0.004930                            1   3
  259          m_sumb_d                              0.000153                          1   4
  260        set_dd_magatom                        0.000004                            1   3
  261        set_dd_paw                            1.891227                            1   3
  262          set_rsgf_all                          0.000004                          1   4
  263          m_sumb_d                              1.891053                          7   4
  264        fft3d_mpi                             0.017984                           22   3
  265          fftbas_plan_mpi                       0.016624                         22   4
  266            dfftw_execute                         0.003781                       66   5
  267            map_forward                           0.003275                       20   5
  268              map_gather                            0.000509                     10   6
  269              m_alltoallv_z                         0.001882                     10   6
  270              map_scatter                           0.000505                     10   6
  271            map_backward                          0.003993                       24   5
  272              map_gather                            0.000596                     12   6
  273              m_alltoallv_z                         0.002023                     12   6
  274              map_scatter                           0.000933                     12   6
  275        m_sumb_d                              0.000095                            5   3
  276        forhar                                0.001721                            2   3
  277          m_sumb_d                              0.000079                          2   4
  278        chggra                                0.003746                            1   3
  279          fft3d_mpi                             0.002529                          3   4
  280            fftbas_plan_mpi                       0.002344                        3   5
  281              dfftw_execute                         0.000521                      9   6
  282              map_backward                          0.000404                      2   6
  283                map_gather                            0.000030                    1   7
  284                m_alltoallv_z                         0.000260                    1   7
  285                map_scatter                           0.000074                    1   7
  286              map_forward                           0.000615                      4   6
  287                map_gather                            0.000092                    2   7
  288                m_alltoallv_z                         0.000364                    2   7
  289                map_scatter                           0.000085                    2   7
  290          m_sumb_d                              0.000034                          2   4
  291          pothar                                0.000243                          1   4
  292            m_sumb_d                              0.000044                        1   5
  293        brmix                                 0.002785                            1   3
  294          m_sumb_d                              0.000083                          6   4
  295          brpre                                 0.000029                          2   4
  296          setg0                                 0.000766                          1   4
  297          broyd                                 0.001312                          1   4
  298            m_sumb_d                              0.000251                       15   5
  299            brget                                 0.000212                       49   5
  300            brsav                                 0.000078                       13   5
  301        m_bcast_d                             0.000038                            2   3
  302      potlok                                0.064046                              1   2
  303        fft3d_mpi                             0.022043                           26   3
  304          fftbas_plan_mpi                       0.019596                         26   4
  305            dfftw_execute                         0.004602                       78   5
  306            map_forward                           0.004353                       28   5
  307              map_gather                            0.000759                     16   6
  308              m_alltoallv_z                         0.002392                     16   6
  309              map_scatter                           0.000660                     16   6
  310            map_backward                          0.004011                       24   5
  311              map_gather                            0.000667                     12   6
  312              m_alltoallv_z                         0.001996                     12   6
  313              map_scatter                           0.000913                     12   6
  314        m_sumb_d                              0.000097                            5   3
  315        pothar                                0.000240                            1   3
  316          m_sumb_d                              0.000038                          1   4
  317        m_bcast_d                             0.000288                            2   3
  318      potlok_metagga                        0.000003                              1   2
  319      set_dd_magatom                        0.000003                              1   2
  320      set_dd_paw                            1.890236                              1   2
  321        set_rsgf_all                          0.000004                            1   3
  322        m_sumb_d                              1.890060                            7   3
  323      densta                                0.118948                              1   2
  324        m_sumb_d                              0.016215                           38   3
 
 Flat profile
 ============
 
             routine name                   CPU           calls
 ---------------------------------------------------------------
 fft3d                                 139.763834      301548
 pdssyex_zheevx                        124.455654       20072
 eddav                                 117.382579           5
 m_alltoall_d                           62.035535      667282
 total_time                             52.319262           1
 m_sumb_d                               51.074468      260988
 orth1                                  19.922379      182530
 gemm                                   14.948352      598932
 sphpro_fast                            12.735924           2
 fftwav                                 12.255663      177022
 vhamil                                 10.548078      124526
 vnlac0                                 10.218779       99822
 proj1                                   9.304240       87470
 fftext_mpi                              8.703162      124526
 eccp                                    7.995720      112576
 w1_copy                                 7.900777      299466
 hamiltmu                                7.289963       76662
 work_mul_crexp                          6.773352      598932
 redis_pw                                6.653028      221130
 i2                                      5.966768       24568
 redis_proj                              5.690758      271680
 m_bcast_z                               5.653447      101502
 phase                                   5.521715       21617
 lincom                                  5.480064       33968
 overl                                   4.554878      114996
 w1_daxpy                                3.707394       95456
 newband                                 3.555277       96734
 i3                                      3.451652       24568
 overl1                                  3.305961      145956
 crexp_mul_wave                          3.157396      174940
 w1_dscal                                3.147434      116800
 kinhamil                                2.980351      124526
 eddiag                                  2.870557           8
 zhegv                                   2.675578       23024
 fftwav_mpi                              2.192439      177022
 fft3d_mpi                               2.022952      124852
 fornl                                   1.881121           1
 cnorma                                  1.862800       72432
 apply_precond                           1.822639      107766
 eddrmm                                  1.742743           8
 m_bcast_d                               1.560509      104213
 w1_gemv                                 1.504213       92268
 choleski                                1.437498       13896
 eccp_nl                                 1.371299       72432
 orthch                                  1.344825           9
 pw_charge                               1.163208       27792
 setup_precond                           1.157308       40144
 w1_projall                              1.034431       61222
 elmin                                   0.897098           1
 densta                                  0.856213          14
 i1                                      0.783289       24568
 spher                                   0.676836           1
 hamilt_local                            0.603482       24704
 w1_gaxpy                                0.554897       46408
 w1_dot                                  0.550651       24704
 soft_charge                             0.544906           9
 truncate_high_frequency_w1              0.488297      139966
 potlok                                  0.421125          10
 depsum                                  0.140708           9
 setdij_                                 0.093544          18
 fftbas_plan_mpi                         0.088917         326
 augmentation_charge                     0.077771           9
 dfftw_execute                           0.066208         978
 m_alltoallv_z                           0.065920         364
 shift_bands_between_low_high            0.047583       12352
 force_and_stress                        0.043167           1
 proj                                    0.039740         772
 map_scatter                             0.019801         364
 map_gather                              0.015994         364
 setg0                                   0.006894          11
 map_backward                            0.006529         338
 map_forward                             0.006170         314
 broyd                                   0.005671           9
 fewald                                  0.005372           1
 brmix                                   0.005226           9
 set_dd_paw                              0.002647          11
 pothar                                  0.002469          11
 forhar                                  0.001642           2
 set_charge                              0.001394           9
 rsp                                     0.001322           1
 brget                                   0.001100         255
 brgrid                                  0.001006           1
 stufak                                  0.001002           1
 chggra                                  0.000939           1
 forloc                                  0.000906           1
 brsav                                   0.000735          82
 fft_gq                                  0.000554           9
 brpre                                   0.000386          18
 crpa_reader                             0.000226           1
 fordep                                  0.000192           1
 set_rsgf_all                            0.000056          11
 rcp                                     0.000053           1
 vectorpot                               0.000052          10
 potlok_metagga                          0.000043          10
 set_dd_magatom                          0.000043          11
 FERMAT_RAZOR                            0.000021           1
 rotate_active_occupied_orbital          0.000011           1
 redis_pw_over_bands                     0.000003           1
 ---------------------------------------------------------------
  summed up times    773.226778030396     
 
 Accumulative profile
 ====================
 
             routine name                   CPU           calls
 ---------------------------------------------------------------
 total_time                            773.226778           1
 elmin                                 689.813657           1
 eddav                                 363.094094           5
 eddrmm                                141.606483           8
 fft3d                                 139.763834      301548
 eddiag                                133.948710           8
 pdssyex_zheevx                        124.455675       20072
 hamiltmu                              109.782675       76662
 fftwav_mpi                             94.059412      177022
 fftwav                                 91.866974      177022
 kinhamil                               73.822688      124526
 fftext_mpi                             70.842336      124526
 fft3d_mpi                              62.445014      124852
 m_alltoall_d                           62.035535      667282
 m_sumb_d                               51.074468      260988
 redis_pw                               44.121367      221130
 i2                                     39.568718       24568
 newband                                35.728090       96734
 vnlac0                                 31.940483       99822
 redis_proj                             30.257954      271680
 orthch                                 21.965651           9
 set_dd_paw                             20.757020          11
 orth1                                  19.922379      182530
 i3                                     18.215104       24568
 hamilt_local                           17.056542       24704
 gemm                                   14.948352      598932
 set_charge                             13.714291           9
 soft_charge                            13.475401           9
 w1_projall                             13.192868       61222
 sphpro_fast                            12.805666           2
 proj1                                  12.461636       87470
 vhamil                                 10.548078      124526
 eccp                                    7.995720      112576
 w1_copy                                 7.900777      299466
 work_mul_crexp                          6.773352      598932
 m_bcast_z                               5.653447      101502
 force_and_stress                        5.598988           1
 phase                                   5.521715       21617
 lincom                                  5.480064       33968
 overl                                   4.554878      114996
 w1_daxpy                                3.707394       95456
 overl1                                  3.305961      145956
 cnorma                                  3.234099       72432
 crexp_mul_wave                          3.157396      174940
 w1_dscal                                3.147434      116800
 zhegv                                   2.675578       23024
 w1_gemv                                 2.175650       92268
 fornl                                   2.075867           1
 apply_precond                           1.822639      107766
 i1                                      1.606444       24568
 m_bcast_d                               1.560509      104213
 choleski                                1.437498       13896
 eccp_nl                                 1.371299       72432
 pw_charge                               1.163208       27792
 setup_precond                           1.157308       40144
 densta                                  1.040531          14
 spher                                   0.676836           1
 potlok                                  0.656326          10
 w1_gaxpy                                0.554897       46408
 w1_dot                                  0.550651       24704
 truncate_high_frequency_w1              0.488297      139966
 proj                                    0.342938         772
 fftbas_plan_mpi                         0.269538         326
 depsum                                  0.142955           9
 setdij_                                 0.096822          18
 augmentation_charge                     0.094541           9
 dfftw_execute                           0.066208         978
 m_alltoallv_z                           0.065920         364
 map_backward                            0.059993         338
 map_forward                             0.054420         314
 shift_bands_between_low_high            0.047583       12352
 fordep                                  0.030362           1
 brmix                                   0.022945           9
 fft_gq                                  0.020299           9
 map_scatter                             0.019801         364
 map_gather                              0.015994         364
 broyd                                   0.009192           9
 setg0                                   0.006894          11
 fewald                                  0.006873           1
 chggra                                  0.003746           1
 pothar                                  0.002852          11
 forhar                                  0.001721           2
 rsp                                     0.001322           1
 brget                                   0.001100         255
 brgrid                                  0.001006           1
 stufak                                  0.001002           1
 forloc                                  0.000928           1
 brsav                                   0.000735          82
 brpre                                   0.000386          18
 crpa_reader                             0.000226           1
 set_rsgf_all                            0.000056          11
 rcp                                     0.000053           1
 vectorpot                               0.000052          10
 potlok_metagga                          0.000043          10
 set_dd_magatom                          0.000043          11
 FERMAT_RAZOR                            0.000021           1
 rotate_active_occupied_orbital          0.000011           1
 redis_pw_over_bands                     0.000003           1
 ---------------------------------------------------------------
 
Profiling took  15.712640 19.437018  0.006002  0.004704 seconds
Profiling took  17.040323 seconds
