 ----------------------------------------------------
    OOO  PPPP  EEEEE N   N M   M PPPP
   O   O P   P E     NN  N MM MM P   P
   O   O PPPP  EEEEE N N N M M M PPPP   -- VERSION
   O   O P     E     N  NN M   M P
    OOO  P     EEEEE N   N M   M P
 ----------------------------------------------------
 running   16 mpi-ranks, with    4 threads/rank
 distrk:  each k-point on   16 cores,    1 groups
 distr:  one band on    1 cores,   16 groups
 vasp.6.2.1 16May21 (build Jul 28 2021 23:24:15) complex                        
  
 POSCAR found type information on POSCAR H IrO 
 POSCAR found :  3 types and     106 ions
 scaLAPACK will be used
 -----------------------------------------------------------------------------
|                                                                             |
|           W    W    AA    RRRRR   N    N  II  N    N   GGGG   !!!           |
|           W    W   A  A   R    R  NN   N  II  NN   N  G    G  !!!           |
|           W    W  A    A  R    R  N N  N  II  N N  N  G       !!!           |
|           W WW W  AAAAAA  RRRRR   N  N N  II  N  N N  G  GGG   !            |
|           WW  WW  A    A  R   R   N   NN  II  N   NN  G    G                |
|           W    W  A    A  R    R  N    N  II  N    N   GGGG   !!!           |
|                                                                             |
|     The real-space projection scheme for the treatment of the non-local     |
|     pseudopotentials has been switched on but on file POTCAR I have not     |
|     found any entries, signalling me that you have never performed a        |
|     real-space optimization of all non-local projectors! BE WARNED that     |
|     a calculation using the real-space projection scheme together with      |
|     non-local projectors which were not real-space optimized (according     |
|     to the plane-wave cutoff used in this calculation) might give more      |
|     or less inaccurate results. I hope you know what you are doing.         |
|                                                                             |
 -----------------------------------------------------------------------------

 LDA part: xc-table for Pade appr. of Perdew
 POSCAR, INCAR and KPOINTS ok, starting setup
 FFT: planning ...
 WAVECAR not read
 WARNING: random wavefunctions but no delay for mixing, default for NELMDL
 entering main loop
       N       E                     dE             d eps       ncg     rms          rms(c)
DAV:   1     0.784110287558E+04    0.78411E+04   -0.31225E+05 13664   0.127E+03
DAV:   2     0.607769792749E+03   -0.72333E+04   -0.65461E+04 14512   0.374E+02
DAV:   3    -0.789797706219E+03   -0.13976E+04   -0.13387E+04 16960   0.165E+02
DAV:   4    -0.866592580674E+03   -0.76795E+02   -0.74788E+02 18576   0.430E+01
DAV:   5    -0.868270813008E+03   -0.16782E+01   -0.16529E+01 17232   0.595E+00    0.197E+02
RMM:   6    -0.768447862703E+03    0.99823E+02   -0.70598E+02 13471   0.426E+01    0.207E+02
RMM:   7    -0.104632633752E+04   -0.27788E+03   -0.25288E+02 14065   0.259E+01    0.360E+02
RMM:   8    -0.924430526197E+03    0.12190E+03   -0.74902E+01 16135   0.971E+00    0.323E+02
RMM:   9    -0.111354136833E+04   -0.18911E+03   -0.33916E+02 18739   0.240E+01    0.343E+02
RMM:  10    -0.891783204955E+03    0.22176E+03   -0.11171E+02 15830   0.148E+01    0.196E+02
RMM:  11    -0.723862150336E+03    0.16792E+03   -0.20462E+01 13441   0.781E+00    0.107E+02
RMM:  12    -0.647017324537E+03    0.76845E+02   -0.76689E+01 17080   0.116E+01    0.527E+01
RMM:  13    -0.647284054363E+03   -0.26673E+00   -0.14412E+01 13615   0.604E+00    0.617E+01
RMM:  14    -0.642650764070E+03    0.46333E+01   -0.54596E+00 15344   0.370E+00    0.506E+01
RMM:  15    -0.650298813886E+03   -0.76480E+01   -0.58478E+00 13979   0.350E+00    0.388E+01
RMM:  16    -0.659155436657E+03   -0.88566E+01   -0.41954E+00 13930   0.301E+00    0.347E+01
RMM:  17    -0.668104125658E+03   -0.89487E+01   -0.62977E+00 15458   0.359E+00    0.272E+01
RMM:  18    -0.672587806205E+03   -0.44837E+01   -0.28681E+00 13852   0.250E+00    0.219E+01
RMM:  19    -0.677124515800E+03   -0.45367E+01   -0.35753E+00 15002   0.258E+00    0.184E+01
RMM:  20    -0.682189820170E+03   -0.50653E+01   -0.38858E+00 15253   0.273E+00    0.164E+01
RMM:  21    -0.685299031613E+03   -0.31092E+01   -0.15032E+00 13803   0.189E+00    0.162E+01
RMM:  22    -0.686146028932E+03   -0.84700E+00   -0.46002E-01 13464   0.110E+00    0.140E+01
RMM:  23    -0.688700600392E+03   -0.25546E+01   -0.46032E-01 13789   0.101E+00    0.120E+01
RMM:  24    -0.691663843443E+03   -0.29632E+01   -0.58614E-01 14938   0.101E+00    0.117E+01
RMM:  25    -0.696033970100E+03   -0.43701E+01   -0.12348E+00 17186   0.139E+00    0.822E+00
RMM:  26    -0.700448970483E+03   -0.44150E+01   -0.94981E-01 15991   0.121E+00    0.553E+00
RMM:  27    -0.703508102668E+03   -0.30591E+01   -0.77542E-01 15842   0.106E+00    0.490E+00
RMM:  28    -0.704352137255E+03   -0.84403E+00   -0.24616E-01 14431   0.656E-01    0.349E+00
RMM:  29    -0.705739743066E+03   -0.13876E+01   -0.42770E-01 15405   0.722E-01    0.413E+00
RMM:  30    -0.706084687058E+03   -0.34494E+00   -0.82732E-02 13801   0.402E-01    0.372E+00
RMM:  31    -0.706589086187E+03   -0.50440E+00   -0.10935E-01 14696   0.405E-01    0.309E+00
RMM:  32    -0.707071330064E+03   -0.48224E+00   -0.57988E-02 14101   0.302E-01    0.295E+00
RMM:  33    -0.707352552141E+03   -0.28122E+00   -0.51781E-02 14693   0.279E-01    0.278E+00
RMM:  34    -0.707464655674E+03   -0.11210E+00   -0.63256E-02 15403   0.304E-01    0.332E+00
RMM:  35    -0.707797061030E+03   -0.33241E+00   -0.30971E-02 14372   0.224E-01    0.290E+00
RMM:  36    -0.708047635611E+03   -0.25057E+00   -0.31579E-02 15042   0.207E-01    0.242E+00
RMM:  37    -0.708210577456E+03   -0.16294E+00   -0.16640E-02 14438   0.152E-01    0.219E+00
RMM:  38    -0.708415084829E+03   -0.20451E+00   -0.10940E-02 14429   0.129E-01    0.163E+00
RMM:  39    -0.708524215271E+03   -0.10913E+00   -0.43760E-03 13587   0.889E-02    0.130E+00
RMM:  40    -0.708678889845E+03   -0.15467E+00   -0.40657E-03 13647   0.765E-02    0.925E-01
RMM:  41    -0.708812269306E+03   -0.13338E+00   -0.23160E-03 13581   0.659E-02    0.873E-01
RMM:  42    -0.708895735125E+03   -0.83466E-01   -0.15150E-03 13312   0.564E-02    0.562E-01
RMM:  43    -0.708975236126E+03   -0.79501E-01   -0.16736E-03 14041   0.581E-02    0.272E-01
RMM:  44    -0.709041898603E+03   -0.66662E-01   -0.84386E-04 12710   0.427E-02    0.246E-01
RMM:  45    -0.709072440271E+03   -0.30542E-01   -0.29911E-04  9950   0.288E-02    0.218E-01
RMM:  46    -0.709094843123E+03   -0.22403E-01   -0.20858E-04  8801   0.234E-02    0.195E-01
RMM:  47    -0.709109453606E+03   -0.14610E-01   -0.10804E-04  8296   0.175E-02    0.169E-01
RMM:  48    -0.709113875057E+03   -0.44215E-02   -0.40866E-05  8126   0.118E-02    0.155E-01
RMM:  49    -0.709117367184E+03   -0.34921E-02   -0.32575E-05  7644   0.831E-03    0.138E-01
RMM:  50    -0.709119422617E+03   -0.20554E-02   -0.25121E-05  7544   0.690E-03    0.124E-01
RMM:  51    -0.709114217249E+03    0.52054E-02   -0.16054E-04  8723   0.136E-02    0.735E-02
RMM:  52    -0.709117274623E+03   -0.30574E-02   -0.28667E-05  7991   0.926E-03    0.462E-02
RMM:  53    -0.709119454958E+03   -0.21803E-02   -0.16776E-05  6706   0.556E-03    0.311E-02
RMM:  54    -0.709120228692E+03   -0.77373E-03   -0.91017E-06  5909   0.468E-03    0.236E-02
RMM:  55    -0.709120862858E+03   -0.63417E-03   -0.94163E-06  5715   0.430E-03    0.166E-02
RMM:  56    -0.709121347378E+03   -0.48452E-03   -0.71761E-06  5251   0.396E-03    0.133E-02
RMM:  57    -0.709121599884E+03   -0.25251E-03   -0.45431E-06  4591   0.360E-03    0.891E-03
RMM:  58    -0.709121787627E+03   -0.18774E-03   -0.30025E-06  3964   0.324E-03    0.830E-03
RMM:  59    -0.709122010397E+03   -0.22277E-03   -0.39989E-06  4316   0.330E-03    0.586E-03
RMM:  60    -0.709122208739E+03   -0.19834E-03   -0.37055E-06  4247   0.326E-03    0.440E-03
RMM:  61    -0.709122328519E+03   -0.11978E-03   -0.19774E-06  3498   0.305E-03    0.421E-03
RMM:  62    -0.709122442192E+03   -0.11367E-03   -0.20073E-06  3326   0.299E-03    0.256E-03
RMM:  63    -0.709122513318E+03   -0.71125E-04   -0.19176E-06  3347   0.298E-03
   1 F= -.70912251E+03 E0= -.70849451E+03  d E =-.709123E+03  mag=     7.7506
 curvature:   0.00 expect dE= 0.000E+00 dE for cont linesearch  0.000E+00
 trial: gam= 0.00000 g(F)=  0.357E+01 g(S)=  0.000E+00 ort = 0.000E+00 (trialstep = 0.100E+01)
 search vector abs. value=  0.357E+01
 bond charge predicted
       N       E                     dE             d eps       ncg     rms          rms(c)
DAV:   1    -0.706079698942E+03    0.30427E+01   -0.78202E+02 13872   0.350E+01    0.125E+01
RMM:   2    -0.713877851773E+03   -0.77982E+01   -0.48241E+01 13743   0.947E+00    0.286E+01
RMM:   3    -0.712913496611E+03    0.96436E+00   -0.11221E+01 15221   0.451E+00    0.241E+01
RMM:   4    -0.712029476962E+03    0.88402E+00   -0.17917E+00 13783   0.193E+00    0.201E+01
RMM:   5    -0.708749671341E+03    0.32798E+01   -0.13565E+00 13974   0.165E+00    0.690E+00
RMM:   6    -0.708606173380E+03    0.14350E+00   -0.52788E-01 14385   0.986E-01    0.466E+00
RMM:   7    -0.708644933759E+03   -0.38760E-01   -0.29514E-01 14545   0.659E-01    0.581E+00
RMM:   8    -0.708568810260E+03    0.76123E-01   -0.94824E-02 13579   0.499E-01    0.353E+00
RMM:   9    -0.708555447025E+03    0.13363E-01   -0.99216E-02 14111   0.443E-01    0.207E+00
RMM:  10    -0.708556202863E+03   -0.75584E-03   -0.35625E-02 13521   0.339E-01    0.168E+00
RMM:  11    -0.708562594161E+03   -0.63913E-02   -0.12763E-02 13915   0.187E-01    0.138E+00
RMM:  12    -0.708563984787E+03   -0.13906E-02   -0.53039E-03 14572   0.901E-02    0.122E+00
RMM:  13    -0.708549114688E+03    0.14870E-01   -0.47131E-03 12906   0.932E-02    0.904E-01
RMM:  14    -0.708549993715E+03   -0.87903E-03   -0.38615E-03 13787   0.900E-02    0.759E-01
RMM:  15    -0.708553442885E+03   -0.34492E-02   -0.22556E-03 13211   0.767E-02    0.514E-01
RMM:  16    -0.708559026463E+03   -0.55836E-02   -0.20795E-03 13422   0.639E-02    0.442E-01
RMM:  17    -0.708562548457E+03   -0.35220E-02   -0.83302E-04 12553   0.443E-02    0.241E-01
RMM:  18    -0.708564224788E+03   -0.16763E-02   -0.34162E-04 10044   0.278E-02    0.192E-01
RMM:  19    -0.708565368337E+03   -0.11435E-02   -0.95608E-05  8055   0.182E-02    0.170E-01
RMM:  20    -0.708566603079E+03   -0.12347E-02   -0.63716E-05  7910   0.133E-02    0.142E-01
RMM:  21    -0.708567963312E+03   -0.13602E-02   -0.51539E-05  7857   0.111E-02    0.110E-01
RMM:  22    -0.708569008989E+03   -0.10457E-02   -0.38082E-05  7530   0.879E-03    0.700E-02
RMM:  23    -0.708569681855E+03   -0.67287E-03   -0.23702E-05  7372   0.777E-03    0.406E-02
RMM:  24    -0.708570081259E+03   -0.39940E-03   -0.15781E-05  6723   0.609E-03    0.257E-02
RMM:  25    -0.708570330601E+03   -0.24934E-03   -0.81724E-06  6128   0.481E-03    0.146E-02
RMM:  26    -0.708570537689E+03   -0.20709E-03   -0.39659E-06  4875   0.366E-03    0.107E-02
RMM:  27    -0.708570768393E+03   -0.23070E-03   -0.27089E-06  4462   0.341E-03    0.731E-03
RMM:  28    -0.708570982363E+03   -0.21397E-03   -0.20339E-06  3955   0.322E-03    0.623E-03
RMM:  29    -0.708571131984E+03   -0.14962E-03   -0.11884E-06  3353   0.303E-03    0.462E-03
RMM:  30    -0.708571248353E+03   -0.11637E-03   -0.47001E-07  2685   0.287E-03    0.351E-03
RMM:  31    -0.708571431763E+03   -0.18341E-03   -0.10573E-06  2989   0.296E-03    0.352E-03
RMM:  32    -0.708571543162E+03   -0.11140E-03   -0.65990E-07  2632   0.289E-03    0.268E-03
RMM:  33    -0.708571636728E+03   -0.93566E-04   -0.56391E-07  2397   0.287E-03
   2 F= -.70857164E+03 E0= -.70793547E+03  d E =0.550877E+00  mag=     7.6411
 trial-energy change:    0.550877  1 .order   -0.035930   -3.574637    3.502777
 step:   0.3871(harm=  0.5051)  dis= 0.07884  next Energy=  -709.780276 (dE=-0.658E+00)
 bond charge predicted
       N       E                     dE             d eps       ncg     rms          rms(c)
DAV:   1    -0.709044095558E+03   -0.47255E+00   -0.29427E+02 13488   0.220E+01    0.712E+00
RMM:   2    -0.709765953269E+03   -0.72186E+00   -0.77007E+00 13440   0.450E+00    0.631E+00
RMM:   3    -0.710138028387E+03   -0.37208E+00   -0.23453E+00 14334   0.214E+00    0.652E+00
RMM:   4    -0.709757504971E+03    0.38052E+00   -0.41555E-01 14381   0.913E-01    0.418E+00
RMM:   5    -0.709744084864E+03    0.13420E-01   -0.10085E-01 13786   0.493E-01    0.269E+00
RMM:   6    -0.709981248529E+03   -0.23716E+00   -0.78659E-02 13767   0.384E-01    0.738E+00
RMM:   7    -0.709707329725E+03    0.27392E+00   -0.48359E-02 13855   0.358E-01    0.221E+00
RMM:   8    -0.709664991321E+03    0.42338E-01   -0.27602E-02 13645   0.252E-01    0.187E+00
RMM:   9    -0.709633647890E+03    0.31343E-01   -0.14656E-02 13689   0.177E-01    0.137E+00
RMM:  10    -0.709604782936E+03    0.28865E-01   -0.15338E-02 14060   0.154E-01    0.128E+00
RMM:  11    -0.709519254346E+03    0.85529E-01   -0.43791E-02 16482   0.253E-01    0.920E-01
RMM:  12    -0.709538431841E+03   -0.19177E-01   -0.72408E-03 13798   0.132E-01    0.640E-01
RMM:  13    -0.709577895324E+03   -0.39463E-01   -0.69855E-03 13480   0.116E-01    0.409E-01
RMM:  14    -0.709605489088E+03   -0.27594E-01   -0.38084E-03 13167   0.723E-02    0.354E-01
RMM:  15    -0.709614578034E+03   -0.90889E-02   -0.92444E-04 11489   0.406E-02    0.218E-01
RMM:  16    -0.709627479560E+03   -0.12902E-01   -0.10105E-03 11555   0.371E-02    0.173E-01
RMM:  17    -0.709642174877E+03   -0.14695E-01   -0.49353E-04 10361   0.264E-02    0.132E-01
RMM:  18    -0.709658055983E+03   -0.15881E-01   -0.35346E-04  9855   0.211E-02    0.116E-01
RMM:  19    -0.709678900408E+03   -0.20844E-01   -0.45491E-04 10072   0.216E-02    0.100E-01
RMM:  20    -0.709702433080E+03   -0.23533E-01   -0.50459E-04 10189   0.216E-02    0.866E-02
RMM:  21    -0.709726796877E+03   -0.24364E-01   -0.62455E-04 10416   0.234E-02    0.745E-02
RMM:  22    -0.709745372179E+03   -0.18575E-01   -0.39770E-04  9737   0.195E-02    0.684E-02
RMM:  23    -0.709758598155E+03   -0.13226E-01   -0.24489E-04  8877   0.154E-02    0.552E-02
RMM:  24    -0.709767735489E+03   -0.91373E-02   -0.14379E-04  8053   0.125E-02    0.429E-02
RMM:  25    -0.709774577343E+03   -0.68419E-02   -0.86595E-05  7798   0.105E-02    0.338E-02
RMM:  26    -0.709779760774E+03   -0.51834E-02   -0.45717E-05  7315   0.843E-03    0.269E-02
RMM:  27    -0.709782473750E+03   -0.27130E-02   -0.24695E-05  6539   0.663E-03    0.227E-02
RMM:  28    -0.709784750422E+03   -0.22767E-02   -0.13600E-05  6319   0.544E-03    0.180E-02
RMM:  29    -0.709786770662E+03   -0.20202E-02   -0.88541E-06  5948   0.454E-03    0.173E-02
RMM:  30    -0.709787659005E+03   -0.88834E-03   -0.34771E-06  4489   0.362E-03    0.147E-02
RMM:  31    -0.709788802277E+03   -0.11433E-02   -0.36536E-06  4664   0.348E-03    0.128E-02
RMM:  32    -0.709789621224E+03   -0.81895E-03   -0.42337E-06  4891   0.350E-03    0.117E-02
RMM:  33    -0.709790275120E+03   -0.65390E-03   -0.52141E-06  4650   0.351E-03    0.885E-03
RMM:  34    -0.709790729859E+03   -0.45474E-03   -0.46392E-06  4373   0.339E-03    0.781E-03
RMM:  35    -0.709791110238E+03   -0.38038E-03   -0.39665E-06  4073   0.330E-03    0.701E-03
RMM:  36    -0.709791518800E+03   -0.40856E-03   -0.50720E-06  4325   0.337E-03    0.648E-03
RMM:  37    -0.709791920690E+03   -0.40189E-03   -0.58957E-06  4426   0.343E-03    0.480E-03
RMM:  38    -0.709792133005E+03   -0.21232E-03   -0.35670E-06  3900   0.327E-03    0.431E-03
RMM:  39    -0.709792252686E+03   -0.11968E-03   -0.23716E-06  3359   0.311E-03    0.356E-03
RMM:  40    -0.709792325525E+03   -0.72839E-04   -0.15375E-06  3013   0.298E-03
   3 F= -.70979233E+03 E0= -.70918053E+03  d E =-.669812E+00  mag=     6.8489
 curvature:  -0.24 expect dE=-0.239E+00 dE for cont linesearch -0.365E-03
 trial: gam= 0.30162 g(F)=  0.100E+01 g(S)=  0.000E+00 ort =-0.740E-01 (trialstep = 0.877E+00)
 search vector abs. value=  0.128E+01
 bond charge predicted
       N       E                     dE             d eps       ncg     rms          rms(c)
DAV:   1    -0.708935008600E+03    0.85724E+00   -0.23040E+02 13648   0.229E+01    0.415E+00
RMM:   2    -0.709603564543E+03   -0.66856E+00   -0.54902E+00 13440   0.430E+00    0.780E+00
RMM:   3    -0.709814193669E+03   -0.21063E+00   -0.11043E+00 14647   0.173E+00    0.746E+00
RMM:   4    -0.709680935201E+03    0.13326E+00   -0.21629E-01 13874   0.823E-01    0.628E+00
RMM:   5    -0.709573495806E+03    0.10744E+00   -0.75270E-02 13617   0.509E-01    0.452E+00
RMM:   6    -0.709509311121E+03    0.64185E-01   -0.45186E-02 13547   0.345E-01    0.252E+00
RMM:   7    -0.709476511669E+03    0.32799E-01   -0.29453E-02 13686   0.282E-01    0.120E+00
RMM:   8    -0.709470265393E+03    0.62463E-02   -0.17680E-02 13805   0.212E-01    0.108E+00
RMM:   9    -0.709468964397E+03    0.13010E-02   -0.47843E-03 13499   0.126E-01    0.636E-01
RMM:  10    -0.709471062185E+03   -0.20978E-02   -0.24552E-03 14159   0.702E-02    0.392E-01
RMM:  11    -0.709475242252E+03   -0.41801E-02   -0.96314E-04 12523   0.428E-02    0.282E-01
RMM:  12    -0.709478462536E+03   -0.32203E-02   -0.56124E-04 11915   0.357E-02    0.258E-01
RMM:  13    -0.709481172759E+03   -0.27102E-02   -0.45257E-04 10968   0.306E-02    0.176E-01
RMM:  14    -0.709483751043E+03   -0.25783E-02   -0.30996E-04  9955   0.257E-02    0.114E-01
RMM:  15    -0.709485122407E+03   -0.13714E-02   -0.95024E-05  8029   0.176E-02    0.790E-02
RMM:  16    -0.709486480998E+03   -0.13586E-02   -0.36747E-05  7551   0.106E-02    0.592E-02
RMM:  17    -0.709488603966E+03   -0.21230E-02   -0.31650E-05  7469   0.787E-03    0.449E-02
RMM:  18    -0.709491109725E+03   -0.25058E-02   -0.31663E-05  7444   0.737E-03    0.293E-02
RMM:  19    -0.709492631541E+03   -0.15218E-02   -0.18411E-05  6500   0.614E-03    0.207E-02
RMM:  20    -0.709493759903E+03   -0.11284E-02   -0.11328E-05  5707   0.476E-03    0.181E-02
RMM:  21    -0.709495359633E+03   -0.15997E-02   -0.14126E-05  5917   0.472E-03    0.176E-02
RMM:  22    -0.709497360812E+03   -0.20012E-02   -0.26384E-05  6521   0.543E-03    0.181E-02
RMM:  23    -0.709499005175E+03   -0.16444E-02   -0.34034E-05  6595   0.583E-03    0.181E-02
RMM:  24    -0.709499904609E+03   -0.89943E-03   -0.22018E-05  5971   0.550E-03    0.140E-02
RMM:  25    -0.709500385670E+03   -0.48106E-03   -0.15091E-05  5449   0.501E-03    0.137E-02
RMM:  26    -0.709500797101E+03   -0.41143E-03   -0.11497E-05  5117   0.448E-03    0.102E-02
RMM:  27    -0.709501049567E+03   -0.25247E-03   -0.69209E-06  4573   0.404E-03    0.747E-03
RMM:  28    -0.709501208617E+03   -0.15905E-03   -0.41815E-06  4058   0.359E-03    0.509E-03
RMM:  29    -0.709501348923E+03   -0.14031E-03   -0.19389E-06  3509   0.325E-03    0.472E-03
RMM:  30    -0.709501447891E+03   -0.98968E-04   -0.69552E-07  2631   0.289E-03
   4 F= -.70950145E+03 E0= -.70888669E+03  d E =0.290878E+00  mag=     6.6761
 trial-energy change:    0.290878  1 .order   -0.210889   -0.861452    0.439674
 step:   0.5809(harm=  0.5809)  dis= 0.06146  next Energy=  -710.077502 (dE=-0.285E+00)
 bond charge predicted
       N       E                     dE             d eps       ncg     rms          rms(c)
DAV:   1    -0.709597833647E+03   -0.96485E-01   -0.26373E+01 13840   0.780E+00    0.126E+00
RMM:   2    -0.709659017276E+03   -0.61184E-01   -0.52819E-01 13440   0.134E+00    0.221E+00
RMM:   3    -0.709668476290E+03   -0.94590E-02   -0.99668E-02 14664   0.532E-01    0.169E+00
RMM:   4    -0.709676773065E+03   -0.82968E-02   -0.21431E-02 13723   0.257E-01    0.227E+00
RMM:   5    -0.709658346274E+03    0.18427E-01   -0.71888E-03 13512   0.164E-01    0.131E+00
RMM:   6    -0.709652927247E+03    0.54190E-02   -0.47168E-03 13363   0.110E-01    0.659E-01
RMM:   7    -0.709651428359E+03    0.14989E-02   -0.29923E-03 13325   0.907E-02    0.461E-01
RMM:   8    -0.709650232443E+03    0.11959E-02   -0.16234E-03 13044   0.666E-02    0.234E-01
RMM:   9    -0.709650095145E+03    0.13730E-03   -0.49184E-04 11181   0.354E-02    0.165E-01
RMM:  10    -0.709650166182E+03   -0.71037E-04   -0.12639E-04  8187   0.197E-02
   5 F= -.70965017E+03 E0= -.70903647E+03  d E =0.142159E+00  mag=     6.6883
 curvature:  -0.38 expect dE=-0.135E+01 dE for cont linesearch -0.167E+00
 ZBRENT: interpolating
 opt :   0.3293  next Energy=  -709.744554 (dE= 0.478E-01)
 bond charge predicted
       N       E                     dE             d eps       ncg     rms          rms(c)
DAV:   1    -0.709731153367E+03   -0.81058E-01   -0.19042E+01 13744   0.661E+00    0.109E+00
RMM:   2    -0.709769410011E+03   -0.38257E-01   -0.37878E-01 13440   0.113E+00    0.153E+00
RMM:   3    -0.709786562255E+03   -0.17152E-01   -0.72352E-02 14710   0.449E-01    0.175E+00
RMM:   4    -0.709786706007E+03   -0.14375E-03   -0.15252E-02 13690   0.216E-01    0.188E+00
RMM:   5    -0.709773464861E+03    0.13241E-01   -0.53867E-03 13483   0.141E-01    0.105E+00
RMM:   6    -0.709770064816E+03    0.34000E-02   -0.32117E-03 13235   0.941E-02    0.557E-01
RMM:   7    -0.709768584210E+03    0.14806E-02   -0.20265E-03 13004   0.755E-02    0.361E-01
RMM:   8    -0.709767851180E+03    0.73303E-03   -0.11501E-03 12790   0.555E-02    0.203E-01
RMM:   9    -0.709767820770E+03    0.30410E-04   -0.35683E-04 10192   0.308E-02
   6 F= -.70976782E+03 E0= -.70915515E+03  d E =0.245048E-01  mag=     6.7113
 curvature:  -0.22 expect dE=-0.798E+00 dE for cont linesearch -0.250E-01
 ZBRENT: interpolating
 opt :   0.1375  next Energy=  -709.815327 (dE=-0.230E-01)
 bond charge predicted
       N       E                     dE             d eps       ncg     rms          rms(c)
DAV:   1    -0.709819365073E+03   -0.51514E-01   -0.11076E+01 13872   0.504E+00    0.882E-01
RMM:   2    -0.709841395565E+03   -0.22030E-01   -0.22040E-01 13440   0.859E-01    0.116E+00
RMM:   3    -0.709854561097E+03   -0.13166E-01   -0.42397E-02 14683   0.343E-01    0.152E+00
RMM:   4    -0.709851599646E+03    0.29615E-02   -0.90798E-03 13616   0.169E-01    0.142E+00
RMM:   5    -0.709843937977E+03    0.76617E-02   -0.33787E-03 13389   0.112E-01    0.790E-01
RMM:   6    -0.709842417189E+03    0.15208E-02   -0.19803E-03 12983   0.751E-02    0.463E-01
RMM:   7    -0.709841419742E+03    0.99745E-03   -0.10906E-03 12648   0.574E-02    0.265E-01
RMM:   8    -0.709841212458E+03    0.20728E-03   -0.68458E-04 11935   0.416E-02    0.129E-01
RMM:   9    -0.709841488117E+03   -0.27566E-03   -0.18163E-04  8609   0.231E-02    0.818E-02
RMM:  10    -0.709841831311E+03   -0.34319E-03   -0.60423E-05  7884   0.156E-02    0.538E-02
RMM:  11    -0.709842361005E+03   -0.52969E-03   -0.36656E-05  7375   0.924E-03    0.430E-02
RMM:  12    -0.709843253345E+03   -0.89234E-03   -0.33966E-05  7669   0.887E-03    0.288E-02
RMM:  13    -0.709843872667E+03   -0.61932E-03   -0.20295E-05  7108   0.717E-03    0.257E-02
RMM:  14    -0.709844372595E+03   -0.49993E-03   -0.10632E-05  6425   0.552E-03    0.225E-02
RMM:  15    -0.709844727725E+03   -0.35513E-03   -0.47551E-06  4628   0.375E-03    0.214E-02
RMM:  16    -0.709845266589E+03   -0.53886E-03   -0.50386E-06  4450   0.354E-03    0.199E-02
RMM:  17    -0.709846229749E+03   -0.96316E-03   -0.14157E-05  5954   0.446E-03    0.168E-02
RMM:  18    -0.709847174595E+03   -0.94485E-03   -0.17607E-05  5754   0.454E-03    0.139E-02
RMM:  19    -0.709847853589E+03   -0.67899E-03   -0.16449E-05  5766   0.460E-03    0.172E-02
RMM:  20    -0.709848319724E+03   -0.46613E-03   -0.11650E-05  5134   0.430E-03    0.164E-02
RMM:  21    -0.709848717729E+03   -0.39801E-03   -0.10024E-05  5066   0.422E-03    0.114E-02
RMM:  22    -0.709849129067E+03   -0.41134E-03   -0.11745E-05  5293   0.420E-03    0.871E-03
RMM:  23    -0.709849336555E+03   -0.20749E-03   -0.64114E-06  4553   0.394E-03    0.664E-03
RMM:  24    -0.709849474640E+03   -0.13809E-03   -0.39541E-06  3755   0.337E-03    0.678E-03
RMM:  25    -0.709849542815E+03   -0.68175E-04   -0.15899E-06  2998   0.312E-03
   7 F= -.70984954E+03 E0= -.70923742E+03  d E =-.572173E-01  mag=     6.8121
 curvature:  -0.41 expect dE=-0.616E+00 dE for cont linesearch -0.134E-01
 ZBRENT: bisectioning
 opt :   0.0688  next Energy=  -709.861407 (dE=-0.691E-01)
 bond charge predicted
       N       E                     dE             d eps       ncg     rms          rms(c)
DAV:   1    -0.709839925291E+03    0.95493E-02   -0.14252E+00 13712   0.180E+00    0.306E-01
RMM:   2    -0.709843011911E+03   -0.30866E-02   -0.27993E-02 13440   0.306E-01    0.476E-01
RMM:   3    -0.709843938955E+03   -0.92704E-03   -0.52464E-03 14511   0.121E-01    0.463E-01
RMM:   4    -0.709843841519E+03    0.97435E-04   -0.11036E-03 12989   0.590E-02    0.469E-01
RMM:   5    -0.709843065052E+03    0.77647E-03   -0.43235E-04 11279   0.395E-02    0.289E-01
RMM:   6    -0.709842798778E+03    0.26627E-03   -0.27804E-04  9294   0.282E-02    0.156E-01
RMM:   7    -0.709842691151E+03    0.10763E-03   -0.16535E-04  8333   0.233E-02    0.102E-01
RMM:   8    -0.709842625307E+03    0.65844E-04   -0.82649E-05  7847   0.172E-02
   8 F= -.70984263E+03 E0= -.70923061E+03  d E =-.502998E-01  mag=     6.8177
 curvature:  -0.36 expect dE=-0.229E+00 dE for cont linesearch -0.516E-01
 ZBRENT: interpolating
 opt :   0.1153  next Energy=  -709.851827 (dE=-0.595E-01)
 bond charge predicted
       N       E                     dE             d eps       ncg     rms          rms(c)
DAV:   1    -0.709850724937E+03   -0.80338E-02   -0.65205E-01 13760   0.122E+00    0.203E-01
RMM:   2    -0.709852292082E+03   -0.15671E-02   -0.12832E-02 13439   0.208E-01    0.354E-01
RMM:   3    -0.709852594797E+03   -0.30271E-03   -0.23766E-03 14036   0.828E-02    0.293E-01
RMM:   4    -0.709852759685E+03   -0.16489E-03   -0.51792E-04 11828   0.404E-02    0.337E-01
RMM:   5    -0.709852364895E+03    0.39479E-03   -0.20416E-04  8330   0.278E-02    0.184E-01
RMM:   6    -0.709852401161E+03   -0.36266E-04   -0.15031E-04  8041   0.217E-02    0.135E-01
RMM:   7    -0.709852376617E+03    0.24544E-04   -0.82912E-05  7597   0.176E-02    0.572E-02
RMM:   8    -0.709852424474E+03   -0.47858E-04   -0.48036E-05  7229   0.122E-02
   9 F= -.70985242E+03 E0= -.70924038E+03  d E =-.600989E-01  mag=     6.8210
 curvature:  -0.02 expect dE=-0.178E-01 dE for cont linesearch -0.462E-05
 trial: gam= 1.11264 g(F)=  0.111E+01 g(S)=  0.000E+00 ort =-0.192E-01 (trialstep = 0.351E+00)
 search vector abs. value=  0.266E+01
 bond charge predicted
       N       E                     dE             d eps       ncg     rms          rms(c)
DAV:   1    -0.709615863118E+03    0.23651E+00   -0.73658E+01 13456   0.130E+01    0.209E+00
RMM:   2    -0.709807939726E+03   -0.19208E+00   -0.15262E+00 13440   0.227E+00    0.491E+00
RMM:   3    -0.709794601179E+03    0.13339E-01   -0.26756E-01 14452   0.883E-01    0.272E+00
RMM:   4    -0.709860397841E+03   -0.65797E-01   -0.57490E-02 14413   0.406E-01    0.433E+00
RMM:   5    -0.709791418124E+03    0.68980E-01   -0.20824E-02 13472   0.258E-01    0.257E+00
RMM:   6    -0.709780446270E+03    0.10972E-01   -0.14667E-02 13526   0.203E-01    0.172E+00
RMM:   7    -0.709775961863E+03    0.44844E-02   -0.11618E-02 13812   0.167E-01    0.843E-01
RMM:   8    -0.709776408729E+03   -0.44687E-03   -0.43934E-03 13365   0.112E-01    0.891E-01
RMM:   9    -0.709775752561E+03    0.65617E-03   -0.14203E-03 13343   0.637E-02    0.719E-01
RMM:  10    -0.709775324829E+03    0.42773E-03   -0.45906E-04 10981   0.329E-02    0.583E-01
RMM:  11    -0.709774940275E+03    0.38455E-03   -0.49376E-04 11429   0.328E-02    0.424E-01
RMM:  12    -0.709774862112E+03    0.78163E-04   -0.58800E-04 11639   0.343E-02
  10 F= -.70977486E+03 E0= -.70916283E+03  d E =0.775624E-01  mag=     6.8204
 trial-energy change:    0.077562  1 .order   -0.119398   -0.381360    0.142565
 step:   0.2552(harm=  0.2552)  dis= 0.03701  next Energy=  -709.991219 (dE=-0.139E+00)
 bond charge predicted
       N       E                     dE             d eps       ncg     rms          rms(c)
DAV:   1    -0.709777091980E+03   -0.21517E-02   -0.54418E+00 13728   0.354E+00    0.580E-01
RMM:   2    -0.709795244887E+03   -0.18153E-01   -0.10883E-01 13440   0.605E-01    0.160E+00
RMM:   3    -0.709791119214E+03    0.41257E-02   -0.18255E-02 13982   0.238E-01    0.869E-01
RMM:   4    -0.709791814993E+03   -0.69578E-03   -0.46025E-03 14358   0.115E-01    0.913E-01
RMM:   5    -0.709789633388E+03    0.21816E-02   -0.14247E-03 12844   0.666E-02    0.632E-01
RMM:   6    -0.709789396333E+03    0.23705E-03   -0.10690E-03 12676   0.541E-02    0.470E-01
RMM:   7    -0.709789075792E+03    0.32054E-03   -0.83720E-04 12678   0.475E-02    0.244E-01
RMM:   8    -0.709789007247E+03    0.68545E-04   -0.36021E-04 10589   0.322E-02
  11 F= -.70978901E+03 E0= -.70917680E+03  d E =0.634172E-01  mag=     6.8190
 curvature:  -0.31 expect dE=-0.743E+00 dE for cont linesearch -0.199E-03
 trial: gam= 2.05327 g(F)=  0.239E+01 g(S)=  0.000E+00 ort = 0.412E-01 (trialstep = 0.640E-01)
 search vector abs. value=  0.138E+02
 bond charge predicted
       N       E                     dE             d eps       ncg     rms          rms(c)
DAV:   1    -0.709758956216E+03    0.30120E-01   -0.12729E+01 13760   0.548E+00    0.879E-01
RMM:   2    -0.709790038341E+03   -0.31082E-01   -0.25348E-01 13440   0.917E-01    0.200E+00
RMM:   3    -0.709787952415E+03    0.20859E-02   -0.40718E-02 14149   0.356E-01    0.117E+00
RMM:   4    -0.709795156764E+03   -0.72043E-02   -0.99625E-03 14672   0.166E-01    0.155E+00
RMM:   5    -0.709785867238E+03    0.92895E-02   -0.39783E-03 13231   0.105E-01    0.957E-01
RMM:   6    -0.709784812138E+03    0.10551E-02   -0.21338E-03 12991   0.784E-02    0.666E-01
RMM:   7    -0.709784463727E+03    0.34841E-03   -0.16183E-03 12845   0.642E-02    0.424E-01
RMM:   8    -0.709784593414E+03   -0.12969E-03   -0.70120E-04 12033   0.439E-02    0.379E-01
RMM:   9    -0.709784500999E+03    0.92416E-04   -0.20454E-04  8742   0.260E-02
  12 F= -.70978450E+03 E0= -.70917244E+03  d E =0.450625E-02  mag=     6.8280
 trial-energy change:    0.004506  1 .order   -0.063008   -0.158148    0.032132
 step:   0.0532(harm=  0.0532)  dis= 0.01373  next Energy=  -709.854728 (dE=-0.657E-01)
 bond charge predicted
       N       E                     dE             d eps       ncg     rms          rms(c)
DAV:   1    -0.709791788088E+03   -0.71947E-02   -0.36251E-01 13632   0.927E-01    0.268E-01
RMM:   2    -0.709796272406E+03   -0.44843E-02   -0.77488E-03 13417   0.158E-01    0.843E-01
RMM:   3    -0.709795164881E+03    0.11075E-02   -0.15616E-03 13004   0.764E-02    0.731E-01
RMM:   4    -0.709792444258E+03    0.27206E-02   -0.44317E-04 10863   0.414E-02    0.122E-01
RMM:   5    -0.709792426866E+03    0.17391E-04   -0.14231E-04  7841   0.224E-02    0.785E-02
RMM:   6    -0.709792482132E+03   -0.55266E-04   -0.78867E-05  7350   0.155E-02    0.845E-02
RMM:   7    -0.709792536843E+03   -0.54711E-04   -0.63697E-05  7213   0.143E-02    0.718E-02
RMM:   8    -0.709792522816E+03    0.14027E-04   -0.28512E-05  6912   0.105E-02
  13 F= -.70979252E+03 E0= -.70918023E+03  d E =-.351557E-02  mag=     6.8318
 curvature:  -0.15 expect dE=-0.331E+00 dE for cont linesearch -0.118E-01
 ZBRENT: interpolating
 opt :   0.0374  next Energy=  -709.800805 (dE=-0.118E-01)
 bond charge predicted
       N       E                     dE             d eps       ncg     rms          rms(c)
DAV:   1    -0.709812321430E+03   -0.19785E-01   -0.77687E-01 13680   0.136E+00    0.219E-01
RMM:   2    -0.709814072697E+03   -0.17513E-02   -0.15384E-02 13437   0.226E-01    0.450E-01
RMM:   3    -0.709814061441E+03    0.11256E-04   -0.25534E-03 13895   0.870E-02    0.263E-01
RMM:   4    -0.709815535626E+03   -0.14742E-02   -0.59876E-04 12065   0.415E-02    0.550E-01
RMM:   5    -0.709814118692E+03    0.14169E-02   -0.27074E-04  9111   0.294E-02    0.236E-01
RMM:   6    -0.709814095321E+03    0.23372E-04   -0.12865E-04  8023   0.213E-02    0.180E-01
RMM:   7    -0.709814108912E+03   -0.13591E-04   -0.79872E-05  7785   0.165E-02    0.125E-01
RMM:   8    -0.709814142423E+03   -0.33511E-04   -0.51215E-05  7475   0.131E-02
  14 F= -.70981414E+03 E0= -.70920194E+03  d E =-.251352E-01  mag=     6.8332
 curvature:  -0.10 expect dE=-0.275E+00 dE for cont linesearch -0.156E-01
 ZBRENT: bisectioning
 opt :   0.0187  next Energy=  -709.845332 (dE=-0.563E-01)
 bond charge predicted
       N       E                     dE             d eps       ncg     rms          rms(c)
DAV:   1    -0.709821796550E+03   -0.76876E-02   -0.10841E+00 13872   0.160E+00    0.288E-01
RMM:   2    -0.709824059604E+03   -0.22631E-02   -0.21535E-02 13440   0.268E-01    0.492E-01
RMM:   3    -0.709824162748E+03   -0.10314E-03   -0.36427E-03 14156   0.103E-01    0.294E-01
RMM:   4    -0.709827091939E+03   -0.29292E-02   -0.92216E-04 12846   0.522E-02    0.771E-01
RMM:   5    -0.709824187340E+03    0.29046E-02   -0.42697E-04 11107   0.377E-02    0.281E-01
RMM:   6    -0.709824109162E+03    0.78178E-04   -0.17804E-04  8356   0.240E-02    0.206E-01
RMM:   7    -0.709824112249E+03   -0.30867E-05   -0.10712E-04  8009   0.193E-02    0.143E-01
RMM:   8    -0.709824141319E+03   -0.29070E-04   -0.63640E-05  7624   0.137E-02
  15 F= -.70982414E+03 E0= -.70921195E+03  d E =-.351341E-01  mag=     6.8322
 curvature:  -0.21 expect dE=-0.360E+00 dE for cont linesearch -0.867E-02
 ZBRENT: interpolating
 opt :   0.0251  next Energy=  -709.826586 (dE=-0.376E-01)
 bond charge predicted
       N       E                     dE             d eps       ncg     rms          rms(c)
DAV:   1    -0.709825602138E+03   -0.14899E-02   -0.12952E-01 13648   0.554E-01    0.121E-01
RMM:   2    -0.709825963243E+03   -0.36111E-03   -0.25583E-03 13142   0.927E-02    0.209E-01
RMM:   3    -0.709825977790E+03   -0.14547E-04   -0.39865E-04  9923   0.383E-02    0.161E-01
RMM:   4    -0.709825908790E+03    0.68999E-04   -0.11184E-04  7583   0.199E-02    0.111E-01
RMM:   5    -0.709825872424E+03    0.36366E-04   -0.34632E-05  7053   0.118E-02    0.538E-02
RMM:   6    -0.709825883998E+03   -0.11574E-04   -0.22399E-05  6656   0.827E-03    0.537E-02
RMM:   7    -0.709825894516E+03   -0.10518E-04   -0.22044E-05  6883   0.867E-03    0.379E-02
RMM:   8    -0.709825895235E+03   -0.71887E-06   -0.87421E-06  6247   0.596E-03
  16 F= -.70982590E+03 E0= -.70921374E+03  d E =-.368880E-01  mag=     6.8326
 curvature:  -0.06 expect dE=-0.112E+00 dE for cont linesearch -0.247E-03
 trial: gam= 0.28442 g(F)=  0.191E+01 g(S)=  0.000E+00 ort =-0.241E+00 (trialstep = 0.562E-01)
 search vector abs. value=  0.288E+01
 bond charge predicted
       N       E                     dE             d eps       ncg     rms          rms(c)
DAV:   1    -0.709892273347E+03   -0.66379E-01   -0.20966E+00 13680   0.230E+00    0.403E-01
RMM:   2    -0.709898247407E+03   -0.59741E-02   -0.45064E-02 13440   0.396E-01    0.106E+00
RMM:   3    -0.709897316198E+03    0.93121E-03   -0.72524E-03 14334   0.151E-01    0.638E-01
RMM:   4    -0.709903950599E+03   -0.66344E-02   -0.18441E-03 13523   0.760E-02    0.126E+00
RMM:   5    -0.709896713117E+03    0.72375E-02   -0.91013E-04 12594   0.540E-02    0.460E-01
RMM:   6    -0.709896664740E+03    0.48378E-04   -0.40184E-04 11089   0.347E-02    0.419E-01
RMM:   7    -0.709896612400E+03    0.52339E-04   -0.25334E-04  9222   0.287E-02    0.359E-01
RMM:   8    -0.709896534746E+03    0.77654E-04   -0.18847E-04  8503   0.249E-02
  17 F= -.70989653E+03 E0= -.70928389E+03  d E =-.706395E-01  mag=     6.8363
 trial-energy change:   -0.070640  1 .order   -0.067116   -0.103372   -0.030861
 step:   0.0736(harm=  0.0802)  dis= 0.00774  next Energy=  -709.901392 (dE=-0.755E-01)
 bond charge predicted
       N       E                     dE             d eps       ncg     rms          rms(c)
DAV:   1    -0.709902454733E+03   -0.58423E-02   -0.19860E-01 13616   0.708E-01    0.269E-01
RMM:   2    -0.709904248356E+03   -0.17936E-02   -0.47575E-03 13430   0.127E-01    0.553E-01
RMM:   3    -0.709903432860E+03    0.81550E-03   -0.85622E-04 12758   0.556E-02    0.398E-01
RMM:   4    -0.709902885325E+03    0.54754E-03   -0.31723E-04  9724   0.325E-02    0.167E-01
RMM:   5    -0.709902970301E+03   -0.84977E-04   -0.22512E-04  8721   0.289E-02    0.225E-01
RMM:   6    -0.709902878442E+03    0.91859E-04   -0.16902E-04  8191   0.250E-02    0.125E-01
RMM:   7    -0.709902818589E+03    0.59853E-04   -0.58476E-05  7654   0.159E-02    0.662E-02
RMM:   8    -0.709902829611E+03   -0.11022E-04   -0.19697E-05  6884   0.862E-03
  18 F= -.70990283E+03 E0= -.70929025E+03  d E =-.769344E-01  mag=     6.8406
 curvature:  -0.06 expect dE=-0.489E-01 dE for cont linesearch -0.973E-03
 ZBRENT: increasing intervall
 opt :   0.1082  next Energy=  -709.899043 (dE=-0.731E-01)
 bond charge predicted
       N       E                     dE             d eps       ncg     rms          rms(c)
DAV:   1    -0.709904415626E+03   -0.15970E-02   -0.79606E-01 13760   0.142E+00    0.248E-01
RMM:   2    -0.709906339810E+03   -0.19242E-02   -0.16988E-02 13440   0.244E-01    0.589E-01
RMM:   3    -0.709906277594E+03    0.62216E-04   -0.27573E-03 14108   0.928E-02    0.385E-01
RMM:   4    -0.709909882540E+03   -0.36049E-02   -0.80080E-04 12640   0.491E-02    0.898E-01
RMM:   5    -0.709905963251E+03    0.39193E-02   -0.34703E-04 10379   0.356E-02    0.255E-01
RMM:   6    -0.709905944561E+03    0.18690E-04   -0.15927E-04  8224   0.226E-02    0.261E-01
RMM:   7    -0.709905930480E+03    0.14081E-04   -0.86117E-05  7921   0.186E-02    0.227E-01
RMM:   8    -0.709905913369E+03    0.17111E-04   -0.70540E-05  7757   0.150E-02
  19 F= -.70990591E+03 E0= -.70929302E+03  d E =-.800181E-01  mag=     6.8458
 curvature:   0.23 expect dE= 0.210E+00 dE for cont linesearch  0.120E-05
 trial: gam= 0.30149 g(F)=  0.929E+00 g(S)=  0.000E+00 ort = 0.391E-02 (trialstep = 0.666E-01)
 search vector abs. value=  0.119E+01
 bond charge predicted
       N       E                     dE             d eps       ncg     rms          rms(c)
DAV:   1    -0.709941356462E+03   -0.35426E-01   -0.11576E+00 13696   0.167E+00    0.310E-01
RMM:   2    -0.709943933928E+03   -0.25775E-02   -0.24416E-02 13440   0.291E-01    0.572E-01
RMM:   3    -0.709943898688E+03    0.35240E-04   -0.39554E-03 14181   0.113E-01    0.355E-01
RMM:   4    -0.709948880831E+03   -0.49821E-02   -0.11684E-03 13102   0.586E-02    0.100E+00
RMM:   5    -0.709943793305E+03    0.50875E-02   -0.51377E-04 12064   0.437E-02    0.296E-01
RMM:   6    -0.709943801601E+03   -0.82964E-05   -0.29128E-04  9637   0.272E-02    0.232E-01
RMM:   7    -0.709943860075E+03   -0.58475E-04   -0.14933E-04  8338   0.226E-02    0.176E-01
RMM:   8    -0.709943901190E+03   -0.41115E-04   -0.71883E-05  7807   0.158E-02
  20 F= -.70994390E+03 E0= -.70933108E+03  d E =-.379878E-01  mag=     6.8498
 trial-energy change:   -0.037988  1 .order   -0.037378   -0.062022   -0.012734
 step:   0.0824(harm=  0.0839)  dis= 0.00702  next Energy=  -709.945416 (dE=-0.395E-01)
 bond charge predicted
       N       E                     dE             d eps       ncg     rms          rms(c)
DAV:   1    -0.709945848293E+03   -0.19882E-02   -0.64900E-02 13888   0.397E-01    0.149E-01
RMM:   2    -0.709946697381E+03   -0.84909E-03   -0.15651E-03 13252   0.731E-02    0.339E-01
RMM:   3    -0.709946421957E+03    0.27542E-03   -0.33531E-04  9924   0.346E-02    0.283E-01
RMM:   4    -0.709946220755E+03    0.20120E-03   -0.16920E-04  8156   0.236E-02    0.203E-01
RMM:   5    -0.709946103357E+03    0.11740E-03   -0.46302E-05  7492   0.154E-02    0.908E-02
RMM:   6    -0.709946204268E+03   -0.10091E-03   -0.44426E-05  7178   0.105E-02    0.978E-02
RMM:   7    -0.709946183536E+03    0.20732E-04   -0.28375E-05  7105   0.111E-02    0.435E-02
RMM:   8    -0.709946212074E+03   -0.28538E-04   -0.68788E-06  6305   0.533E-03
  21 F= -.70994621E+03 E0= -.70933338E+03  d E =-.402987E-01  mag=     6.8530
 curvature:  -0.05 expect dE=-0.500E-01 dE for cont linesearch -0.345E-03
 trial: gam= 0.96874 g(F)=  0.937E+00 g(S)=  0.000E+00 ort = 0.879E-01 (trialstep = 0.374E-01)
 search vector abs. value=  0.223E+01
 bond charge predicted
       N       E                     dE             d eps       ncg     rms          rms(c)
DAV:   1    -0.709973168620E+03   -0.26985E-01   -0.68779E-01 13776   0.128E+00    0.246E-01
RMM:   2    -0.709975499683E+03   -0.23311E-02   -0.16026E-02 13440   0.239E-01    0.626E-01
RMM:   3    -0.709974892472E+03    0.60721E-03   -0.26703E-03 13993   0.912E-02    0.337E-01
RMM:   4    -0.709976045907E+03   -0.11534E-02   -0.64769E-04 12206   0.445E-02    0.548E-01
RMM:   5    -0.709974736755E+03    0.13092E-02   -0.31531E-04  9793   0.312E-02    0.273E-01
RMM:   6    -0.709974674452E+03    0.62303E-04   -0.18161E-04  8352   0.247E-02    0.215E-01
RMM:   7    -0.709974623604E+03    0.50848E-04   -0.12437E-04  8034   0.208E-02    0.133E-01
RMM:   8    -0.709974616641E+03    0.69631E-05   -0.56909E-05  7667   0.145E-02
  22 F= -.70997462E+03 E0= -.70936179E+03  d E =-.284046E-01  mag=     6.8575
 trial-energy change:   -0.028405  1 .order   -0.027002   -0.038236   -0.015768
 step:   0.0544(harm=  0.0637)  dis= 0.00813  next Energy=  -709.978330 (dE=-0.321E-01)
 bond charge predicted
       N       E                     dE             d eps       ncg     rms          rms(c)
DAV:   1    -0.709978416146E+03   -0.37925E-02   -0.14161E-01 13872   0.580E-01    0.153E-01
RMM:   2    -0.709978862599E+03   -0.44645E-03   -0.33564E-03 13338   0.110E-01    0.240E-01
RMM:   3    -0.709978881521E+03   -0.18922E-04   -0.59344E-04 11685   0.431E-02    0.189E-01
RMM:   4    -0.709978836084E+03    0.45438E-04   -0.14970E-04  8068   0.235E-02    0.149E-01
RMM:   5    -0.709978860486E+03   -0.24403E-04   -0.10888E-04  7824   0.211E-02    0.182E-01
RMM:   6    -0.709978772991E+03    0.87495E-04   -0.71668E-05  7620   0.167E-02    0.785E-02
RMM:   7    -0.709978772883E+03    0.10742E-06   -0.29605E-05  7193   0.108E-02    0.552E-02
RMM:   8    -0.709978778616E+03   -0.57331E-05   -0.12213E-05  6515   0.697E-03
  23 F= -.70997878E+03 E0= -.70936604E+03  d E =-.325665E-01  mag=     6.8623
 curvature:  -0.06 expect dE=-0.325E-01 dE for cont linesearch -0.119E-03
 trial: gam= 0.33448 g(F)=  0.535E+00 g(S)=  0.000E+00 ort = 0.660E-01 (trialstep = 0.408E-01)
 search vector abs. value=  0.828E+00
 bond charge predicted
       N       E                     dE             d eps       ncg     rms          rms(c)
DAV:   1    -0.709995443409E+03   -0.16671E-01   -0.30680E-01 13696   0.839E-01    0.155E-01
RMM:   2    -0.709996055294E+03   -0.61188E-03   -0.64027E-03 13440   0.140E-01    0.184E-01
RMM:   3    -0.709996100572E+03   -0.45279E-04   -0.89926E-04 12593   0.565E-02    0.918E-02
RMM:   4    -0.709996404533E+03   -0.30396E-03   -0.26830E-04  8933   0.292E-02    0.263E-01
RMM:   5    -0.709996229127E+03    0.17541E-03   -0.10474E-04  7870   0.205E-02    0.186E-01
RMM:   6    -0.709996104223E+03    0.12490E-03   -0.53719E-05  7455   0.134E-02    0.652E-02
RMM:   7    -0.709996116732E+03   -0.12509E-04   -0.30459E-05  7200   0.103E-02    0.390E-02
RMM:   8    -0.709996145403E+03   -0.28670E-04   -0.14219E-05  6601   0.749E-03
  24 F= -.70999615E+03 E0= -.70938349E+03  d E =-.173668E-01  mag=     6.8664
 trial-energy change:   -0.017367  1 .order   -0.017039   -0.022713   -0.011364
 step:   0.0817(harm=  0.0817)  dis= 0.00459  next Energy=  -710.001507 (dE=-0.227E-01)
 bond charge predicted
       N       E                     dE             d eps       ncg     rms          rms(c)
DAV:   1    -0.710001793865E+03   -0.56771E-02   -0.30740E-01 13776   0.840E-01    0.160E-01
RMM:   2    -0.710002408583E+03   -0.61472E-03   -0.63968E-03 13440   0.140E-01    0.176E-01
RMM:   3    -0.710002610960E+03   -0.20238E-03   -0.92385E-04 12697   0.567E-02    0.191E-01
RMM:   4    -0.710002897450E+03   -0.28649E-03   -0.29375E-04  9109   0.297E-02    0.295E-01
RMM:   5    -0.710002492532E+03    0.40492E-03   -0.11866E-04  7881   0.224E-02    0.149E-01
RMM:   6    -0.710002448999E+03    0.43533E-04   -0.64901E-05  7590   0.144E-02    0.607E-02
RMM:   7    -0.710002465463E+03   -0.16464E-04   -0.33138E-05  7236   0.107E-02    0.509E-02
RMM:   8    -0.710002481828E+03   -0.16364E-04   -0.15754E-05  6683   0.804E-03
  25 F= -.71000248E+03 E0= -.70938994E+03  d E =-.237032E-01  mag=     6.8698
 curvature:  -0.06 expect dE=-0.196E-01 dE for cont linesearch -0.238E-03
 trial: gam= 0.34181 g(F)=  0.323E+00 g(S)=  0.000E+00 ort = 0.570E-01 (trialstep = 0.490E-01)
 search vector abs. value=  0.459E+00
 bond charge predicted
       N       E                     dE             d eps       ncg     rms          rms(c)
DAV:   1    -0.710013304958E+03   -0.10839E-01   -0.24982E-01 13824   0.787E-01    0.140E-01
RMM:   2    -0.710013938232E+03   -0.63327E-03   -0.53658E-03 13440   0.141E-01    0.300E-01
RMM:   3    -0.710013935285E+03    0.29471E-05   -0.91338E-04 12821   0.545E-02    0.183E-01
RMM:   4    -0.710014816976E+03   -0.88169E-03   -0.24720E-04  8624   0.281E-02    0.435E-01
RMM:   5    -0.710013965962E+03    0.85101E-03   -0.13115E-04  7848   0.238E-02    0.174E-01
RMM:   6    -0.710013959922E+03    0.60396E-05   -0.53412E-05  7515   0.134E-02    0.114E-01
RMM:   7    -0.710014011720E+03   -0.51799E-04   -0.37431E-05  7356   0.109E-02    0.752E-02
RMM:   8    -0.710014045102E+03   -0.33382E-04   -0.17459E-05  6818   0.804E-03
  26 F= -.71001405E+03 E0= -.70940158E+03  d E =-.115633E-01  mag=     6.8713
 trial-energy change:   -0.011563  1 .order   -0.011535   -0.016780   -0.006291
 step:   0.0783(harm=  0.0783)  dis= 0.00396  next Energy=  -710.015904 (dE=-0.134E-01)
 bond charge predicted
       N       E                     dE             d eps       ncg     rms          rms(c)
DAV:   1    -0.710016227433E+03   -0.22157E-02   -0.89857E-02 13936   0.472E-01    0.107E-01
RMM:   2    -0.710016456770E+03   -0.22934E-03   -0.19678E-03 13268   0.851E-02    0.145E-01
RMM:   3    -0.710016479660E+03   -0.22890E-04   -0.33691E-04  9524   0.328E-02    0.956E-02
RMM:   4    -0.710017161843E+03   -0.68218E-03   -0.12593E-04  7837   0.211E-02    0.356E-01
RMM:   5    -0.710016514434E+03    0.64741E-03   -0.64503E-05  7471   0.172E-02    0.104E-01
RMM:   6    -0.710016520870E+03   -0.64363E-05   -0.21200E-05  7015   0.870E-03    0.659E-02
RMM:   7    -0.710016554802E+03   -0.33931E-04   -0.96389E-06  6627   0.618E-03    0.506E-02
RMM:   8    -0.710016573985E+03   -0.19183E-04   -0.55630E-06  6115   0.464E-03
  27 F= -.71001657E+03 E0= -.70940423E+03  d E =-.140922E-01  mag=     6.8714
 curvature:  -0.05 expect dE=-0.275E-01 dE for cont linesearch -0.172E-03
 trial: gam= 1.66691 g(F)=  0.524E+00 g(S)=  0.000E+00 ort = 0.387E-01 (trialstep = 0.131E-01)
 search vector abs. value=  0.193E+01
 bond charge predicted
       N       E                     dE             d eps       ncg     rms          rms(c)
DAV:   1    -0.710023851011E+03   -0.72962E-02   -0.72347E-02 13904   0.419E-01    0.827E-02
RMM:   2    -0.710024021581E+03   -0.17057E-03   -0.14405E-03 13087   0.706E-02    0.132E-01
RMM:   3    -0.710024028791E+03   -0.72097E-05   -0.24042E-04  8362   0.281E-02    0.763E-02
RMM:   4    -0.710024364051E+03   -0.33526E-03   -0.74497E-05  7529   0.175E-02    0.256E-01
RMM:   5    -0.710024035827E+03    0.32822E-03   -0.34085E-05  7330   0.123E-02    0.705E-02
RMM:   6    -0.710024048817E+03   -0.12990E-04   -0.14945E-05  6786   0.721E-03    0.648E-02
RMM:   7    -0.710024054964E+03   -0.61468E-05   -0.72671E-06  6343   0.578E-03    0.451E-02
RMM:   8    -0.710024064120E+03   -0.91557E-05   -0.47258E-06  5609   0.417E-03
  28 F= -.71002406E+03 E0= -.70941176E+03  d E =-.749014E-02  mag=     6.8713
 ZBRENT: can't locate minimum, use default step
 trial-energy change:   -0.007490  1 .order   -0.007398   -0.007682   -0.007113
 step:   0.0522(harm=  0.1762)  dis= 0.00588  next Energy=  -710.068422 (dE=-0.518E-01)
 bond charge predicted
       N       E                     dE             d eps       ncg     rms          rms(c)
DAV:   1    -0.710038109366E+03   -0.14054E-01   -0.65146E-01 13872   0.126E+00    0.211E-01
RMM:   2    -0.710039393642E+03   -0.12843E-02   -0.12743E-02 13440   0.211E-01    0.361E-01
RMM:   3    -0.710039534555E+03   -0.14091E-03   -0.21504E-03 14068   0.831E-02    0.235E-01
RMM:   4    -0.710039554367E+03   -0.19812E-04   -0.42152E-04 10620   0.369E-02    0.237E-01
RMM:   5    -0.710039663045E+03   -0.10868E-03   -0.12125E-04  7996   0.213E-02    0.249E-01
RMM:   6    -0.710039654277E+03    0.87676E-05   -0.92525E-05  7886   0.170E-02    0.222E-01
RMM:   7    -0.710039531192E+03    0.12309E-03   -0.58153E-05  7636   0.145E-02    0.132E-01
RMM:   8    -0.710039528358E+03    0.28338E-05   -0.32884E-05  7372   0.105E-02
  29 F= -.71003953E+03 E0= -.70942754E+03  d E =-.229544E-01  mag=     6.8705
 curvature:  -0.12 expect dE=-0.630E-01 dE for cont linesearch -0.296E-02
 ZBRENT: increasing intervall
 opt :   0.1305  next Energy=  -710.030732 (dE=-0.142E-01)
 bond charge predicted
       N       E                     dE             d eps       ncg     rms          rms(c)
DAV:   1    -0.710032839542E+03    0.66916E-02   -0.26069E+00 13536   0.252E+00    0.436E-01
RMM:   2    -0.710038131828E+03   -0.52923E-02   -0.51397E-02 13440   0.424E-01    0.728E-01
RMM:   3    -0.710038619586E+03   -0.48776E-03   -0.87126E-03 14576   0.167E-01    0.477E-01
RMM:   4    -0.710050246966E+03   -0.11627E-01   -0.24644E-03 13522   0.841E-02    0.151E+00
RMM:   5    -0.710038484705E+03    0.11762E-01   -0.94260E-04 12723   0.618E-02    0.426E-01
RMM:   6    -0.710038520465E+03   -0.35760E-04   -0.50680E-04 11679   0.352E-02    0.317E-01
RMM:   7    -0.710038555011E+03   -0.34546E-04   -0.30059E-04  9669   0.304E-02    0.265E-01
RMM:   8    -0.710038544061E+03    0.10950E-04   -0.15946E-04  8329   0.236E-02
  30 F= -.71003854E+03 E0= -.70942684E+03  d E =-.219701E-01  mag=     6.8684
 curvature:   0.36 expect dE= 0.277E+00 dE for cont linesearch  0.367E-02
 ZBRENT: bracketing found
 ZBRENT: interpolating
 opt :   0.0998  next Energy=  -710.040691 (dE=-0.241E-01)
 bond charge predicted
       N       E                     dE             d eps       ncg     rms          rms(c)
DAV:   1    -0.710040781625E+03   -0.22266E-02   -0.40205E-01 13872   0.989E-01    0.191E-01
RMM:   2    -0.710042476328E+03   -0.16947E-02   -0.78675E-03 13440   0.166E-01    0.523E-01
RMM:   3    -0.710042314127E+03    0.16220E-03   -0.12601E-03 13163   0.699E-02    0.402E-01
RMM:   4    -0.710041618679E+03    0.69545E-03   -0.37779E-04 10076   0.361E-02    0.167E-01
RMM:   5    -0.710041520103E+03    0.98576E-04   -0.11340E-04  7729   0.224E-02    0.118E-01
RMM:   6    -0.710041515336E+03    0.47667E-05   -0.68116E-05  7428   0.154E-02    0.113E-01
RMM:   7    -0.710041494587E+03    0.20750E-04   -0.78858E-05  7323   0.161E-02    0.638E-02
RMM:   8    -0.710041485981E+03    0.86061E-05   -0.30472E-05  7046   0.111E-02
  31 F= -.71004149E+03 E0= -.70942978E+03  d E =-.249120E-01  mag=     6.8674
 curvature:  -0.21 expect dE=-0.138E+00 dE for cont linesearch -0.497E-03
 trial: gam= 0.93397 g(F)=  0.649E+00 g(S)=  0.000E+00 ort =-0.672E-01 (trialstep = 0.266E-01)
 search vector abs. value=  0.221E+01
 bond charge predicted
       N       E                     dE             d eps       ncg     rms          rms(c)
DAV:   1    -0.710054846047E+03   -0.13351E-01   -0.34417E-01 13664   0.919E-01    0.137E-01
RMM:   2    -0.710055996315E+03   -0.11503E-02   -0.65643E-03 13440   0.150E-01    0.385E-01
RMM:   3    -0.710055560304E+03    0.43601E-03   -0.10246E-03 13152   0.599E-02    0.151E-01
RMM:   4    -0.710055879038E+03   -0.31873E-03   -0.23177E-04  8508   0.287E-02    0.269E-01
RMM:   5    -0.710055637460E+03    0.24158E-03   -0.10220E-04  7753   0.224E-02    0.182E-01
RMM:   6    -0.710055577043E+03    0.60417E-04   -0.65116E-05  7621   0.135E-02    0.906E-02
RMM:   7    -0.710055559786E+03    0.17257E-04   -0.36988E-05  7397   0.115E-02    0.446E-02
RMM:   8    -0.710055562142E+03   -0.23566E-05   -0.12554E-05  6723   0.763E-03
  32 F= -.71005556E+03 E0= -.70944402E+03  d E =-.140762E-01  mag=     6.8671
 trial-energy change:   -0.014076  1 .order   -0.013640   -0.015587   -0.011692
 step:   0.0587(harm=  0.1064)  dis= 0.00887  next Energy=  -710.063395 (dE=-0.219E-01)
 bond charge predicted
       N       E                     dE             d eps       ncg     rms          rms(c)
DAV:   1    -0.710065038026E+03   -0.94782E-02   -0.50203E-01 13488   0.111E+00    0.177E-01
RMM:   2    -0.710065979797E+03   -0.94177E-03   -0.97087E-03 13440   0.182E-01    0.249E-01
RMM:   3    -0.710066120309E+03   -0.14051E-03   -0.15365E-03 13622   0.722E-02    0.150E-01
RMM:   4    -0.710067738358E+03   -0.16180E-02   -0.44390E-04 11431   0.364E-02    0.570E-01
RMM:   5    -0.710066145407E+03    0.15930E-02   -0.15430E-04  8051   0.261E-02    0.204E-01
RMM:   6    -0.710066064817E+03    0.80589E-04   -0.79801E-05  7789   0.170E-02    0.966E-02
RMM:   7    -0.710066061081E+03    0.37369E-05   -0.54321E-05  7662   0.133E-02    0.527E-02
RMM:   8    -0.710066062983E+03   -0.19026E-05   -0.16513E-05  7161   0.904E-03
  33 F= -.71006606E+03 E0= -.70945476E+03  d E =-.245770E-01  mag=     6.8673
 curvature:  -0.13 expect dE=-0.941E-01 dE for cont linesearch -0.320E-02
 ZBRENT: increasing intervall
 opt :   0.1229  next Energy=  -710.067890 (dE=-0.264E-01)
 bond charge predicted
       N       E                     dE             d eps       ncg     rms          rms(c)
DAV:   1    -0.710067644392E+03   -0.15833E-02   -0.20101E+00 13824   0.222E+00    0.345E-01
RMM:   2    -0.710072009434E+03   -0.43650E-02   -0.38872E-02 13440   0.364E-01    0.618E-01
RMM:   3    -0.710071963422E+03    0.46013E-04   -0.62080E-03 14378   0.145E-01    0.333E-01
RMM:   4    -0.710076097233E+03   -0.41338E-02   -0.15290E-03 13598   0.693E-02    0.927E-01
RMM:   5    -0.710072106868E+03    0.39904E-02   -0.52245E-04 12065   0.459E-02    0.393E-01
RMM:   6    -0.710071933069E+03    0.17380E-03   -0.34303E-04 10401   0.307E-02    0.241E-01
RMM:   7    -0.710071819446E+03    0.11362E-03   -0.23612E-04  8984   0.277E-02    0.141E-01
RMM:   8    -0.710071807924E+03    0.11522E-04   -0.78987E-05  7913   0.185E-02
  34 F= -.71007181E+03 E0= -.70946093E+03  d E =-.303219E-01  mag=     6.8682
 curvature:  -0.07 expect dE=-0.955E-01 dE for cont linesearch -0.623E-03
 trial: gam= 1.75752 g(F)=  0.130E+01 g(S)=  0.000E+00 ort =-0.137E+00 (trialstep = 0.132E-01)
 search vector abs. value=  0.763E+01
 bond charge predicted
       N       E                     dE             d eps       ncg     rms          rms(c)
DAV:   1    -0.710080396760E+03   -0.85773E-02   -0.30709E-01 13888   0.872E-01    0.184E-01
RMM:   2    -0.710081238324E+03   -0.84156E-03   -0.60776E-03 13436   0.142E-01    0.277E-01
RMM:   3    -0.710081962631E+03   -0.72431E-03   -0.10275E-03 13046   0.616E-02    0.440E-01
RMM:   4    -0.710081096371E+03    0.86626E-03   -0.30477E-04  9306   0.322E-02    0.155E-01
RMM:   5    -0.710081076583E+03    0.19788E-04   -0.97565E-05  7831   0.217E-02    0.107E-01
RMM:   6    -0.710081144697E+03   -0.68114E-04   -0.80234E-05  7781   0.161E-02    0.132E-01
RMM:   7    -0.710081069470E+03    0.75228E-04   -0.48933E-05  7628   0.153E-02    0.543E-02
RMM:   8    -0.710081071889E+03   -0.24197E-05   -0.13132E-05  6908   0.686E-03
  35 F= -.71008107E+03 E0= -.70947034E+03  d E =-.926397E-02  mag=     6.8692
 trial-energy change:   -0.009264  1 .order   -0.009415   -0.014032   -0.004798
 step:   0.0201(harm=  0.0201)  dis= 0.00532  next Energy=  -710.082469 (dE=-0.107E-01)
 bond charge predicted
       N       E                     dE             d eps       ncg     rms          rms(c)
DAV:   1    -0.710082348696E+03   -0.12792E-02   -0.82856E-02 13888   0.452E-01    0.662E-02
RMM:   2    -0.710082525973E+03   -0.17728E-03   -0.15575E-03 13162   0.721E-02    0.107E-01
RMM:   3    -0.710082548848E+03   -0.22876E-04   -0.23885E-04  8403   0.290E-02    0.701E-02
RMM:   4    -0.710082671893E+03   -0.12304E-03   -0.64568E-05  7585   0.172E-02    0.168E-01
RMM:   5    -0.710082547205E+03    0.12469E-03   -0.19199E-05  7281   0.941E-03    0.569E-02
RMM:   6    -0.710082551620E+03   -0.44158E-05   -0.11909E-05  6764   0.591E-03    0.371E-02
RMM:   7    -0.710082562235E+03   -0.10614E-04   -0.65613E-06  6222   0.536E-03    0.226E-02
RMM:   8    -0.710082573851E+03   -0.11616E-04   -0.27668E-06  4806   0.367E-03
  36 F= -.71008257E+03 E0= -.70947195E+03  d E =-.107659E-01  mag=     6.8697
 curvature:  -0.07 expect dE=-0.617E-01 dE for cont linesearch -0.431E-04
 trial: gam=-0.06420 g(F)=  0.851E+00 g(S)=  0.000E+00 ort = 0.673E-01 (trialstep = 0.146E-01)
 search vector abs. value=  0.874E+00
 bond charge predicted
       N       E                     dE             d eps       ncg     rms          rms(c)
DAV:   1    -0.710093592053E+03   -0.11030E-01   -0.47109E-02 13888   0.351E-01    0.656E-02
RMM:   2    -0.710093830565E+03   -0.23851E-03   -0.10838E-03 12650   0.653E-02    0.199E-01
RMM:   3    -0.710093745374E+03    0.85190E-04   -0.17613E-04  7833   0.245E-02    0.107E-01
RMM:   4    -0.710093827152E+03   -0.81778E-04   -0.43607E-05  7263   0.146E-02    0.152E-01
RMM:   5    -0.710093740644E+03    0.86508E-04   -0.20358E-05  7048   0.900E-03    0.745E-02
RMM:   6    -0.710093760534E+03   -0.19890E-04   -0.74672E-06  6216   0.518E-03    0.806E-02
RMM:   7    -0.710093792662E+03   -0.32128E-04   -0.68010E-06  6373   0.478E-03    0.807E-02
RMM:   8    -0.710093780298E+03    0.12364E-04   -0.39230E-06  5679   0.434E-03
  37 F= -.71009378E+03 E0= -.70948314E+03  d E =-.112064E-01  mag=     6.8697
 ZBRENT: can't locate minimum, use default step
 trial-energy change:   -0.011206  1 .order   -0.011011   -0.012387   -0.009635
 step:   0.0585(harm=  0.0658)  dis= 0.00479  next Energy=  -710.110454 (dE=-0.279E-01)
 bond charge predicted
       N       E                     dE             d eps       ncg     rms          rms(c)
DAV:   1    -0.710106070247E+03   -0.12278E-01   -0.42484E-01 13872   0.106E+00    0.206E-01
RMM:   2    -0.710107244878E+03   -0.11746E-02   -0.99272E-03 13440   0.196E-01    0.478E-01
RMM:   3    -0.710107365813E+03   -0.12093E-03   -0.16344E-03 13462   0.727E-02    0.403E-01
RMM:   4    -0.710107198632E+03    0.16718E-03   -0.44280E-04 11072   0.415E-02    0.244E-01
RMM:   5    -0.710107179807E+03    0.18825E-04   -0.13829E-04  8051   0.220E-02    0.256E-01
RMM:   6    -0.710107154679E+03    0.25128E-04   -0.55730E-05  7764   0.143E-02    0.279E-01
RMM:   7    -0.710107137866E+03    0.16814E-04   -0.65022E-05  7594   0.131E-02    0.235E-01
RMM:   8    -0.710107081839E+03    0.56026E-04   -0.59114E-05  7540   0.143E-02
  38 F= -.71010708E+03 E0= -.70949620E+03  d E =-.245080E-01  mag=     6.8681
 curvature:  -0.03 expect dE=-0.191E-01 dE for cont linesearch -0.236E-04
 trial: gam= 0.71721 g(F)=  0.575E+00 g(S)=  0.000E+00 ort =-0.249E-01 (trialstep = 0.207E-01)
 search vector abs. value=  0.989E+00
 bond charge predicted
       N       E                     dE             d eps       ncg     rms          rms(c)
DAV:   1    -0.710116664813E+03   -0.95269E-02   -0.10271E-01 13744   0.518E-01    0.243E-01
RMM:   2    -0.710116939141E+03   -0.27433E-03   -0.23437E-03 13393   0.931E-02    0.293E-01
RMM:   3    -0.710116904246E+03    0.34895E-04   -0.38385E-04 10184   0.376E-02    0.194E-01
RMM:   4    -0.710119632753E+03   -0.27285E-02   -0.39339E-04 10841   0.326E-02    0.697E-01
RMM:   5    -0.710116938351E+03    0.26944E-02   -0.24577E-04  8877   0.318E-02    0.204E-01
RMM:   6    -0.710116851899E+03    0.86452E-04   -0.80311E-05  7540   0.176E-02    0.797E-02
RMM:   7    -0.710116847324E+03    0.45753E-05   -0.26835E-05  7110   0.104E-02    0.508E-02
RMM:   8    -0.710116843551E+03    0.37726E-05   -0.89525E-06  6419   0.621E-03
  39 F= -.71011684E+03 E0= -.70950588E+03  d E =-.976171E-02  mag=     6.8658
 trial-energy change:   -0.009762  1 .order   -0.009776   -0.011528   -0.008025
 step:   0.0680(harm=  0.0680)  dis= 0.00375  next Energy=  -710.126050 (dE=-0.190E-01)
 bond charge predicted
       N       E                     dE             d eps       ncg     rms          rms(c)
DAV:   1    -0.710122562230E+03   -0.57149E-02   -0.54157E-01 13744   0.119E+00    0.202E-01
RMM:   2    -0.710123906003E+03   -0.13438E-02   -0.11323E-02 13440   0.209E-01    0.407E-01
RMM:   3    -0.710123913023E+03   -0.70208E-05   -0.19525E-03 13923   0.803E-02    0.300E-01
RMM:   4    -0.710125768136E+03   -0.18551E-02   -0.51908E-04 12081   0.423E-02    0.631E-01
RMM:   5    -0.710123731118E+03    0.20370E-02   -0.19458E-04  8306   0.275E-02    0.212E-01
RMM:   6    -0.710123741540E+03   -0.10422E-04   -0.96707E-05  7916   0.176E-02    0.217E-01
RMM:   7    -0.710123848937E+03   -0.10740E-03   -0.63560E-05  7716   0.151E-02    0.217E-01
RMM:   8    -0.710123787533E+03    0.61405E-04   -0.66137E-05  7638   0.148E-02
  40 F= -.71012379E+03 E0= -.70951268E+03  d E =-.167057E-01  mag=     6.8638
 curvature:  -0.06 expect dE=-0.292E-01 dE for cont linesearch -0.592E-03
 ZBRENT: interpolating
 opt :   0.0585  next Energy=  -710.124260 (dE=-0.172E-01)
 bond charge predicted
       N       E                     dE             d eps       ncg     rms          rms(c)
DAV:   1    -0.710124217059E+03   -0.36812E-03   -0.22451E-02 14096   0.243E-01    0.116E-01
RMM:   2    -0.710125505098E+03   -0.12880E-02   -0.56538E-04 12183   0.457E-02    0.472E-01
RMM:   3    -0.710124306680E+03    0.11984E-02   -0.14366E-04  7306   0.254E-02    0.130E-01
RMM:   4    -0.710124306091E+03    0.58893E-06   -0.65771E-05  7243   0.160E-02    0.112E-01
RMM:   5    -0.710124256184E+03    0.49906E-04   -0.23641E-05  6968   0.108E-02    0.320E-02
RMM:   6    -0.710124268259E+03   -0.12075E-04   -0.15547E-05  6592   0.643E-03    0.391E-02
RMM:   7    -0.710124264388E+03    0.38708E-05   -0.55868E-06  6167   0.549E-03    0.209E-02
RMM:   8    -0.710124266159E+03   -0.17706E-05   -0.41369E-07  2331   0.262E-03
  41 F= -.71012427E+03 E0= -.70951313E+03  d E =-.171843E-01  mag=     6.8620
 curvature:  -0.05 expect dE=-0.187E-01 dE for cont linesearch -0.187E-08
 trial: gam= 0.48940 g(F)=  0.388E+00 g(S)=  0.000E+00 ort = 0.196E-03 (trialstep = 0.282E-01)
 search vector abs. value=  0.625E+00
 bond charge predicted
       N       E                     dE             d eps       ncg     rms          rms(c)
DAV:   1    -0.710133132738E+03   -0.88683E-02   -0.11866E-01 13872   0.556E-01    0.933E-02
RMM:   2    -0.710133419879E+03   -0.28714E-03   -0.24578E-03 13402   0.979E-02    0.194E-01
RMM:   3    -0.710133405111E+03    0.14768E-04   -0.41603E-04 10422   0.375E-02    0.123E-01
RMM:   4    -0.710133742312E+03   -0.33720E-03   -0.10585E-04  7716   0.210E-02    0.269E-01
RMM:   5    -0.710133376167E+03    0.36614E-03   -0.51782E-05  7411   0.151E-02    0.102E-01
RMM:   6    -0.710133374946E+03    0.12213E-05   -0.22911E-05  7092   0.873E-03    0.892E-02
RMM:   7    -0.710133377051E+03   -0.21045E-05   -0.13557E-05  6838   0.705E-03    0.715E-02
RMM:   8    -0.710133381325E+03   -0.42748E-05   -0.10058E-05  6528   0.569E-03
  42 F= -.71013338E+03 E0= -.70952226E+03  d E =-.911517E-02  mag=     6.8603
 trial-energy change:   -0.009115  1 .order   -0.009074   -0.010961   -0.007187
 step:   0.0820(harm=  0.0820)  dis= 0.00554  next Energy=  -710.140182 (dE=-0.159E-01)
 bond charge predicted
       N       E                     dE             d eps       ncg     rms          rms(c)
DAV:   1    -0.710137349097E+03   -0.39720E-02   -0.42958E-01 13760   0.106E+00    0.199E-01
RMM:   2    -0.710138336341E+03   -0.98724E-03   -0.89723E-03 13440   0.187E-01    0.363E-01
RMM:   3    -0.710138367817E+03   -0.31476E-04   -0.15663E-03 13675   0.718E-02    0.254E-01
RMM:   4    -0.710140377111E+03   -0.20093E-02   -0.43880E-04 11725   0.383E-02    0.633E-01
RMM:   5    -0.710138321488E+03    0.20556E-02   -0.22310E-04  8502   0.292E-02    0.228E-01
RMM:   6    -0.710138291395E+03    0.30093E-04   -0.90231E-05  7854   0.185E-02    0.181E-01
RMM:   7    -0.710138278771E+03    0.12623E-04   -0.52767E-05  7608   0.134E-02    0.143E-01
RMM:   8    -0.710138283467E+03   -0.46954E-05   -0.37044E-05  7404   0.111E-02
  43 F= -.71013828E+03 E0= -.70952721E+03  d E =-.140173E-01  mag=     6.8582
 curvature:  -0.07 expect dE=-0.169E-01 dE for cont linesearch -0.515E-03
 ZBRENT: interpolating
 opt :   0.0704  next Energy=  -710.138688 (dE=-0.144E-01)
 bond charge predicted
       N       E                     dE             d eps       ncg     rms          rms(c)
DAV:   1    -0.710138653145E+03   -0.37437E-03   -0.20069E-02 13968   0.229E-01    0.821E-02
RMM:   2    -0.710138777299E+03   -0.12415E-03   -0.44360E-04  9853   0.410E-02    0.126E-01
RMM:   3    -0.710138775924E+03    0.13755E-05   -0.10341E-04  7263   0.220E-02    0.115E-01
RMM:   4    -0.710138760373E+03    0.15551E-04   -0.26748E-05  7128   0.112E-02    0.997E-02
RMM:   5    -0.710138722196E+03    0.38177E-04   -0.93896E-06  6545   0.625E-03    0.416E-02
RMM:   6    -0.710138733870E+03   -0.11674E-04   -0.74336E-06  6213   0.512E-03    0.265E-02
RMM:   7    -0.710138743072E+03   -0.92025E-05   -0.49608E-06  6108   0.452E-03    0.222E-02
RMM:   8    -0.710138748743E+03   -0.56704E-05   -0.90882E-07  3042   0.305E-03
  44 F= -.71013875E+03 E0= -.70952761E+03  d E =-.144826E-01  mag=     6.8568
 curvature:  -0.05 expect dE=-0.102E-01 dE for cont linesearch -0.368E-07
 trial: gam= 0.36528 g(F)=  0.198E+00 g(S)=  0.000E+00 ort =-0.666E-03 (trialstep = 0.367E-01)
 search vector abs. value=  0.281E+00
 bond charge predicted
       N       E                     dE             d eps       ncg     rms          rms(c)
DAV:   1    -0.710143890104E+03   -0.51470E-02   -0.94210E-02 13856   0.490E-01    0.791E-02
RMM:   2    -0.710144076025E+03   -0.18592E-03   -0.18756E-03 13338   0.823E-02    0.141E-01
RMM:   3    -0.710144089622E+03   -0.13598E-04   -0.29615E-04  8873   0.321E-02    0.744E-02
RMM:   4    -0.710144189045E+03   -0.99423E-04   -0.67953E-05  7454   0.178E-02    0.158E-01
RMM:   5    -0.710144084322E+03    0.10472E-03   -0.23956E-05  7195   0.101E-02    0.854E-02
RMM:   6    -0.710144069433E+03    0.14890E-04   -0.14152E-05  6618   0.665E-03    0.676E-02
RMM:   7    -0.710144068607E+03    0.82601E-06   -0.88173E-06  6452   0.571E-03    0.608E-02
RMM:   8    -0.710144064058E+03    0.45487E-05   -0.55934E-06  6077   0.472E-03
  45 F= -.71014406E+03 E0= -.70953295E+03  d E =-.531532E-02  mag=     6.8551
 trial-energy change:   -0.005315  1 .order   -0.005251   -0.007235   -0.003268
 step:   0.0669(harm=  0.0669)  dis= 0.00313  next Energy=  -710.145346 (dE=-0.660E-02)
 bond charge predicted
       N       E                     dE             d eps       ncg     rms          rms(c)
DAV:   1    -0.710145171360E+03   -0.11028E-02   -0.63816E-02 13888   0.404E-01    0.792E-02
RMM:   2    -0.710145316025E+03   -0.14466E-03   -0.13011E-03 13101   0.683E-02    0.135E-01
RMM:   3    -0.710145318471E+03   -0.24462E-05   -0.21371E-04  8043   0.269E-02    0.834E-02
RMM:   4    -0.710145541526E+03   -0.22305E-03   -0.67604E-05  7466   0.172E-02    0.220E-01
RMM:   5    -0.710145302354E+03    0.23917E-03   -0.28907E-05  7242   0.114E-02    0.759E-02
RMM:   6    -0.710145300653E+03    0.17015E-05   -0.10435E-05  6463   0.586E-03    0.742E-02
RMM:   7    -0.710145310674E+03   -0.10021E-04   -0.61306E-06  6210   0.494E-03    0.688E-02
RMM:   8    -0.710145306174E+03    0.44995E-05   -0.45404E-06  5879   0.437E-03
  46 F= -.71014531E+03 E0= -.70953424E+03  d E =-.655743E-02  mag=     6.8534
 curvature:  -0.05 expect dE=-0.109E-01 dE for cont linesearch -0.741E-05
 trial: gam= 1.11327 g(F)=  0.230E+00 g(S)=  0.000E+00 ort =-0.661E-02 (trialstep = 0.213E-01)
 search vector abs. value=  0.563E+00
 bond charge predicted
       N       E                     dE             d eps       ncg     rms          rms(c)
DAV:   1    -0.710149064036E+03   -0.37534E-02   -0.63452E-02 13808   0.398E-01    0.853E-02
RMM:   2    -0.710149320687E+03   -0.25665E-03   -0.12643E-03 13082   0.654E-02    0.185E-01
RMM:   3    -0.710149217417E+03    0.10327E-03   -0.20439E-04  7935   0.270E-02    0.937E-02
RMM:   4    -0.710149211018E+03    0.63993E-05   -0.51008E-05  7313   0.166E-02    0.650E-02
RMM:   5    -0.710149239818E+03   -0.28800E-04   -0.31223E-05  7210   0.106E-02    0.101E-01
RMM:   6    -0.710149226159E+03    0.13659E-04   -0.17700E-05  6637   0.861E-03    0.559E-02
RMM:   7    -0.710149229492E+03   -0.33328E-05   -0.90467E-06  6336   0.549E-03    0.386E-02
RMM:   8    -0.710149225598E+03    0.38933E-05   -0.41929E-06  5558   0.457E-03
  47 F= -.71014923E+03 E0= -.70953821E+03  d E =-.391942E-02  mag=     6.8521
 trial-energy change:   -0.003919  1 .order   -0.003862   -0.004733   -0.002991
 step:   0.0579(harm=  0.0579)  dis= 0.00379  next Energy=  -710.151736 (dE=-0.643E-02)
 bond charge predicted
       N       E                     dE             d eps       ncg     rms          rms(c)
DAV:   1    -0.710151198321E+03   -0.19688E-02   -0.18719E-01 13840   0.683E-01    0.106E-01
RMM:   2    -0.710151573262E+03   -0.37494E-03   -0.36177E-03 13420   0.111E-01    0.165E-01
RMM:   3    -0.710151631921E+03   -0.58660E-04   -0.55928E-04 11796   0.443E-02    0.119E-01
RMM:   4    -0.710151792999E+03   -0.16108E-03   -0.13693E-04  7920   0.224E-02    0.206E-01
RMM:   5    -0.710151622642E+03    0.17036E-03   -0.61734E-05  7549   0.171E-02    0.114E-01
RMM:   6    -0.710151603559E+03    0.19083E-04   -0.31119E-05  7273   0.104E-02    0.569E-02
RMM:   7    -0.710151613243E+03   -0.96847E-05   -0.20069E-05  6894   0.830E-03    0.421E-02
RMM:   8    -0.710151616791E+03   -0.35480E-05   -0.88042E-06  6427   0.616E-03
  48 F= -.71015162E+03 E0= -.70954071E+03  d E =-.631062E-02  mag=     6.8514
 curvature:  -0.07 expect dE=-0.728E-02 dE for cont linesearch -0.334E-04
 trial: gam= 0.23421 g(F)=  0.995E-01 g(S)=  0.000E+00 ort =-0.160E-01 (trialstep = 0.286E-01)
 search vector abs. value=  0.123E+00
 bond charge predicted
       N       E                     dE             d eps       ncg     rms          rms(c)
DAV:   1    -0.710153876066E+03   -0.22628E-02   -0.24552E-02 13920   0.252E-01    0.438E-02
RMM:   2    -0.710153946862E+03   -0.70797E-04   -0.52916E-04 10148   0.446E-02    0.722E-02
RMM:   3    -0.710153952819E+03   -0.59566E-05   -0.86881E-05  7347   0.197E-02    0.559E-02
RMM:   4    -0.710153971932E+03   -0.19114E-04   -0.22492E-05  7177   0.101E-02    0.813E-02
RMM:   5    -0.710153946970E+03    0.24962E-04   -0.79603E-06  6601   0.593E-03    0.270E-02
RMM:   6    -0.710153951028E+03   -0.40580E-05   -0.42407E-06  5393   0.425E-03    0.311E-02
RMM:   7    -0.710153953203E+03   -0.21742E-05   -0.24680E-06  4851   0.382E-03    0.144E-02
RMM:   8    -0.710153956798E+03   -0.35956E-05   -0.35666E-07  2301   0.277E-03
  49 F= -.71015396E+03 E0= -.70954308E+03  d E =-.234001E-02  mag=     6.8508
 trial-energy change:   -0.002340  1 .order   -0.002291   -0.002739   -0.001842
 step:   0.0874(harm=  0.0874)  dis= 0.00387  next Energy=  -710.155800 (dE=-0.418E-02)
 bond charge predicted
       N       E                     dE             d eps       ncg     rms          rms(c)
DAV:   1    -0.710155191410E+03   -0.12382E-02   -0.10334E-01 13808   0.517E-01    0.757E-02
RMM:   2    -0.710155413111E+03   -0.22170E-03   -0.21340E-03 13376   0.905E-02    0.116E-01
RMM:   3    -0.710155468646E+03   -0.55534E-04   -0.36561E-04  9708   0.353E-02    0.104E-01
RMM:   4    -0.710155501167E+03   -0.32521E-04   -0.85649E-05  7599   0.198E-02    0.136E-01
RMM:   5    -0.710155439439E+03    0.61728E-04   -0.30948E-05  7381   0.117E-02    0.791E-02
RMM:   6    -0.710155419859E+03    0.19581E-04   -0.16345E-05  6930   0.767E-03    0.398E-02
RMM:   7    -0.710155418662E+03    0.11968E-05   -0.10342E-05  6635   0.617E-03    0.233E-02
RMM:   8    -0.710155419519E+03   -0.85754E-06   -0.45362E-06  5937   0.461E-03
  50 F= -.71015542E+03 E0= -.70954461E+03  d E =-.380273E-02  mag=     6.8500
 curvature:  -0.06 expect dE=-0.263E-02 dE for cont linesearch -0.613E-04
 ZBRENT: interpolating
 opt :   0.0784  next Energy=  -710.155471 (dE=-0.385E-02)
 bond charge predicted
       N       E                     dE             d eps       ncg     rms          rms(c)
DAV:   1    -0.710155480241E+03   -0.61579E-04   -0.24378E-03 13824   0.796E-02    0.182E-02
RMM:   2    -0.710155537131E+03   -0.56890E-04   -0.57997E-05  7175   0.147E-02    0.920E-02
RMM:   3    -0.710155495505E+03    0.41626E-04   -0.11513E-05  6978   0.794E-03    0.330E-02
RMM:   4    -0.710155493458E+03    0.20472E-05   -0.18224E-06  4491   0.344E-03    0.963E-03
RMM:   5    -0.710155496435E+03   -0.29769E-05   -0.31653E-08  1368   0.253E-03    0.763E-03
RMM:   6    -0.710155501591E+03   -0.51554E-05   -0.15501E-07  1432   0.267E-03    0.122E-02
RMM:   7    -0.710155507265E+03   -0.56742E-05   -0.40498E-07  1818   0.287E-03    0.483E-03
RMM:   8    -0.710155509410E+03   -0.21452E-05   -0.16786E-07  1284   0.276E-03
  51 F= -.71015551E+03 E0= -.70954468E+03  d E =-.389262E-02  mag=     6.8496
 curvature:  -0.05 expect dE=-0.184E-02 dE for cont linesearch -0.472E-05
 trial: gam= 0.35938 g(F)=  0.388E-01 g(S)=  0.000E+00 ort =-0.350E-02 (trialstep = 0.386E-01)
 search vector abs. value=  0.521E-01
 bond charge predicted
       N       E                     dE             d eps       ncg     rms          rms(c)
DAV:   1    -0.710156247928E+03   -0.74066E-03   -0.18564E-02 13776   0.219E-01    0.296E-02
RMM:   2    -0.710156286941E+03   -0.39013E-04   -0.37685E-04  8885   0.376E-02    0.554E-02
RMM:   3    -0.710156288654E+03   -0.17125E-05   -0.54191E-05  7152   0.165E-02    0.267E-02
RMM:   4    -0.710156321023E+03   -0.32369E-04   -0.14726E-05  7071   0.785E-03    0.839E-02
RMM:   5    -0.710156284946E+03    0.36077E-04   -0.59721E-06  6320   0.543E-03    0.233E-02
RMM:   6    -0.710156284049E+03    0.89710E-06   -0.18205E-06  3606   0.324E-03    0.202E-02
RMM:   7    -0.710156281562E+03    0.24870E-05   -0.13295E-06  3531   0.323E-03    0.157E-02
RMM:   8    -0.710156280605E+03    0.95735E-06   -0.88898E-07  2496   0.293E-03
  52 F= -.71015628E+03 E0= -.70954545E+03  d E =-.771195E-03  mag=     6.8489
 trial-energy change:   -0.000771  1 .order   -0.000780   -0.001447   -0.000113
 step:   0.0418(harm=  0.0418)  dis= 0.00107  next Energy=  -710.156294 (dE=-0.785E-03)
 bond charge predicted
       N       E                     dE             d eps       ncg     rms          rms(c)
DAV:   1    -0.710156283833E+03   -0.22713E-05   -0.12298E-04  8992   0.183E-02    0.120E-02
RMM:   2    -0.710156289921E+03   -0.60875E-05   -0.73557E-06  6503   0.571E-03    0.298E-02
RMM:   3    -0.710156290083E+03   -0.16252E-06   -0.12288E-06  3708   0.322E-03    0.306E-02
RMM:   4    -0.710156287303E+03    0.27805E-05   -0.61445E-07  2511   0.278E-03    0.166E-02
RMM:   5    -0.710156288512E+03   -0.12089E-05   -0.37590E-10  1144   0.227E-03    0.149E-02
RMM:   6    -0.710156289238E+03   -0.72661E-06   -0.13155E-09   964   0.227E-03    0.111E-02
RMM:   7    -0.710156290237E+03   -0.99908E-06   -0.31820E-10   839   0.229E-03    0.670E-03
RMM:   8    -0.710156291256E+03   -0.10187E-05   -0.39141E-10   836   0.229E-03
  53 F= -.71015629E+03 E0= -.70954546E+03  d E =-.781846E-03  mag=     6.8483
 curvature:  -0.03 expect dE=-0.657E-03 dE for cont linesearch -0.219E-06
 trial: gam= 0.58900 g(F)=  0.226E-01 g(S)=  0.000E+00 ort =-0.627E-03 (trialstep = 0.392E-01)
 search vector abs. value=  0.400E-01
 bond charge predicted
       N       E                     dE             d eps       ncg     rms          rms(c)
DAV:   1    -0.710156951019E+03   -0.66078E-03   -0.14128E-02 13872   0.192E-01    0.274E-02
RMM:   2    -0.710156980973E+03   -0.29955E-04   -0.28720E-04  8170   0.335E-02    0.575E-02
RMM:   3    -0.710156982066E+03   -0.10930E-05   -0.41784E-05  7115   0.153E-02    0.290E-02
RMM:   4    -0.710156982606E+03   -0.53981E-06   -0.10707E-05  6978   0.668E-03    0.231E-02
RMM:   5    -0.710156985226E+03   -0.26200E-05   -0.36949E-06  6111   0.442E-03    0.301E-02
RMM:   6    -0.710156987996E+03   -0.27693E-05   -0.21375E-07  2124   0.257E-03    0.341E-02
RMM:   7    -0.710156986283E+03    0.17123E-05   -0.59445E-07  2615   0.290E-03    0.226E-02
RMM:   8    -0.710156987394E+03   -0.11113E-05   -0.49607E-07  2323   0.293E-03
  54 F= -.71015699E+03 E0= -.70954618E+03  d E =-.696138E-03  mag=     6.8480
 trial-energy change:   -0.000696  1 .order   -0.000688   -0.000873   -0.000502
 step:   0.0924(harm=  0.0924)  dis= 0.00130  next Energy=  -710.157320 (dE=-0.103E-02)
 bond charge predicted
       N       E                     dE             d eps       ncg     rms          rms(c)
DAV:   1    -0.710157233959E+03   -0.24768E-03   -0.25762E-02 13888   0.259E-01    0.408E-02
RMM:   2    -0.710157290435E+03   -0.56476E-04   -0.52398E-04 10835   0.454E-02    0.813E-02
RMM:   3    -0.710157293593E+03   -0.31576E-05   -0.88260E-05  7242   0.194E-02    0.508E-02
RMM:   4    -0.710157333177E+03   -0.39585E-04   -0.23677E-05  7185   0.105E-02    0.958E-02
RMM:   5    -0.710157292395E+03    0.40783E-04   -0.91931E-06  6757   0.635E-03    0.416E-02
RMM:   6    -0.710157294148E+03   -0.17533E-05   -0.30732E-06  5085   0.375E-03    0.454E-02
RMM:   7    -0.710157298617E+03   -0.44695E-05   -0.28805E-06  5009   0.364E-03    0.404E-02
RMM:   8    -0.710157297637E+03    0.98078E-06   -0.23116E-06  4663   0.345E-03
  55 F= -.71015730E+03 E0= -.70954647E+03  d E =-.100638E-02  mag=     6.8479
 curvature:  -0.08 expect dE=-0.157E-02 dE for cont linesearch -0.221E-06
 trial: gam= 0.86930 g(F)=  0.189E-01 g(S)=  0.000E+00 ort =-0.326E-03 (trialstep = 0.411E-01)
 search vector abs. value=  0.485E-01
 bond charge predicted
       N       E                     dE             d eps       ncg     rms          rms(c)
DAV:   1    -0.710157956967E+03   -0.65835E-03   -0.18226E-02 13984   0.215E-01    0.436E-02
RMM:   2    -0.710157998820E+03   -0.41853E-04   -0.37328E-04  9000   0.383E-02    0.585E-02
RMM:   3    -0.710158010635E+03   -0.11815E-04   -0.62547E-05  7195   0.174E-02    0.563E-02
RMM:   4    -0.710158020009E+03   -0.93742E-05   -0.17697E-05  7124   0.895E-03    0.664E-02
RMM:   5    -0.710158004729E+03    0.15280E-04   -0.92312E-06  6735   0.648E-03    0.358E-02
RMM:   6    -0.710158004389E+03    0.33999E-06   -0.45787E-06  5668   0.443E-03    0.252E-02
RMM:   7    -0.710158003851E+03    0.53810E-06   -0.17530E-06  4189   0.348E-03    0.141E-02
RMM:   8    -0.710158003667E+03    0.18353E-06   -0.11243E-07  1796   0.271E-03
  56 F= -.71015800E+03 E0= -.70954721E+03  d E =-.706031E-03  mag=     6.8480
 ZBRENT: can't locate minimum, use default step
 trial-energy change:   -0.000706  1 .order   -0.000697   -0.000764   -0.000630
 step:   0.1643(harm=  0.2334)  dis= 0.00292  next Energy=  -710.159469 (dE=-0.217E-02)
 bond charge predicted
       N       E                     dE             d eps       ncg     rms          rms(c)
DAV:   1    -0.710158532026E+03   -0.52818E-03   -0.16444E-01 13712   0.645E-01    0.857E-02
RMM:   2    -0.710158858352E+03   -0.32633E-03   -0.32315E-03 13419   0.114E-01    0.122E-01
RMM:   3    -0.710158927741E+03   -0.69389E-04   -0.62423E-04 12481   0.450E-02    0.104E-01
RMM:   4    -0.710158983846E+03   -0.56105E-04   -0.11985E-04  7913   0.219E-02    0.139E-01
RMM:   5    -0.710158916191E+03    0.67655E-04   -0.50594E-05  7642   0.158E-02    0.960E-02
RMM:   6    -0.710158899009E+03    0.17181E-04   -0.27926E-05  7460   0.964E-03    0.562E-02
RMM:   7    -0.710158895640E+03    0.33694E-05   -0.24377E-05  7305   0.881E-03    0.373E-02
RMM:   8    -0.710158893192E+03    0.24477E-05   -0.10931E-05  6527   0.681E-03
[...]
DAV:   1    -0.710163344782E+03   -0.13355E-04   -0.14687E-03 13088   0.571E-02    0.110E-02
RMM:   2    -0.710163349075E+03   -0.42929E-05   -0.29712E-05  7084   0.106E-02    0.206E-02
RMM:   3    -0.710163348171E+03    0.90438E-06   -0.51271E-06  6919   0.550E-03    0.807E-03
RMM:   4    -0.710163351199E+03   -0.30280E-05   -0.28257E-07  2273   0.263E-03    0.247E-02
RMM:   5    -0.710163348041E+03    0.31577E-05   -0.10647E-08  1594   0.251E-03    0.748E-03
RMM:   6    -0.710163348080E+03   -0.38541E-07   -0.29421E-09  1026   0.243E-03    0.681E-03
RMM:   7    -0.710163348281E+03   -0.20167E-06   -0.66726E-10   916   0.240E-03    0.537E-03
RMM:   8    -0.710163348544E+03   -0.26250E-06   -0.11515E-09   739   0.243E-03
  74 F= -.71016335E+03 E0= -.70955257E+03  d E =-.172029E-03  mag=     6.8506
 curvature:  -0.11 expect dE=-0.370E-03 dE for cont linesearch -0.109E-06
 trial: gam= 0.37613 g(F)=  0.335E-02 g(S)=  0.000E+00 ort = 0.139E-03 (trialstep = 0.484E-01)
 search vector abs. value=  0.621E-02
 bond charge predicted
       N       E                     dE             d eps       ncg     rms          rms(c)
DAV:   1    -0.710163463477E+03   -0.11520E-03   -0.33945E-03 13360   0.869E-02    0.141E-02
RMM:   2    -0.710163470802E+03   -0.73252E-05   -0.68089E-05  7111   0.164E-02    0.231E-02
RMM:   3    -0.710163471981E+03   -0.11787E-05   -0.10909E-05  6984   0.788E-03    0.198E-02
RMM:   4    -0.710163472492E+03   -0.51122E-06   -0.24524E-06  5176   0.365E-03    0.202E-02
RMM:   5    -0.710163472005E+03    0.48707E-06   -0.33690E-07  2531   0.293E-03    0.148E-02
RMM:   6    -0.710163472394E+03   -0.38936E-06   -0.99699E-08  1733   0.284E-03    0.806E-03
RMM:   7    -0.710163473046E+03   -0.65137E-06   -0.28699E-07  1770   0.296E-03    0.542E-03
RMM:   8    -0.710163473982E+03   -0.93665E-06   -0.39614E-07  1654   0.292E-03
  75 F= -.71016347E+03 E0= -.70955268E+03  d E =-.125438E-03  mag=     6.8508
 trial-energy change:   -0.000125  1 .order   -0.000120   -0.000165   -0.000075
 step:   0.0884(harm=  0.0884)  dis= 0.00044  next Energy=  -710.163499 (dE=-0.150E-03)
 bond charge predicted
       N       E                     dE             d eps       ncg     rms          rms(c)
DAV:   1    -0.710163500403E+03   -0.27357E-04   -0.23035E-03 13120   0.717E-02    0.128E-02
RMM:   2    -0.710163508033E+03   -0.76305E-05   -0.47497E-05  7064   0.133E-02    0.267E-02
RMM:   3    -0.710163507649E+03    0.38462E-06   -0.77264E-06  6970   0.653E-03    0.221E-02
RMM:   4    -0.710163506291E+03    0.13573E-05   -0.92248E-07  3260   0.309E-03    0.102E-02
RMM:   5    -0.710163507367E+03   -0.10756E-05   -0.86882E-08  2020   0.280E-03    0.118E-02
RMM:   6    -0.710163508439E+03   -0.10718E-05   -0.12956E-08  1464   0.273E-03    0.137E-02
RMM:   7    -0.710163507921E+03    0.51803E-06   -0.20702E-08  1112   0.278E-03    0.547E-03
RMM:   8    -0.710163508489E+03   -0.56782E-06   -0.22114E-08   976   0.281E-03
  76 F= -.71016351E+03 E0= -.70955271E+03  d E =-.159945E-03  mag=     6.8509
 curvature:  -0.08 expect dE=-0.261E-03 dE for cont linesearch -0.403E-08
 trial: gam= 0.91472 g(F)=  0.323E-02 g(S)=  0.000E+00 ort =-0.176E-04 (trialstep = 0.417E-01)
 search vector abs. value=  0.839E-02
 bond charge predicted
       N       E                     dE             d eps       ncg     rms          rms(c)
DAV:   1    -0.710163599444E+03   -0.91524E-04   -0.32932E-03 13552   0.836E-02    0.155E-02
RMM:   2    -0.710163606199E+03   -0.67551E-05   -0.68487E-05  7067   0.168E-02    0.235E-02
RMM:   3    -0.710163607332E+03   -0.11330E-05   -0.11206E-05  6980   0.792E-03    0.161E-02
RMM:   4    -0.710163612170E+03   -0.48375E-05   -0.32017E-06  5800   0.385E-03    0.357E-02
RMM:   5    -0.710163606750E+03    0.54194E-05   -0.60065E-07  3010   0.309E-03    0.145E-02
RMM:   6    -0.710163607218E+03   -0.46720E-06   -0.12926E-07  1796   0.282E-03    0.950E-03
RMM:   7    -0.710163607398E+03   -0.18049E-06   -0.27444E-07  1801   0.288E-03    0.846E-03
RMM:   8    -0.710163607376E+03    0.22323E-07   -0.32368E-07  1557   0.281E-03
  77 F= -.71016361E+03 E0= -.70955280E+03  d E =-.988873E-04  mag=     6.8510
 trial-energy change:   -0.000099  1 .order   -0.000094   -0.000134   -0.000054
 step:   0.0694(harm=  0.0694)  dis= 0.00050  next Energy=  -710.163620 (dE=-0.112E-03)
 bond charge predicted
       N       E                     dE             d eps       ncg     rms          rms(c)
DAV:   1    -0.710163623390E+03   -0.15992E-04   -0.14454E-03 13200   0.554E-02    0.109E-02
RMM:   2    -0.710163626415E+03   -0.30248E-05   -0.30855E-05  7005   0.110E-02    0.157E-02
RMM:   3    -0.710163627474E+03   -0.10590E-05   -0.51339E-06  6872   0.535E-03    0.143E-02
RMM:   4    -0.710163628281E+03   -0.80738E-06   -0.38475E-07  2463   0.263E-03    0.200E-02
RMM:   5    -0.710163626770E+03    0.15109E-05   -0.19685E-08  1626   0.250E-03    0.804E-03
RMM:   6    -0.710163626812E+03   -0.41131E-07   -0.23724E-09  1250   0.244E-03    0.452E-03
RMM:   7    -0.710163626909E+03   -0.97752E-07   -0.87920E-09   860   0.250E-03    0.532E-03
RMM:   8    -0.710163626968E+03   -0.58324E-07   -0.49150E-09   769   0.251E-03
  78 F= -.71016363E+03 E0= -.70955283E+03  d E =-.118479E-03  mag=     6.8511
 curvature:  -0.09 expect dE=-0.282E-03 dE for cont linesearch -0.131E-07
 trial: gam= 0.97018 g(F)=  0.311E-02 g(S)=  0.000E+00 ort =-0.348E-04 (trialstep = 0.363E-01)
 search vector abs. value=  0.109E-01
 bond charge predicted
       N       E                     dE             d eps       ncg     rms          rms(c)
DAV:   1    -0.710163711126E+03   -0.84216E-04   -0.30955E-03 13456   0.778E-02    0.154E-02
RMM:   2    -0.710163717018E+03   -0.58917E-05   -0.61953E-05  7062   0.161E-02    0.207E-02
RMM:   3    -0.710163717506E+03   -0.48801E-06   -0.10519E-05  6924   0.764E-03    0.145E-02
RMM:   4    -0.710163722265E+03   -0.47591E-05   -0.29310E-06  5382   0.375E-03    0.328E-02
RMM:   5    -0.710163717479E+03    0.47860E-05   -0.67170E-07  3041   0.311E-03    0.155E-02
RMM:   6    -0.710163717507E+03   -0.27889E-07   -0.79020E-08  1835   0.290E-03    0.901E-03
RMM:   7    -0.710163718023E+03   -0.51677E-06   -0.23670E-07  1773   0.293E-03    0.100E-02
RMM:   8    -0.710163717774E+03    0.24968E-06   -0.32713E-07  1562   0.290E-03
  79 F= -.71016372E+03 E0= -.70955291E+03  d E =-.908059E-04  mag=     6.8512
 trial-energy change:   -0.000091  1 .order   -0.000086   -0.000112   -0.000059
 step:   0.0777(harm=  0.0777)  dis= 0.00048  next Energy=  -710.163746 (dE=-0.119E-03)
 bond charge predicted
       N       E                     dE             d eps       ncg     rms          rms(c)
DAV:   1    -0.710163746998E+03   -0.28974E-04   -0.40197E-03 13856   0.888E-02    0.179E-02
RMM:   2    -0.710163754631E+03   -0.76339E-05   -0.78173E-05  7107   0.177E-02    0.238E-02
RMM:   3    -0.710163759011E+03   -0.43797E-05   -0.13465E-05  6996   0.859E-03    0.307E-02
RMM:   4    -0.710163756282E+03    0.27295E-05   -0.40296E-06  6049   0.420E-03    0.248E-02
RMM:   5    -0.710163756547E+03   -0.26553E-06   -0.11046E-06  3529   0.323E-03    0.209E-02
RMM:   6    -0.710163754361E+03    0.21862E-05   -0.22352E-07  2247   0.295E-03    0.670E-03
RMM:   7    -0.710163755036E+03   -0.67546E-06   -0.30102E-07  1963   0.296E-03    0.816E-03
RMM:   8    -0.710163754810E+03    0.22611E-06   -0.34249E-07  1774   0.286E-03
  80 F= -.71016375E+03 E0= -.70955295E+03  d E =-.127843E-03  mag=     6.8512
 curvature:  -0.14 expect dE=-0.281E-03 dE for cont linesearch -0.141E-07
 trial: gam= 0.53407 g(F)=  0.204E-02 g(S)=  0.000E+00 ort =-0.334E-04 (trialstep = 0.445E-01)
 search vector abs. value=  0.512E-02
 bond charge predicted
       N       E                     dE             d eps       ncg     rms          rms(c)
DAV:   1    -0.710163833097E+03   -0.78061E-04   -0.20653E-03 13264   0.595E-02    0.127E-02
RMM:   2    -0.710163836688E+03   -0.35906E-05   -0.37662E-05  7095   0.123E-02    0.196E-02
RMM:   3    -0.710163836263E+03    0.42497E-06   -0.68472E-06  6892   0.612E-03    0.938E-03
RMM:   4    -0.710163838486E+03   -0.22229E-05   -0.10209E-06  3264   0.304E-03    0.239E-02
RMM:   5    -0.710163836216E+03    0.22698E-05   -0.51026E-08  1779   0.272E-03    0.110E-02
RMM:   6    -0.710163836845E+03   -0.62958E-06   -0.38374E-08  1442   0.274E-03    0.128E-02
RMM:   7    -0.710163836372E+03    0.47380E-06   -0.12227E-07  1374   0.281E-03    0.921E-03
RMM:   8    -0.710163836224E+03    0.14710E-06   -0.19316E-07  1224   0.287E-03
  81 F= -.71016384E+03 E0= -.70955304E+03  d E =-.814143E-04  mag=     6.8513
 trial-energy change:   -0.000081  1 .order   -0.000078   -0.000090   -0.000067
 step:   0.1746(harm=  0.1746)  dis= 0.00083  next Energy=  -710.163931 (dE=-0.176E-03)
 bond charge predicted
       N       E                     dE             d eps       ncg     rms          rms(c)
DAV:   1    -0.710163930107E+03   -0.93735E-04   -0.17457E-02 13776   0.173E-01    0.383E-02
RMM:   2    -0.710163957264E+03   -0.27157E-04   -0.30760E-04  9179   0.351E-02    0.467E-02
RMM:   3    -0.710163963205E+03   -0.59413E-05   -0.57232E-05  7187   0.164E-02    0.425E-02
RMM:   4    -0.710163992240E+03   -0.29035E-04   -0.19786E-05  7069   0.896E-03    0.870E-02
RMM:   5    -0.710163954736E+03    0.37503E-04   -0.83165E-06  6344   0.611E-03    0.276E-02
RMM:   6    -0.710163954834E+03   -0.97985E-07   -0.53609E-06  6254   0.442E-03    0.160E-02
RMM:   7    -0.710163954288E+03    0.54670E-06   -0.12416E-06  3427   0.319E-03    0.887E-03
RMM:   8    -0.710163954004E+03    0.28354E-06   -0.16992E-07  2097   0.284E-03
  82 F= -.71016395E+03 E0= -.70955317E+03  d E =-.199194E-03  mag=     6.8516
 curvature:  -0.22 expect dE=-0.698E-03 dE for cont linesearch -0.245E-05
 trial: gam= 1.42109 g(F)=  0.315E-02 g(S)=  0.000E+00 ort = 0.238E-03 (trialstep = 0.255E-01)
 search vector abs. value=  0.142E-01
 bond charge predicted
       N       E                     dE             d eps       ncg     rms          rms(c)
DAV:   1    -0.710164024722E+03   -0.70434E-04   -0.18508E-03 13264   0.555E-02    0.143E-02
RMM:   2    -0.710164028341E+03   -0.36185E-05   -0.33606E-05  7086   0.116E-02    0.273E-02
RMM:   3    -0.710164027311E+03    0.10302E-05   -0.65315E-06  6812   0.595E-03    0.142E-02
RMM:   4    -0.710164028597E+03   -0.12864E-05   -0.74380E-07  2783   0.288E-03    0.187E-02
RMM:   5    -0.710164028168E+03    0.42862E-06   -0.24951E-07  2291   0.280E-03    0.178E-02
RMM:   6    -0.710164026759E+03    0.14093E-05   -0.35586E-08  1505   0.273E-03    0.963E-03
RMM:   7    -0.710164026619E+03    0.14008E-06   -0.67325E-08  1298   0.278E-03    0.776E-03
RMM:   8    -0.710164026439E+03    0.17967E-06   -0.23350E-07  1385   0.287E-03
  83 F= -.71016403E+03 E0= -.70955326E+03  d E =-.724351E-04  mag=     6.8519
 trial-energy change:   -0.000072  1 .order   -0.000071   -0.000089   -0.000053
 step:   0.0625(harm=  0.0625)  dis= 0.00059  next Energy=  -710.164063 (dE=-0.109E-03)
 bond charge predicted
       N       E                     dE             d eps       ncg     rms          rms(c)
DAV:   1    -0.710164068581E+03   -0.41962E-04   -0.39116E-03 13824   0.804E-02    0.196E-02
RMM:   2    -0.710164075708E+03   -0.71274E-05   -0.70131E-05  7116   0.166E-02    0.285E-02
RMM:   3    -0.710164075745E+03   -0.36889E-07   -0.12352E-05  6980   0.812E-03    0.200E-02
RMM:   4    -0.710164079473E+03   -0.37278E-05   -0.36786E-06  5692   0.394E-03    0.317E-02
RMM:   5    -0.710164076142E+03    0.33310E-05   -0.17103E-06  4420   0.336E-03    0.226E-02
RMM:   6    -0.710164075405E+03    0.73681E-06   -0.52450E-07  2670   0.292E-03    0.128E-02
RMM:   7    -0.710164075121E+03    0.28359E-06   -0.33968E-07  1978   0.283E-03    0.743E-03
RMM:   8    -0.710164075208E+03   -0.86795E-07   -0.22193E-07  1418   0.276E-03
  84 F= -.71016408E+03 E0= -.70955331E+03  d E =-.121204E-03  mag=     6.8520
 curvature:  -0.13 expect dE=-0.372E-03 dE for cont linesearch -0.421E-06
 trial: gam= 0.90405 g(F)=  0.293E-02 g(S)=  0.000E+00 ort = 0.217E-03 (trialstep = 0.313E-01)
 search vector abs. value=  0.149E-01
 bond charge predicted
       N       E                     dE             d eps       ncg     rms          rms(c)
DAV:   1    -0.710164153822E+03   -0.78701E-04   -0.29308E-03 13808   0.690E-02    0.162E-02
RMM:   2    -0.710164158126E+03   -0.43036E-05   -0.49894E-05  7069   0.140E-02    0.161E-02
RMM:   3    -0.710164158676E+03   -0.55006E-06   -0.87592E-06  6873   0.686E-03    0.125E-02
RMM:   4    -0.710164164972E+03   -0.62960E-05   -0.21183E-06  4148   0.343E-03    0.369E-02
RMM:   5    -0.710164157878E+03    0.70942E-05   -0.47304E-07  2705   0.293E-03    0.134E-02
RMM:   6    -0.710164157978E+03   -0.10026E-06   -0.27291E-07  1924   0.283E-03    0.505E-03
RMM:   7    -0.710164157907E+03    0.70759E-07   -0.13477E-07  1431   0.277E-03    0.481E-03
RMM:   8    -0.710164158046E+03   -0.13936E-06   -0.16338E-07  1215   0.272E-03
  85 F= -.71016416E+03 E0= -.70955340E+03  d E =-.828383E-04  mag=     6.8522
 trial-energy change:   -0.000083  1 .order   -0.000079   -0.000098   -0.000060
 step:   0.0811(harm=  0.0811)  dis= 0.00085  next Energy=  -710.164202 (dE=-0.127E-03)
 bond charge predicted
       N       E                     dE             d eps       ncg     rms          rms(c)
DAV:   1    -0.710164202047E+03   -0.44140E-04   -0.74072E-03 13856   0.110E-01    0.262E-02
RMM:   2    -0.710164225416E+03   -0.23370E-04   -0.12526E-04  7339   0.219E-02    0.587E-02
RMM:   3    -0.710164217455E+03    0.79613E-05   -0.24407E-05  7083   0.111E-02    0.371E-02
RMM:   4    -0.710164214953E+03    0.25018E-05   -0.79998E-06  6455   0.578E-03    0.287E-02
RMM:   5    -0.710164213945E+03    0.10088E-05   -0.38302E-06  5885   0.436E-03    0.244E-02
RMM:   6    -0.710164211739E+03    0.22055E-05   -0.13109E-06  3489   0.326E-03    0.135E-02
RMM:   7    -0.710164211312E+03    0.42745E-06   -0.61833E-07  2498   0.300E-03    0.638E-03
RMM:   8    -0.710164211464E+03   -0.15239E-06   -0.31666E-07  1931   0.277E-03
  86 F= -.71016421E+03 E0= -.70955343E+03  d E =-.136256E-03  mag=     6.8524
 curvature:  -0.19 expect dE=-0.384E-03 dE for cont linesearch -0.818E-07
 trial: gam= 0.67965 g(F)=  0.199E-02 g(S)=  0.000E+00 ort = 0.794E-04 (trialstep = 0.413E-01)
 search vector abs. value=  0.898E-02
 bond charge predicted
       N       E                     dE             d eps       ncg     rms          rms(c)
DAV:   1    -0.710164278441E+03   -0.67130E-04   -0.30869E-03 13760   0.714E-02    0.177E-02
RMM:   2    -0.710164285679E+03   -0.72373E-05   -0.53167E-05  7117   0.142E-02    0.317E-02
RMM:   3    -0.710164286982E+03   -0.13032E-05   -0.10407E-05  6992   0.741E-03    0.294E-02
RMM:   4    -0.710164283755E+03    0.32267E-05   -0.22427E-06  4367   0.356E-03    0.200E-02
RMM:   5    -0.710164283834E+03   -0.79257E-07   -0.76844E-07  3069   0.304E-03    0.147E-02
RMM:   6    -0.710164283175E+03    0.65947E-06   -0.38429E-07  2223   0.292E-03    0.962E-03
RMM:   7    -0.710164283172E+03    0.25175E-08   -0.37044E-07  1817   0.288E-03    0.356E-03
RMM:   8    -0.710164283540E+03   -0.36757E-06   -0.40060E-07  1598   0.280E-03
  87 F= -.71016428E+03 E0= -.70955351E+03  d E =-.720759E-04  mag=     6.8525
 trial-energy change:   -0.000072  1 .order   -0.000066   -0.000084   -0.000048
 step:   0.0964(harm=  0.0964)  dis= 0.00081  next Energy=  -710.164310 (dE=-0.984E-04)
 bond charge predicted
       N       E                     dE             d eps       ncg     rms          rms(c)
DAV:   1    -0.710164319378E+03   -0.36205E-04   -0.55004E-03 13808   0.953E-02    0.230E-02
RMM:   2    -0.710164329857E+03   -0.10479E-04   -0.93118E-05  7188   0.187E-02    0.319E-02
RMM:   3    -0.710164342822E+03   -0.12965E-04   -0.17800E-05  7069   0.950E-03    0.558E-02
RMM:   4    -0.710164326736E+03    0.16086E-04   -0.54787E-06  6198   0.485E-03    0.164E-02
RMM:   5    -0.710164329222E+03   -0.24859E-05   -0.19620E-06  4382   0.359E-03    0.198E-02
RMM:   6    -0.710164327609E+03    0.16132E-05   -0.93180E-07  3263   0.309E-03    0.629E-03
RMM:   7    -0.710164327996E+03   -0.38717E-06   -0.41548E-07  1967   0.278E-03    0.474E-03
RMM:   8    -0.710164328176E+03   -0.17983E-06   -0.67701E-08  1357   0.257E-03
  88 F= -.71016433E+03 E0= -.70955355E+03  d E =-.116712E-03  mag=     6.8525
 curvature:  -0.21 expect dE=-0.325E-03 dE for cont linesearch -0.356E-06
 trial: gam= 0.60039 g(F)=  0.153E-02 g(S)=  0.000E+00 ort = 0.123E-03 (trialstep = 0.523E-01)
 search vector abs. value=  0.492E-02
 bond charge predicted
       N       E                     dE             d eps       ncg     rms          rms(c)
DAV:   1    -0.710164371146E+03   -0.43150E-04   -0.28737E-03 13552   0.756E-02    0.153E-02
RMM:   2    -0.710164377191E+03   -0.60449E-05   -0.54827E-05  7066   0.147E-02    0.258E-02
RMM:   3    -0.710164377536E+03   -0.34536E-06   -0.92781E-06  6959   0.718E-03    0.200E-02
RMM:   4    -0.710164378570E+03   -0.10339E-05   -0.18331E-06  4263   0.337E-03    0.231E-02
RMM:   5    -0.710164376628E+03    0.19420E-05   -0.53179E-07  2717   0.305E-03    0.128E-02
RMM:   6    -0.710164376800E+03   -0.17158E-06   -0.68101E-08  1626   0.286E-03    0.791E-03
RMM:   7    -0.710164376720E+03    0.79213E-07   -0.23632E-07  1607   0.291E-03    0.538E-03
RMM:   8    -0.710164376823E+03   -0.10207E-06   -0.31352E-07  1526   0.288E-03
  89 F= -.71016438E+03 E0= -.70955360E+03  d E =-.486468E-04  mag=     6.8525
 trial-energy change:   -0.000049  1 .order   -0.000045   -0.000084   -0.000006
 step:   0.0562(harm=  0.0562)  dis= 0.00032  next Energy=  -710.164373 (dE=-0.452E-04)
 bond charge predicted
       N       E                     dE             d eps       ncg     rms          rms(c)
DAV:   1    -0.710164376921E+03   -0.20076E-06   -0.18263E-05  7584   0.646E-03    0.429E-03
RMM:   2    -0.710164381947E+03   -0.50253E-05   -0.16006E-06  4326   0.334E-03    0.294E-02
RMM:   3    -0.710164376342E+03    0.56045E-05   -0.11271E-08  1399   0.249E-03    0.663E-03
RMM:   4    -0.710164377017E+03   -0.67525E-06   -0.44283E-09   884   0.244E-03    0.535E-03
RMM:   5    -0.710164377186E+03   -0.16829E-06    0.00000E+00   715   0.242E-03    0.673E-03
RMM:   6    -0.710164377158E+03    0.27860E-07    0.00000E+00   660   0.244E-03    0.586E-03
RMM:   7    -0.710164377205E+03   -0.47461E-07   -0.23697E-08   911   0.255E-03    0.169E-03
RMM:   8    -0.710164377316E+03   -0.11094E-06   -0.64293E-08  1001   0.258E-03
  90 F= -.71016438E+03 E0= -.70955360E+03  d E =-.491403E-04  mag=     6.8526
 curvature:  -0.09 expect dE=-0.772E-04 dE for cont linesearch -0.342E-07
 trial: gam= 0.56498 g(F)=  0.897E-03 g(S)=  0.000E+00 ort =-0.442E-04 (trialstep = 0.531E-01)
 search vector abs. value=  0.242E-02
 bond charge predicted
       N       E                     dE             d eps       ncg     rms          rms(c)
DAV:   1    -0.710164397474E+03   -0.20269E-04   -0.15242E-03 13216   0.579E-02    0.979E-03
RMM:   2    -0.710164401052E+03   -0.35775E-05   -0.31278E-05  7045   0.112E-02    0.211E-02
RMM:   3    -0.710164400031E+03    0.10213E-05   -0.51064E-06  6899   0.537E-03    0.109E-02
RMM:   4    -0.710164400755E+03   -0.72440E-06   -0.11412E-07  1859   0.251E-03    0.122E-02
RMM:   5    -0.710164400087E+03    0.66778E-06   -0.41943E-08  1592   0.254E-03    0.956E-03
RMM:   6    -0.710164399736E+03    0.35134E-06   -0.31026E-08  1214   0.258E-03    0.464E-03
RMM:   7    -0.710164399468E+03    0.26829E-06   -0.63294E-08  1135   0.264E-03    0.323E-03
RMM:   8    -0.710164399371E+03    0.96625E-07   -0.87721E-08  1077   0.270E-03
  91 F= -.71016440E+03 E0= -.70955361E+03  d E =-.220549E-04  mag=     6.8525
 trial-energy change:   -0.000022  1 .order   -0.000023   -0.000046    0.000001
 step:   0.0517(harm=  0.0517)  dis= 0.00017  next Energy=  -710.164400 (dE=-0.225E-04)
 reached required accuracy - stopping structural energy minimisation
 writing wavefunctions
