       N       E                     dE             d eps       ncg     rms          rms(c)
DAV:   1     0.764270527194E+04    0.76427E+04   -0.29975E+05 15152   0.126E+03
DAV:   2     0.609645591325E+03   -0.70331E+04   -0.63516E+04 16048   0.375E+02
DAV:   3    -0.758279831609E+03   -0.13679E+04   -0.13153E+04 18720   0.166E+02
DAV:   4    -0.833146687190E+03   -0.74867E+02   -0.72964E+02 20576   0.431E+01
DAV:   5    -0.834769880589E+03   -0.16232E+01   -0.15952E+01 19328   0.588E+00    0.187E+02
RMM:   6    -0.698010392689E+03    0.13676E+03   -0.63304E+02 14894   0.403E+01    0.171E+02
RMM:   7    -0.147187841677E+04   -0.77387E+03   -0.42060E+02 16609   0.277E+01    0.384E+02
RMM:   8    -0.134465884688E+04    0.12722E+03   -0.12157E+02 19053   0.114E+01    0.364E+02
RMM:   9    -0.138262474126E+04   -0.37966E+02   -0.55463E+01 15459   0.104E+01    0.375E+02
RMM:  10    -0.114884787730E+04    0.23378E+03   -0.61200E+02 22661   0.284E+01    0.341E+02
RMM:  11    -0.123516077040E+04   -0.86313E+02   -0.80619E+01 17442   0.972E+00    0.307E+02
RMM:  12    -0.121313348660E+04    0.22027E+02   -0.26662E+02 20368   0.149E+01    0.182E+02
RMM:  13    -0.112581914174E+04    0.87314E+02   -0.31537E+02 22864   0.216E+01    0.245E+02
RMM:  14    -0.888756364735E+03    0.23706E+03   -0.22305E+01 15643   0.727E+00    0.166E+02
RMM:  15    -0.696150500610E+03    0.19261E+03   -0.75438E+01 18897   0.110E+01    0.139E+02
RMM:  16    -0.632868790479E+03    0.63282E+02   -0.28493E+01 16767   0.748E+00    0.115E+02
RMM:  17    -0.645371032204E+03   -0.12502E+02   -0.14368E+01 15691   0.576E+00    0.105E+02
RMM:  18    -0.640279666721E+03    0.50914E+01   -0.37714E+00 17286   0.276E+00    0.101E+02
RMM:  19    -0.637522117018E+03    0.27575E+01   -0.21335E+00 15317   0.226E+00    0.933E+01
RMM:  20    -0.631803331263E+03    0.57188E+01   -0.28461E+00 16248   0.242E+00    0.852E+01
RMM:  21    -0.626901913727E+03    0.49014E+01   -0.41605E+00 18136   0.290E+00    0.698E+01
RMM:  22    -0.626228168892E+03    0.67374E+00   -0.24166E+00 16619   0.230E+00    0.593E+01
RMM:  23    -0.629013181773E+03   -0.27850E+01   -0.16983E+00 15919   0.196E+00    0.530E+01
RMM:  24    -0.634649781573E+03   -0.56366E+01   -0.18922E+00 16671   0.207E+00    0.469E+01
RMM:  25    -0.645193950444E+03   -0.10544E+02   -0.57041E+00 19428   0.334E+00    0.316E+01
RMM:  26    -0.654889237763E+03   -0.96953E+01   -0.42953E+00 18940   0.294E+00    0.217E+01
RMM:  27    -0.661445454946E+03   -0.65562E+01   -0.21740E+00 16681   0.206E+00    0.152E+01
RMM:  28    -0.669593551800E+03   -0.81481E+01   -0.32758E+00 17471   0.243E+00    0.136E+01
RMM:  29    -0.674609220440E+03   -0.50157E+01   -0.24636E+00 18143   0.220E+00    0.160E+01
RMM:  30    -0.674554134732E+03    0.55086E-01   -0.10382E+00 16220   0.141E+00    0.151E+01
RMM:  31    -0.678177337636E+03   -0.36232E+01   -0.14338E+00 17376   0.173E+00    0.190E+01
RMM:  32    -0.678577491142E+03   -0.40015E+00   -0.43612E-01 15520   0.108E+00    0.169E+01
RMM:  33    -0.678751386874E+03   -0.17390E+00   -0.33963E-01 15510   0.890E-01    0.138E+01
RMM:  34    -0.679690679999E+03   -0.93929E+00   -0.25521E-01 15454   0.798E-01    0.167E+01
RMM:  35    -0.680378240513E+03   -0.68756E+00   -0.27815E-01 16182   0.801E-01    0.175E+01
RMM:  36    -0.680947811713E+03   -0.56957E+00   -0.24497E-01 16260   0.748E-01    0.176E+01
RMM:  37    -0.682427295517E+03   -0.14795E+01   -0.34183E-01 17676   0.826E-01    0.169E+01
RMM:  38    -0.683063798111E+03   -0.63650E+00   -0.25545E-01 17167   0.738E-01    0.130E+01
RMM:  39    -0.683497660271E+03   -0.43386E+00   -0.15714E-01 15670   0.592E-01    0.115E+01
RMM:  40    -0.685075018385E+03   -0.15774E+01   -0.19908E-01 16893   0.612E-01    0.112E+01
RMM:  41    -0.685631636543E+03   -0.55662E+00   -0.77538E-02 15163   0.431E-01    0.109E+01
RMM:  42    -0.688690842718E+03   -0.30592E+01   -0.33563E-01 18959   0.733E-01    0.106E+01
RMM:  43    -0.690015782832E+03   -0.13249E+01   -0.97631E-01 22226   0.126E+00    0.949E+00
RMM:  44    -0.690426963801E+03   -0.41118E+00   -0.42166E-01 20051   0.824E-01    0.775E+00
RMM:  45    -0.690963196669E+03   -0.53623E+00   -0.28525E-02 15092   0.278E-01    0.791E+00
RMM:  46    -0.691441507934E+03   -0.47831E+00   -0.35977E-02 15605   0.271E-01    0.747E+00
RMM:  47    -0.691803007261E+03   -0.36150E+00   -0.89046E-02 18387   0.381E-01    0.543E+00
RMM:  48    -0.692730298882E+03   -0.92729E+00   -0.11837E-01 19046   0.409E-01    0.536E+00
RMM:  49    -0.693225083568E+03   -0.49478E+00   -0.43466E-02 16972   0.280E-01    0.437E+00
RMM:  50    -0.693828930209E+03   -0.60385E+00   -0.87125E-02 19181   0.372E-01    0.376E+00
RMM:  51    -0.694251150766E+03   -0.42222E+00   -0.36154E-02 16764   0.254E-01    0.315E+00
RMM:  52    -0.694405593459E+03   -0.15444E+00   -0.12158E-02 15306   0.166E-01    0.288E+00
RMM:  53    -0.694665901401E+03   -0.26031E+00   -0.16800E-02 16629   0.185E-01    0.269E+00
RMM:  54    -0.694834750735E+03   -0.16885E+00   -0.21801E-02 18140   0.205E-01    0.218E+00
RMM:  55    -0.695015830194E+03   -0.18108E+00   -0.57264E-03 15202   0.114E-01    0.213E+00
RMM:  56    -0.695023948858E+03   -0.81187E-02   -0.33292E-02 20236   0.221E-01    0.328E+00
RMM:  57    -0.694856769734E+03    0.16718E+00   -0.37266E-03 15009   0.104E-01    0.278E+00
RMM:  58    -0.694949030058E+03   -0.92260E-01   -0.56756E-03 16234   0.108E-01    0.204E+00
RMM:  59    -0.695125744895E+03   -0.17671E+00   -0.53835E-03 17139   0.107E-01    0.134E+00
RMM:  60    -0.695310514773E+03   -0.18477E+00   -0.26864E-03 15330   0.839E-02    0.107E+00
RMM:  61    -0.695503869063E+03   -0.19335E+00   -0.14476E-02 20464   0.172E-01    0.800E-01
RMM:  62    -0.695586564432E+03   -0.82695E-01   -0.38790E-03 16213   0.895E-02    0.568E-01
RMM:  63    -0.695697578707E+03   -0.11101E+00   -0.28006E-03 15486   0.716E-02    0.388E-01
RMM:  64    -0.695874351967E+03   -0.17677E+00   -0.37384E-03 16474   0.747E-02    0.388E-01
RMM:  65    -0.696021915412E+03   -0.14756E+00   -0.23361E-03 15356   0.601E-02    0.383E-01
RMM:  66    -0.696106307537E+03   -0.84392E-01   -0.11412E-03 13919   0.450E-02    0.463E-01
RMM:  67    -0.696166092911E+03   -0.59785E-01   -0.64341E-04 12524   0.346E-02    0.327E-01
RMM:  68    -0.696228100824E+03   -0.62008E-01   -0.84577E-04 12545   0.329E-02    0.264E-01
RMM:  69    -0.696265369498E+03   -0.37269E-01   -0.44417E-04 11428   0.256E-02    0.229E-01
RMM:  70    -0.696286436491E+03   -0.21067E-01   -0.26531E-04 10169   0.220E-02    0.128E-01
RMM:  71    -0.696292152383E+03   -0.57159E-02   -0.14312E-04  9303   0.174E-02    0.681E-02
RMM:  72    -0.696293732977E+03   -0.15806E-02   -0.55280E-05  8767   0.124E-02    0.571E-02
RMM:  73    -0.696296753648E+03   -0.30207E-02   -0.29378E-05  8160   0.926E-03    0.371E-02
RMM:  74    -0.696299479751E+03   -0.27261E-02   -0.26242E-05  8364   0.754E-03    0.308E-02
RMM:  75    -0.696301507008E+03   -0.20273E-02   -0.18516E-05  7437   0.648E-03    0.268E-02
RMM:  76    -0.696303170149E+03   -0.16631E-02   -0.13218E-05  6800   0.532E-03    0.240E-02
RMM:  77    -0.696305807747E+03   -0.26376E-02   -0.15539E-05  7115   0.519E-03    0.213E-02
RMM:  78    -0.696309752975E+03   -0.39452E-02   -0.36914E-05  8147   0.659E-03    0.202E-02
RMM:  79    -0.696311473932E+03   -0.17210E-02   -0.28161E-05  7188   0.594E-03    0.155E-02
RMM:  80    -0.696312222306E+03   -0.74837E-03   -0.21733E-05  7004   0.575E-03
   1 F= -.69631222E+03 E0= -.69573814E+03  d E =-.696312E+03  mag=     2.6579
       N       E                     dE             d eps       ncg     rms          rms(c)
DAV:   1    -0.693883499558E+03    0.24280E+01   -0.41369E+02 15216   0.249E+01    0.617E+00
RMM:   2    -0.695538225241E+03   -0.16547E+01   -0.15032E+01 14848   0.498E+00    0.954E+00
RMM:   3    -0.697309813965E+03   -0.17716E+01   -0.26309E+00 15772   0.220E+00    0.180E+01
RMM:   4    -0.695439587962E+03    0.18702E+01   -0.42027E-01 15292   0.108E+00    0.544E+00
RMM:   5    -0.695346236950E+03    0.93351E-01   -0.17130E-01 14942   0.707E-01    0.419E+00
RMM:   6    -0.695371771346E+03   -0.25534E-01   -0.84474E-02 14972   0.486E-01    0.420E+00
RMM:   7    -0.695290531521E+03    0.81240E-01   -0.60205E-02 15169   0.416E-01    0.212E+00
RMM:   8    -0.695293238878E+03   -0.27074E-02   -0.38605E-02 15285   0.310E-01    0.229E+00
RMM:   9    -0.695274188802E+03    0.19050E-01   -0.12616E-02 14914   0.213E-01    0.117E+00
RMM:  10    -0.695273244307E+03    0.94450E-03   -0.47881E-03 15128   0.123E-01    0.976E-01
RMM:  11    -0.695270850730E+03    0.23936E-02   -0.25981E-03 14473   0.856E-02    0.652E-01
RMM:  12    -0.695269270219E+03    0.15805E-02   -0.10147E-03 13605   0.547E-02    0.304E-01
RMM:  13    -0.695269643192E+03   -0.37297E-03   -0.62864E-04 12963   0.391E-02    0.232E-01
RMM:  14    -0.695269936438E+03   -0.29325E-03   -0.35912E-04 11192   0.282E-02    0.165E-01
RMM:  15    -0.695270187934E+03   -0.25150E-03   -0.15928E-04  9352   0.210E-02    0.124E-01
RMM:  16    -0.695270406838E+03   -0.21890E-03   -0.61835E-05  8818   0.151E-02    0.103E-01
RMM:  17    -0.695270571926E+03   -0.16509E-03   -0.29885E-05  8263   0.959E-03    0.679E-02
RMM:  18    -0.695270782331E+03   -0.21040E-03   -0.27211E-05  8192   0.816E-03    0.380E-02
RMM:  19    -0.695270897908E+03   -0.11558E-03   -0.13745E-05  7585   0.654E-03    0.282E-02
RMM:  20    -0.695270971190E+03   -0.73281E-04   -0.64587E-06  6146   0.450E-03
   2 F= -.69527097E+03 E0= -.69469984E+03  d E =0.104125E+01  mag=     2.6835
       N       E                     dE             d eps       ncg     rms          rms(c)
DAV:   1    -0.696007508298E+03   -0.73661E+00   -0.22240E+02 15040   0.194E+01    0.472E+00
RMM:   2    -0.696519114636E+03   -0.51161E+00   -0.53816E+00 14848   0.328E+00    0.356E+00
RMM:   3    -0.698425510436E+03   -0.19064E+01   -0.11692E+00 15587   0.149E+00    0.169E+01
RMM:   4    -0.696641535691E+03    0.17840E+01   -0.23552E-01 15031   0.850E-01    0.418E+00
RMM:   5    -0.696595874608E+03    0.45661E-01   -0.96752E-02 15022   0.541E-01    0.267E+00
RMM:   6    -0.696602789063E+03   -0.69145E-02   -0.54840E-02 14995   0.390E-01    0.256E+00
RMM:   7    -0.696573884031E+03    0.28905E-01   -0.27519E-02 15016   0.304E-01    0.180E+00
RMM:   8    -0.696563459841E+03    0.10424E-01   -0.84816E-03 14896   0.163E-01    0.893E-01
RMM:   9    -0.696561674255E+03    0.17856E-02   -0.66809E-03 15719   0.116E-01    0.788E-01
RMM:  10    -0.696560053935E+03    0.16203E-02   -0.22739E-03 14186   0.851E-02    0.594E-01
RMM:  11    -0.696558417201E+03    0.16367E-02   -0.10485E-03 13720   0.556E-02    0.257E-01
RMM:  12    -0.696558313376E+03    0.10382E-03   -0.42493E-04 11857   0.354E-02    0.141E-01
RMM:  13    -0.696558624775E+03   -0.31140E-03   -0.20004E-04  9778   0.243E-02    0.129E-01
RMM:  14    -0.696558903424E+03   -0.27865E-03   -0.10504E-04  8996   0.186E-02    0.960E-02
RMM:  15    -0.696559272525E+03   -0.36910E-03   -0.67157E-05  8747   0.136E-02    0.743E-02
RMM:  16    -0.696559560100E+03   -0.28757E-03   -0.32273E-05  7991   0.982E-03    0.443E-02
RMM:  17    -0.696559855566E+03   -0.29547E-03   -0.20004E-05  7423   0.707E-03    0.402E-02
RMM:  18    -0.696560212575E+03   -0.35701E-03   -0.18857E-05  7307   0.639E-03    0.362E-02
RMM:  19    -0.696560569958E+03   -0.35738E-03   -0.24993E-05  7644   0.665E-03    0.255E-02
RMM:  20    -0.696560762388E+03   -0.19243E-03   -0.20161E-05  6825   0.605E-03    0.167E-02
RMM:  21    -0.696560874415E+03   -0.11203E-03   -0.10545E-05  6157   0.500E-03    0.149E-02
RMM:  22    -0.696561002430E+03   -0.12801E-03   -0.10833E-05  6259   0.464E-03    0.145E-02
RMM:  23    -0.696561006751E+03   -0.43210E-05   -0.10134E-05  6621   0.469E-03
   3 F= -.69656101E+03 E0= -.69598807E+03  d E =-.248784E+00  mag=     2.6992
       N       E                     dE             d eps       ncg     rms          rms(c)
DAV:   1    -0.696298170431E+03    0.26283E+00   -0.57360E+01 15152   0.972E+00    0.231E+00
RMM:   2    -0.696396482620E+03   -0.98312E-01   -0.11218E+00 14848   0.154E+00    0.212E+00
RMM:   3    -0.696786514919E+03   -0.39003E+00   -0.21789E-01 15359   0.692E-01    0.772E+00
RMM:   4    -0.696427688773E+03    0.35883E+00   -0.54485E-02 14940   0.426E-01    0.234E+00
RMM:   5    -0.696419789306E+03    0.78995E-02   -0.26729E-02 14894   0.296E-01    0.195E+00
RMM:   6    -0.696410777390E+03    0.90119E-02   -0.13125E-02 14927   0.209E-01    0.141E+00
RMM:   7    -0.696399740286E+03    0.11037E-01   -0.70115E-03 14911   0.152E-01    0.536E-01
RMM:   8    -0.696399733519E+03    0.67672E-05   -0.28687E-03 14568   0.912E-02    0.411E-01
RMM:   9    -0.696399345253E+03    0.38827E-03   -0.10320E-03 13436   0.597E-02    0.297E-01
RMM:  10    -0.696399261734E+03    0.83519E-04   -0.46448E-04 11847   0.332E-02
   4 F= -.69639926E+03 E0= -.69582601E+03  d E =0.161745E+00  mag=     2.6999
       N       E                     dE             d eps       ncg     rms          rms(c)
DAV:   1    -0.696629558794E+03   -0.23021E+00   -0.24947E+01 15168   0.655E+00    0.140E+00
RMM:   2    -0.696670413395E+03   -0.40855E-01   -0.44092E-01 14848   0.967E-01    0.172E+00
RMM:   3    -0.696697530593E+03   -0.27117E-01   -0.63656E-02 15216   0.421E-01    0.230E+00
RMM:   4    -0.696708075401E+03   -0.10545E-01   -0.20256E-02 15354   0.222E-01    0.255E+00
RMM:   5    -0.696682755575E+03    0.25320E-01   -0.11903E-02 14981   0.182E-01    0.185E+00
RMM:   6    -0.696672764849E+03    0.99907E-02   -0.61665E-03 14917   0.147E-01    0.116E+00
RMM:   7    -0.696665961913E+03    0.68029E-02   -0.52728E-03 14920   0.116E-01    0.386E-01
RMM:   8    -0.696666532424E+03   -0.57051E-03   -0.15049E-03 13759   0.699E-02    0.428E-01
RMM:   9    -0.696665814472E+03    0.71795E-03   -0.44953E-04 12048   0.431E-02    0.207E-01
RMM:  10    -0.696665694201E+03    0.12027E-03   -0.16494E-04  9387   0.222E-02    0.127E-01
RMM:  11    -0.696665648949E+03    0.45253E-04   -0.73421E-05  8679   0.160E-02
   5 F= -.69666565E+03 E0= -.69609275E+03  d E =-.104642E+00  mag=     2.6991
       N       E                     dE             d eps       ncg     rms          rms(c)
DAV:   1    -0.696666304817E+03   -0.61062E-03   -0.83362E-02 15408   0.376E-01    0.106E-01
RMM:   2    -0.696666823948E+03   -0.51913E-03   -0.16432E-03 13115   0.599E-02    0.269E-01
RMM:   3    -0.696666958843E+03   -0.13490E-03   -0.31555E-04 10141   0.314E-02    0.313E-01
RMM:   4    -0.696666369127E+03    0.58972E-03   -0.11055E-04  8599   0.208E-02    0.110E-01
RMM:   5    -0.696666315297E+03    0.53830E-04   -0.42771E-05  8246   0.131E-02    0.675E-02
RMM:   6    -0.696666263990E+03    0.51307E-04   -0.20073E-05  7649   0.876E-03    0.468E-02
RMM:   7    -0.696666193203E+03    0.70787E-04   -0.19550E-05  7582   0.768E-03    0.784E-02
RMM:   8    -0.696666127995E+03    0.65208E-04   -0.96891E-06  7113   0.683E-03
   6 F= -.69666613E+03 E0= -.69609341E+03  d E =-.105121E+00  mag=     2.6956
       N       E                     dE             d eps       ncg     rms          rms(c)
DAV:   1    -0.696745398590E+03   -0.79205E-01   -0.68213E+00 15280   0.369E+00    0.877E-01
RMM:   2    -0.696774013813E+03   -0.28615E-01   -0.17796E-01 14848   0.623E-01    0.212E+00
RMM:   3    -0.696759986248E+03    0.14028E-01   -0.20972E-02 14901   0.262E-01    0.108E+00
RMM:   4    -0.696775611774E+03   -0.15626E-01   -0.72149E-03 15693   0.131E-01    0.183E+00
RMM:   5    -0.696767857254E+03    0.77545E-02   -0.42189E-03 14947   0.110E-01    0.141E+00
RMM:   6    -0.696757473479E+03    0.10384E-01   -0.21280E-03 14161   0.915E-02    0.713E-01
RMM:   7    -0.696757056527E+03    0.41695E-03   -0.13288E-03 13621   0.613E-02    0.527E-01
RMM:   8    -0.696755761889E+03    0.12946E-02   -0.94265E-04 13389   0.474E-02    0.245E-01
RMM:   9    -0.696755527562E+03    0.23433E-03   -0.39936E-04 11429   0.312E-02    0.189E-01
RMM:  10    -0.696755435358E+03    0.92204E-04   -0.93435E-05  8789   0.188E-02
   7 F= -.69675544E+03 E0= -.69618246E+03  d E =-.893074E-01  mag=     2.6897
       N       E                     dE             d eps       ncg     rms          rms(c)
DAV:   1    -0.696755398624E+03    0.12894E-03   -0.35428E-03 15168   0.867E-02    0.137E-01
RMM:   2    -0.696762202438E+03   -0.68038E-02   -0.79159E-04 13233   0.366E-02    0.103E+00
RMM:   3    -0.696755726294E+03    0.64761E-02   -0.46116E-04 12478   0.438E-02    0.318E-01
RMM:   4    -0.696755348774E+03    0.37752E-03   -0.17199E-04  8980   0.261E-02    0.124E-01
RMM:   5    -0.696755306436E+03    0.42338E-04   -0.49423E-05  8079   0.145E-02    0.977E-02
RMM:   6    -0.696755258215E+03    0.48221E-04   -0.18648E-05  7149   0.853E-03    0.440E-02
RMM:   7    -0.696755251236E+03    0.69795E-05   -0.74052E-06  6310   0.514E-03    0.209E-02
RMM:   8    -0.696755262771E+03   -0.11535E-04   -0.25876E-06  4749   0.370E-03
   8 F= -.69675526E+03 E0= -.69618234E+03  d E =-.891348E-01  mag=     2.6836
       N       E                     dE             d eps       ncg     rms          rms(c)
DAV:   1    -0.696775664273E+03   -0.20413E-01   -0.56127E+00 15248   0.332E+00    0.842E-01
RMM:   2    -0.696802915224E+03   -0.27251E-01   -0.15713E-01 14848   0.536E-01    0.173E+00
RMM:   3    -0.696832687115E+03   -0.29772E-01   -0.20978E-02 14889   0.241E-01    0.287E+00
RMM:   4    -0.696785488337E+03    0.47199E-01   -0.64975E-03 14825   0.155E-01    0.749E-01
RMM:   5    -0.696785126641E+03    0.36170E-03   -0.18428E-03 14330   0.853E-02    0.516E-01
RMM:   6    -0.696785531819E+03   -0.40518E-03   -0.12686E-03 13977   0.629E-02    0.571E-01
RMM:   7    -0.696783969766E+03    0.15621E-02   -0.89518E-04 13465   0.558E-02    0.304E-01
RMM:   8    -0.696783887731E+03    0.82035E-04   -0.54665E-04 11916   0.379E-02
   9 F= -.69678389E+03 E0= -.69621080E+03  d E =-.286250E-01  mag=     2.6774
       N       E                     dE             d eps       ncg     rms          rms(c)
DAV:   1    -0.696800466253E+03   -0.16496E-01   -0.69452E-01 15312   0.116E+00    0.318E-01
RMM:   2    -0.696803879752E+03   -0.34135E-02   -0.21134E-02 14816   0.195E-01    0.678E-01
RMM:   3    -0.696804083718E+03   -0.20397E-03   -0.24502E-03 14363   0.918E-02    0.669E-01
RMM:   4    -0.696802702111E+03    0.13816E-02   -0.83004E-04 13129   0.507E-02    0.527E-01
RMM:   5    -0.696801310884E+03    0.13912E-02   -0.27559E-04 10178   0.336E-02    0.195E-01
RMM:   6    -0.696801203630E+03    0.10725E-03   -0.16458E-04  8760   0.241E-02    0.166E-01
RMM:   7    -0.696801131513E+03    0.72117E-04   -0.12795E-04  8490   0.210E-02    0.130E-01
RMM:   8    -0.696801137844E+03   -0.63308E-05   -0.82593E-05  8196   0.164E-02
  10 F= -.69680114E+03 E0= -.69622816E+03  d E =-.458751E-01  mag=     2.6701
       N       E                     dE             d eps       ncg     rms          rms(c)
DAV:   1    -0.696788002262E+03    0.13129E-01   -0.27028E+00 15360   0.235E+00    0.634E-01
RMM:   2    -0.696813667992E+03   -0.25666E-01   -0.83048E-02 14847   0.416E-01    0.180E+00
RMM:   3    -0.696809952534E+03    0.37155E-02   -0.11703E-02 14966   0.186E-01    0.176E+00
RMM:   4    -0.696793522570E+03    0.16430E-01   -0.48854E-03 14706   0.127E-01    0.655E-01
RMM:   5    -0.696791933645E+03    0.15889E-02   -0.99758E-04 13468   0.646E-02    0.297E-01
RMM:   6    -0.696792980058E+03   -0.10464E-02   -0.73586E-04 13447   0.449E-02    0.486E-01
RMM:   7    -0.696791898232E+03    0.10818E-02   -0.56816E-04 12520   0.440E-02    0.211E-01
RMM:   8    -0.696791922237E+03   -0.24006E-04   -0.28000E-04 10332   0.296E-02
  11 F= -.69679192E+03 E0= -.69621908E+03  d E =0.921561E-02  mag=     2.6650
       N       E                     dE             d eps       ncg     rms          rms(c)
DAV:   1    -0.696820063831E+03   -0.28166E-01   -0.77041E-01 15344   0.125E+00    0.359E-01
RMM:   2    -0.696826038044E+03   -0.59742E-02   -0.24830E-02 14843   0.225E-01    0.852E-01
RMM:   3    -0.696829038710E+03   -0.30007E-02   -0.35653E-03 14701   0.102E-01    0.116E+00
RMM:   4    -0.696821968453E+03    0.70703E-02   -0.14033E-03 14061   0.708E-02    0.490E-01
RMM:   5    -0.696820788483E+03    0.11800E-02   -0.40960E-04 11681   0.416E-02    0.169E-01
RMM:   6    -0.696820807587E+03   -0.19104E-04   -0.18857E-04  9101   0.247E-02    0.189E-01
RMM:   7    -0.696820738734E+03    0.68853E-04   -0.17277E-04  8869   0.243E-02    0.142E-01
RMM:   8    -0.696820782746E+03   -0.44012E-04   -0.10630E-04  8408   0.191E-02
  12 F= -.69682078E+03 E0= -.69624791E+03  d E =-.196449E-01  mag=     2.6592
       N       E                     dE             d eps       ncg     rms          rms(c)
DAV:   1    -0.696853488703E+03   -0.32750E-01   -0.11247E+00 15248   0.158E+00    0.312E-01
RMM:   2    -0.696856348745E+03   -0.28600E-02   -0.25786E-02 14848   0.265E-01    0.525E-01
RMM:   3    -0.696857113857E+03   -0.76511E-03   -0.37078E-03 15350   0.107E-01    0.464E-01
RMM:   4    -0.696859064870E+03   -0.19510E-02   -0.10447E-03 14022   0.562E-02    0.731E-01
RMM:   5    -0.696857019906E+03    0.20450E-02   -0.48599E-04 12544   0.416E-02    0.422E-01
RMM:   6    -0.696856138928E+03    0.88098E-03   -0.29526E-04 10741   0.338E-02    0.203E-01
RMM:   7    -0.696856201132E+03   -0.62204E-04   -0.26684E-04  9924   0.285E-02    0.153E-01
RMM:   8    -0.696856173735E+03    0.27397E-04   -0.95257E-05  8551   0.200E-02
  13 F= -.69685617E+03 E0= -.69628361E+03  d E =-.353910E-01  mag=     2.6551
       N       E                     dE             d eps       ncg     rms          rms(c)
DAV:   1    -0.696856983898E+03   -0.78277E-03   -0.30653E-02 15536   0.261E-01    0.669E-02
RMM:   2    -0.696857325445E+03   -0.34155E-03   -0.75299E-04 12024   0.457E-02    0.192E-01
RMM:   3    -0.696857212898E+03    0.11255E-03   -0.13161E-04  8566   0.216E-02    0.118E-01
RMM:   4    -0.696857207290E+03    0.56076E-05   -0.45880E-05  8104   0.136E-02    0.110E-01
RMM:   5    -0.696857217248E+03   -0.99572E-05   -0.16093E-05  7832   0.870E-03    0.563E-02
RMM:   6    -0.696857255262E+03   -0.38014E-04   -0.12052E-05  7014   0.664E-03    0.446E-02
RMM:   7    -0.696857316037E+03   -0.60775E-04   -0.77305E-06  6628   0.569E-03    0.383E-02
RMM:   8    -0.696857332915E+03   -0.16878E-04   -0.24496E-06  5380   0.398E-03
  14 F= -.69685733E+03 E0= -.69628477E+03  d E =-.365502E-01  mag=     2.6517
       N       E                     dE             d eps       ncg     rms          rms(c)
DAV:   1    -0.696856424070E+03    0.89197E-03   -0.72991E-01 15152   0.118E+00    0.240E-01
RMM:   2    -0.696858688252E+03   -0.22642E-02   -0.16169E-02 14625   0.178E-01    0.526E-01
RMM:   3    -0.696858231343E+03    0.45691E-03   -0.18618E-03 13604   0.731E-02    0.330E-01
RMM:   4    -0.696859243372E+03   -0.10120E-02   -0.55477E-04 12053   0.383E-02    0.502E-01
RMM:   5    -0.696858511711E+03    0.73166E-03   -0.38399E-04 11293   0.344E-02    0.343E-01
RMM:   6    -0.696857964586E+03    0.54712E-03   -0.20776E-04  9464   0.288E-02    0.180E-01
RMM:   7    -0.696857979359E+03   -0.14773E-04   -0.11151E-04  8526   0.201E-02    0.115E-01
RMM:   8    -0.696857955491E+03    0.23868E-04   -0.53206E-05  7869   0.133E-02
  15 F= -.69685796E+03 E0= -.69628544E+03  d E =-.622576E-03  mag=     2.6490
       N       E                     dE             d eps       ncg     rms          rms(c)
DAV:   1    -0.696865126930E+03   -0.71476E-02   -0.17862E-01 15360   0.584E-01    0.135E-01
RMM:   2    -0.696865883892E+03   -0.75696E-03   -0.41437E-03 13948   0.914E-02    0.321E-01
RMM:   3    -0.696865517054E+03    0.36684E-03   -0.48658E-04 10388   0.414E-02    0.138E-01
RMM:   4    -0.696865864304E+03   -0.34725E-03   -0.15348E-04  8470   0.218E-02    0.266E-01
RMM:   5    -0.696865650484E+03    0.21382E-03   -0.82065E-05  8144   0.172E-02    0.184E-01
RMM:   6    -0.696865513340E+03    0.13714E-03   -0.64992E-05  8036   0.159E-02    0.799E-02
RMM:   7    -0.696865554644E+03   -0.41304E-04   -0.31030E-05  7701   0.110E-02    0.737E-02
RMM:   8    -0.696865556182E+03   -0.15371E-05   -0.15558E-05  6895   0.804E-03
  16 F= -.69686556E+03 E0= -.69629304E+03  d E =-.822327E-02  mag=     2.6467
       N       E                     dE             d eps       ncg     rms          rms(c)
DAV:   1    -0.696871729771E+03   -0.61751E-02   -0.12620E-01 15360   0.561E-01    0.955E-02
RMM:   2    -0.696872277686E+03   -0.54791E-03   -0.26585E-03 14793   0.105E-01    0.303E-01
RMM:   3    -0.696872041213E+03    0.23647E-03   -0.51373E-04 12971   0.411E-02    0.165E-01
RMM:   4    -0.696872466025E+03   -0.42481E-03   -0.11706E-04  8504   0.210E-02    0.301E-01
RMM:   5    -0.696872207875E+03    0.25815E-03   -0.50846E-05  8176   0.160E-02    0.198E-01
RMM:   6    -0.696872044810E+03    0.16306E-03   -0.39315E-05  8124   0.115E-02    0.134E-01
RMM:   7    -0.696872039452E+03    0.53576E-05   -0.44948E-05  8131   0.119E-02    0.826E-02
RMM:   8    -0.696872042108E+03   -0.26551E-05   -0.16032E-05  7435   0.904E-03
  17 F= -.69687204E+03 E0= -.69629940E+03  d E =-.648593E-02  mag=     2.6445
       N       E                     dE             d eps       ncg     rms          rms(c)
DAV:   1    -0.696872200737E+03   -0.16128E-03   -0.49773E-03 15104   0.112E-01    0.611E-02
RMM:   2    -0.696874562522E+03   -0.23618E-02   -0.28839E-04 10031   0.279E-02    0.597E-01
RMM:   3    -0.696872157525E+03    0.24050E-02   -0.12944E-04  8126   0.256E-02    0.620E-02
RMM:   4    -0.696872229271E+03   -0.71746E-04   -0.41082E-05  7977   0.128E-02    0.707E-02
RMM:   5    -0.696872219539E+03    0.97321E-05   -0.13081E-05  7202   0.796E-03    0.405E-02
RMM:   6    -0.696872219350E+03    0.18912E-06   -0.34806E-06  5569   0.432E-03    0.243E-02
RMM:   7    -0.696872235561E+03   -0.16212E-04   -0.22251E-06  4379   0.344E-03    0.324E-02
RMM:   8    -0.696872236424E+03   -0.86283E-06   -0.85369E-07  3620   0.313E-03
  18 F= -.69687224E+03 E0= -.69629966E+03  d E =-.668024E-02  mag=     2.6423
       N       E                     dE             d eps       ncg     rms          rms(c)
DAV:   1    -0.696875255063E+03   -0.30195E-02   -0.57254E-02 15376   0.357E-01    0.762E-02
RMM:   2    -0.696875806236E+03   -0.55117E-03   -0.11728E-03 14658   0.714E-02    0.317E-01
RMM:   3    -0.696875458473E+03    0.34776E-03   -0.25274E-04  9682   0.282E-02    0.178E-01
RMM:   4    -0.696875701752E+03   -0.24328E-03   -0.58314E-05  8125   0.165E-02    0.259E-01
RMM:   5    -0.696875376592E+03    0.32516E-03   -0.33388E-05  8064   0.114E-02    0.110E-01
RMM:   6    -0.696875383770E+03   -0.71781E-05   -0.27275E-05  7909   0.984E-03    0.930E-02
RMM:   7    -0.696875364573E+03    0.19197E-04   -0.16694E-05  7342   0.867E-03    0.590E-02
RMM:   8    -0.696875364240E+03    0.33290E-06   -0.67136E-06  6781   0.534E-03
  19 F= -.69687536E+03 E0= -.69630283E+03  d E =-.312782E-02  mag=     2.6402
       N       E                     dE             d eps       ncg     rms          rms(c)
DAV:   1    -0.696875697933E+03   -0.33336E-03   -0.13837E-02 15648   0.176E-01    0.482E-02
RMM:   2    -0.696875757243E+03   -0.59310E-04   -0.29469E-04  9742   0.350E-02    0.950E-02
RMM:   3    -0.696875735376E+03    0.21867E-04   -0.54131E-05  8018   0.160E-02    0.479E-02
RMM:   4    -0.696875998039E+03   -0.26266E-03   -0.30516E-05  7911   0.925E-03    0.216E-01
RMM:   5    -0.696875749737E+03    0.24830E-03   -0.17440E-05  7540   0.920E-03    0.591E-02
RMM:   6    -0.696875733989E+03    0.15748E-04   -0.10276E-05  6992   0.599E-03    0.503E-02
RMM:   7    -0.696875731979E+03    0.20106E-05   -0.31538E-06  5960   0.440E-03    0.283E-02
RMM:   8    -0.696875739030E+03   -0.70509E-05   -0.74828E-07  3486   0.306E-03
  20 F= -.69687574E+03 E0= -.69630323E+03  d E =-.350261E-02  mag=     2.6382
       N       E                     dE             d eps       ncg     rms          rms(c)
DAV:   1    -0.696878018809E+03   -0.22868E-02   -0.17969E-02 15360   0.188E-01    0.543E-02
RMM:   2    -0.696878147369E+03   -0.12856E-03   -0.32343E-04  9852   0.358E-02    0.145E-01
RMM:   3    -0.696878082910E+03    0.64459E-04   -0.67948E-05  8080   0.169E-02    0.686E-02
RMM:   4    -0.696878099364E+03   -0.16453E-04   -0.20462E-05  7765   0.916E-03    0.810E-02
RMM:   5    -0.696878098876E+03    0.48720E-06   -0.15698E-05  7431   0.792E-03    0.638E-02
RMM:   6    -0.696878102087E+03   -0.32103E-05   -0.11935E-05  7126   0.699E-03    0.435E-02
RMM:   7    -0.696878109650E+03   -0.75628E-05   -0.53881E-06  6608   0.518E-03    0.339E-02
RMM:   8    -0.696878116545E+03   -0.68953E-05   -0.13561E-06  4102   0.335E-03
  21 F= -.69687812E+03 E0= -.69630566E+03  d E =-.237752E-02  mag=     2.6363
       N       E                     dE             d eps       ncg     rms          rms(c)
DAV:   1    -0.696879669734E+03   -0.15601E-02   -0.91498E-02 15264   0.424E-01    0.111E-01
RMM:   2    -0.696879896784E+03   -0.22705E-03   -0.16292E-03 14628   0.823E-02    0.176E-01
RMM:   3    -0.696879853925E+03    0.42859E-04   -0.36527E-04 10882   0.337E-02    0.940E-02
RMM:   4    -0.696880515470E+03   -0.66155E-03   -0.13537E-04  8846   0.219E-02    0.313E-01
RMM:   5    -0.696879944063E+03    0.57141E-03   -0.56962E-05  8196   0.163E-02    0.137E-01
RMM:   6    -0.696880008462E+03   -0.64399E-04   -0.51646E-05  8146   0.122E-02    0.143E-01
RMM:   7    -0.696879923388E+03    0.85073E-04   -0.36529E-05  7989   0.129E-02    0.537E-02
RMM:   8    -0.696879925369E+03   -0.19802E-05   -0.12177E-05  7009   0.675E-03
  22 F= -.69687993E+03 E0= -.69630760E+03  d E =-.418634E-02  mag=     2.6349
       N       E                     dE             d eps       ncg     rms          rms(c)
DAV:   1    -0.696881006128E+03   -0.10827E-02   -0.25086E-03 15168   0.657E-02    0.250E-02
RMM:   2    -0.696881057006E+03   -0.50878E-04   -0.54939E-05  7953   0.134E-02    0.748E-02
RMM:   3    -0.696881039744E+03    0.17261E-04   -0.12392E-05  7598   0.783E-03    0.478E-02
RMM:   4    -0.696881040427E+03   -0.68280E-06   -0.54984E-06  6373   0.455E-03    0.483E-02
RMM:   5    -0.696881039277E+03    0.11506E-05   -0.21613E-06  5211   0.385E-03    0.263E-02
RMM:   6    -0.696881051681E+03   -0.12405E-04   -0.11722E-06  3684   0.317E-03    0.275E-02
RMM:   7    -0.696881054965E+03   -0.32835E-05   -0.41950E-07  2924   0.283E-03    0.122E-02
RMM:   8    -0.696881060918E+03   -0.59535E-05   -0.13464E-07  1763   0.249E-03
  23 F= -.69688106E+03 E0= -.69630875E+03  d E =-.113555E-02  mag=     2.6336
       N       E                     dE             d eps       ncg     rms          rms(c)
DAV:   1    -0.696883580210E+03   -0.25252E-02   -0.22422E-02 15328   0.193E-01    0.620E-02
RMM:   2    -0.696883953158E+03   -0.37295E-03   -0.42793E-04 10907   0.388E-02    0.239E-01
RMM:   3    -0.696883630533E+03    0.32263E-03   -0.87554E-05  8178   0.191E-02    0.842E-02
RMM:   4    -0.696883651358E+03   -0.20826E-04   -0.27348E-05  7845   0.109E-02    0.884E-02
RMM:   5    -0.696883716013E+03   -0.64655E-04   -0.17918E-05  7575   0.783E-03    0.116E-01
RMM:   6    -0.696883679813E+03    0.36200E-04   -0.13626E-05  7128   0.745E-03    0.849E-02
RMM:   7    -0.696883647135E+03    0.32678E-04   -0.89832E-06  6918   0.601E-03    0.257E-02
RMM:   8    -0.696883647136E+03   -0.80763E-09   -0.29511E-06  5649   0.413E-03
  24 F= -.69688365E+03 E0= -.69631142E+03  d E =-.372177E-02  mag=     2.6323
       N       E                     dE             d eps       ncg     rms          rms(c)
DAV:   1    -0.696883398930E+03    0.24821E-03   -0.88341E-02 15024   0.383E-01    0.113E-01
RMM:   2    -0.696884218386E+03   -0.81946E-03   -0.16144E-03 14323   0.760E-02    0.360E-01
RMM:   3    -0.696883596217E+03    0.62217E-03   -0.36113E-04 10742   0.329E-02    0.179E-01
RMM:   4    -0.696883697136E+03   -0.10092E-03   -0.91006E-05  8500   0.201E-02    0.188E-01
RMM:   5    -0.696883700619E+03   -0.34825E-05   -0.72898E-05  8259   0.154E-02    0.176E-01
RMM:   6    -0.696883710293E+03   -0.96740E-05   -0.56535E-05  8111   0.147E-02    0.162E-01
RMM:   7    -0.696883564585E+03    0.14571E-03   -0.34900E-05  8015   0.118E-02    0.550E-02
RMM:   8    -0.696883564929E+03   -0.34363E-06   -0.12767E-05  7027   0.731E-03
  25 F= -.69688356E+03 E0= -.69631149E+03  d E =-.363956E-02  mag=     2.6311
       N       E                     dE             d eps       ncg     rms          rms(c)
DAV:   1    -0.696884455444E+03   -0.89086E-03   -0.26477E-02 15312   0.210E-01    0.672E-02
RMM:   2    -0.696884812029E+03   -0.35659E-03   -0.53665E-04 11805   0.437E-02    0.237E-01
RMM:   3    -0.696884580624E+03    0.23140E-03   -0.11158E-04  8255   0.211E-02    0.142E-01
RMM:   4    -0.696884543240E+03    0.37385E-04   -0.39799E-05  7990   0.133E-02    0.110E-01
RMM:   5    -0.696884555848E+03   -0.12608E-04   -0.17618E-05  7490   0.849E-03    0.106E-01
RMM:   6    -0.696884554342E+03    0.15057E-05   -0.19039E-05  7679   0.824E-03    0.926E-02
RMM:   7    -0.696884518875E+03    0.35467E-04   -0.14791E-05  7289   0.754E-03    0.319E-02
RMM:   8    -0.696884523299E+03   -0.44245E-05   -0.61733E-06  6732   0.525E-03
  26 F= -.69688452E+03 E0= -.69631235E+03  d E =-.459793E-02  mag=     2.6299
       N       E                     dE             d eps       ncg     rms          rms(c)
DAV:   1    -0.696885525146E+03   -0.10063E-02   -0.58656E-03 15424   0.117E-01    0.253E-02
RMM:   2    -0.696885552724E+03   -0.27578E-04   -0.13444E-04  8201   0.226E-02    0.517E-02
RMM:   3    -0.696885547067E+03    0.56577E-05   -0.20936E-05  7821   0.105E-02    0.214E-02
RMM:   4    -0.696885576818E+03   -0.29751E-04   -0.78556E-06  6972   0.531E-03    0.660E-02
RMM:   5    -0.696885564058E+03    0.12759E-04   -0.42633E-06  6186   0.458E-03    0.444E-02
RMM:   6    -0.696885557203E+03    0.68549E-05   -0.13817E-06  4146   0.337E-03    0.156E-02
RMM:   7    -0.696885562720E+03   -0.55168E-05   -0.22275E-07  2239   0.278E-03    0.131E-02
RMM:   8    -0.696885568828E+03   -0.61079E-05   -0.14846E-07  1832   0.274E-03
  27 F= -.69688557E+03 E0= -.69631343E+03  d E =-.104553E-02  mag=     2.6289
       N       E                     dE             d eps       ncg     rms          rms(c)
DAV:   1    -0.696886342939E+03   -0.78022E-03   -0.25923E-02 15360   0.246E-01    0.426E-02
RMM:   2    -0.696886719794E+03   -0.37686E-03   -0.57394E-04 11976   0.469E-02    0.238E-01
RMM:   3    -0.696886410574E+03    0.30922E-03   -0.10165E-04  8185   0.200E-02    0.738E-02
RMM:   4    -0.696886433343E+03   -0.22769E-04   -0.26626E-05  7883   0.114E-02    0.781E-02
RMM:   5    -0.696886422541E+03    0.10802E-04   -0.93822E-06  7172   0.660E-03    0.517E-02
RMM:   6    -0.696886427331E+03   -0.47901E-05   -0.50644E-06  6362   0.472E-03    0.535E-02
RMM:   7    -0.696886436214E+03   -0.88826E-05   -0.31454E-06  5725   0.409E-03    0.529E-02
RMM:   8    -0.696886432044E+03    0.41699E-05   -0.19087E-06  4519   0.347E-03
  28 F= -.69688643E+03 E0= -.69631425E+03  d E =-.190874E-02  mag=     2.6280
       N       E                     dE             d eps       ncg     rms          rms(c)
DAV:   1    -0.696886742813E+03   -0.30660E-03   -0.30928E-03 15104   0.840E-02    0.182E-02
RMM:   2    -0.696886792529E+03   -0.49716E-04   -0.73358E-05  7945   0.174E-02    0.777E-02
RMM:   3    -0.696886762123E+03    0.30407E-04   -0.12505E-05  7807   0.837E-03    0.336E-02
RMM:   4    -0.696886796949E+03   -0.34826E-04   -0.58921E-06  6672   0.451E-03    0.828E-02
RMM:   5    -0.696886772084E+03    0.24864E-04   -0.21748E-06  5314   0.390E-03    0.398E-02
RMM:   6    -0.696886768475E+03    0.36091E-05   -0.27487E-07  2362   0.273E-03    0.154E-02
RMM:   7    -0.696886770449E+03   -0.19736E-05   -0.76052E-08  1927   0.270E-03    0.103E-02
RMM:   8    -0.696886772511E+03   -0.20625E-05   -0.50828E-08  1532   0.272E-03
  29 F= -.69688677E+03 E0= -.69631459E+03  d E =-.340467E-03  mag=     2.6273
       N       E                     dE             d eps       ncg     rms          rms(c)
DAV:   1    -0.696886933784E+03   -0.16334E-03   -0.56627E-03 15568   0.113E-01    0.208E-02
RMM:   2    -0.696886980153E+03   -0.46368E-04   -0.12107E-04  8078   0.227E-02    0.780E-02
RMM:   3    -0.696886964821E+03    0.15331E-04   -0.19790E-05  7878   0.103E-02    0.512E-02
RMM:   4    -0.696886965369E+03   -0.54768E-06   -0.70107E-06  7139   0.530E-03    0.523E-02
RMM:   5    -0.696886958512E+03    0.68569E-05   -0.23355E-06  5473   0.384E-03    0.214E-02
RMM:   6    -0.696886966760E+03   -0.82477E-05   -0.21402E-07  2377   0.281E-03    0.311E-02
RMM:   7    -0.696886971823E+03   -0.50628E-05   -0.34370E-07  2338   0.286E-03    0.281E-02
RMM:   8    -0.696886975358E+03   -0.35357E-05   -0.76796E-07  2820   0.303E-03
  30 F= -.69688698E+03 E0= -.69631478E+03  d E =-.543315E-03  mag=     2.6269
       N       E                     dE             d eps       ncg     rms          rms(c)
DAV:   1    -0.696887109401E+03   -0.13758E-03   -0.19986E-03 15104   0.665E-02    0.174E-02
RMM:   2    -0.696887123861E+03   -0.14459E-04   -0.48451E-05  7866   0.133E-02    0.347E-02
RMM:   3    -0.696887136564E+03   -0.12703E-04   -0.93920E-06  7637   0.694E-03    0.558E-02
RMM:   4    -0.696887125805E+03    0.10758E-04   -0.16798E-06  4827   0.344E-03    0.326E-02
RMM:   5    -0.696887125571E+03    0.23415E-06   -0.15714E-07  2097   0.272E-03    0.230E-02
RMM:   6    -0.696887129085E+03   -0.35140E-05   -0.26970E-07  2263   0.275E-03    0.185E-02
RMM:   7    -0.696887131893E+03   -0.28073E-05   -0.32795E-07  2350   0.285E-03    0.804E-03
RMM:   8    -0.696887134691E+03   -0.27989E-05   -0.20802E-07  1611   0.277E-03
  31 F= -.69688713E+03 E0= -.69631496E+03  d E =-.159333E-03  mag=     2.6266
       N       E                     dE             d eps       ncg     rms          rms(c)
DAV:   1    -0.696887167182E+03   -0.35290E-04   -0.12943E-03 14848   0.536E-02    0.135E-02
RMM:   2    -0.696887208273E+03   -0.41091E-04   -0.34536E-05  7845   0.107E-02    0.727E-02
RMM:   3    -0.696887179312E+03    0.28961E-04   -0.83015E-06  7610   0.641E-03    0.432E-02
RMM:   4    -0.696887178616E+03    0.69593E-06   -0.12506E-06  4244   0.330E-03    0.289E-02
RMM:   5    -0.696887177705E+03    0.91128E-06   -0.15014E-07  1973   0.264E-03    0.211E-02
RMM:   6    -0.696887177505E+03    0.19943E-06   -0.32768E-08  1443   0.244E-03    0.756E-03
RMM:   7    -0.696887181349E+03   -0.38437E-05   -0.12642E-07  1671   0.256E-03    0.837E-03
RMM:   8    -0.696887183076E+03   -0.17271E-05   -0.15551E-07  1446   0.260E-03
  32 F= -.69688718E+03 E0= -.69631502E+03  d E =-.207718E-03  mag=     2.6264
       N       E                     dE             d eps       ncg     rms          rms(c)
DAV:   1    -0.696887249930E+03   -0.68581E-04   -0.86462E-04 14864   0.393E-02    0.121E-02
RMM:   2    -0.696887277104E+03   -0.27174E-04   -0.20524E-05  7796   0.872E-03    0.608E-02
RMM:   3    -0.696887253651E+03    0.23453E-04   -0.49620E-06  6991   0.508E-03    0.287E-02
RMM:   4    -0.696887255227E+03   -0.15755E-05   -0.25942E-07  2430   0.275E-03    0.204E-02
RMM:   5    -0.696887256658E+03   -0.14312E-05   -0.18392E-08  1323   0.264E-03    0.222E-02
RMM:   6    -0.696887256375E+03    0.28296E-06   -0.50519E-08  1345   0.268E-03    0.148E-02
RMM:   7    -0.696887258701E+03   -0.23255E-05   -0.31876E-07  1956   0.291E-03    0.763E-03
RMM:   8    -0.696887260005E+03   -0.13048E-05   -0.31247E-07  1700   0.286E-03
  33 F= -.69688726E+03 E0= -.69631511E+03  d E =-.769293E-04  mag=     2.6263
       N       E                     dE             d eps       ncg     rms          rms(c)
DAV:   1    -0.696887314522E+03   -0.55821E-04   -0.35557E-03 15360   0.797E-02    0.212E-02
RMM:   2    -0.696887335216E+03   -0.20694E-04   -0.78168E-05  7892   0.175E-02    0.593E-02
RMM:   3    -0.696887327957E+03    0.72596E-05   -0.15702E-05  7700   0.903E-03    0.449E-02
RMM:   4    -0.696887321098E+03    0.68586E-05   -0.39093E-06  6183   0.422E-03    0.247E-02
RMM:   5    -0.696887324926E+03   -0.38283E-05   -0.98548E-07  3698   0.319E-03    0.309E-02
RMM:   6    -0.696887324156E+03    0.76982E-06   -0.12874E-06  4117   0.326E-03    0.273E-02
RMM:   7    -0.696887323066E+03    0.10907E-05   -0.37028E-06  5810   0.385E-03    0.137E-02
RMM:   8    -0.696887323135E+03   -0.68845E-07   -0.48295E-07  2510   0.288E-03
  34 F= -.69688732E+03 E0= -.69631519E+03  d E =-.140059E-03  mag=     2.6261
       N       E                     dE             d eps       ncg     rms          rms(c)
DAV:   1    -0.696887373801E+03   -0.50736E-04   -0.52611E-04 14848   0.304E-02    0.158E-02
RMM:   2    -0.696887483711E+03   -0.10991E-03   -0.20504E-05  7860   0.796E-03    0.128E-01
RMM:   3    -0.696887366023E+03    0.11769E-03   -0.98537E-06  7236   0.684E-03    0.365E-02
RMM:   4    -0.696887377022E+03   -0.10999E-04   -0.18579E-06  5078   0.361E-03    0.210E-02
RMM:   5    -0.696887375164E+03    0.18585E-05   -0.65397E-08  1594   0.249E-03    0.119E-02
RMM:   6    -0.696887375923E+03   -0.75876E-06   -0.31879E-08  1202   0.234E-03    0.139E-02
RMM:   7    -0.696887376417E+03   -0.49493E-06   -0.49865E-09  1187   0.232E-03    0.924E-03
RMM:   8    -0.696887376446E+03   -0.28369E-07   -0.91913E-09   982   0.242E-03
  35 F= -.69688738E+03 E0= -.69631524E+03  d E =-.533112E-04  mag=     2.6260
       N       E                     dE             d eps       ncg     rms          rms(c)
DAV:   1    -0.696887457347E+03   -0.80929E-04   -0.46852E-03 15408   0.898E-02    0.270E-02
RMM:   2    -0.696887485933E+03   -0.28587E-04   -0.94221E-05  7953   0.193E-02    0.744E-02
RMM:   3    -0.696887467625E+03    0.18308E-04   -0.18629E-05  7760   0.980E-03    0.444E-02
RMM:   4    -0.696887466554E+03    0.10715E-05   -0.48980E-06  6459   0.452E-03    0.365E-02
RMM:   5    -0.696887472887E+03   -0.63330E-05   -0.28819E-06  5699   0.387E-03    0.452E-02
RMM:   6    -0.696887468963E+03    0.39236E-05   -0.32870E-06  5853   0.385E-03    0.365E-02
RMM:   7    -0.696887467481E+03    0.14822E-05   -0.58935E-06  6567   0.447E-03    0.164E-02
RMM:   8    -0.696887467332E+03    0.14959E-06   -0.11840E-06  3731   0.326E-03
  36 F= -.69688747E+03 E0= -.69631534E+03  d E =-.144197E-03  mag=     2.6259
       N       E                     dE             d eps       ncg     rms          rms(c)
DAV:   1    -0.696887472443E+03   -0.49619E-05   -0.48874E-04 14704   0.295E-02    0.175E-02
RMM:   2    -0.696887622972E+03   -0.15053E-03   -0.23322E-05  7878   0.817E-03    0.152E-01
RMM:   3    -0.696887458736E+03    0.16424E-03   -0.12761E-05  7364   0.767E-03    0.358E-02
RMM:   4    -0.696887475902E+03   -0.17166E-04   -0.26682E-06  5629   0.402E-03    0.217E-02
RMM:   5    -0.696887473672E+03    0.22294E-05   -0.97430E-08  2062   0.260E-03    0.119E-02
RMM:   6    -0.696887474261E+03   -0.58873E-06   -0.33702E-09  1134   0.228E-03    0.101E-02
RMM:   7    -0.696887474683E+03   -0.42142E-06   -0.38483E-10  1102   0.224E-03    0.528E-03
RMM:   8    -0.696887475175E+03   -0.49280E-06   -0.39388E-10   952   0.234E-03
  37 F= -.69688748E+03 E0= -.69631534E+03  d E =-.152041E-03  mag=     2.6258
       N       E                     dE             d eps       ncg     rms          rms(c)
DAV:   1    -0.696887536784E+03   -0.62101E-04   -0.13143E-03 14960   0.460E-02    0.150E-02
RMM:   2    -0.696887543339E+03   -0.65549E-05   -0.25811E-05  7814   0.106E-02    0.332E-02
RMM:   3    -0.696887541612E+03    0.17264E-05   -0.54465E-06  7100   0.537E-03    0.263E-02
RMM:   4    -0.696887539806E+03    0.18065E-05   -0.43470E-07  2476   0.276E-03    0.199E-02
RMM:   5    -0.696887541069E+03   -0.12636E-05   -0.33447E-08  1605   0.260E-03    0.224E-02
RMM:   6    -0.696887542615E+03   -0.15458E-05   -0.12500E-07  1743   0.273E-03    0.247E-02
RMM:   7    -0.696887542344E+03    0.27088E-06   -0.97787E-07  3129   0.318E-03    0.152E-02
RMM:   8    -0.696887542397E+03   -0.52642E-07   -0.60007E-07  2842   0.307E-03
  38 F= -.69688754E+03 E0= -.69631543E+03  d E =-.672216E-04  mag=     2.6258
       N       E                     dE             d eps       ncg     rms          rms(c)
DAV:   1    -0.696887600883E+03   -0.58538E-04   -0.84535E-03 15488   0.117E-01    0.363E-02
RMM:   2    -0.696887716312E+03   -0.11543E-03   -0.17706E-04  8558   0.271E-02    0.141E-01
RMM:   3    -0.696887610455E+03    0.10586E-03   -0.39363E-05  7908   0.139E-02    0.569E-02
RMM:   4    -0.696887639948E+03   -0.29493E-04   -0.12238E-05  6969   0.681E-03    0.816E-02
RMM:   5    -0.696887652710E+03   -0.12762E-04   -0.82499E-06  7266   0.567E-03    0.850E-02
RMM:   6    -0.696887624085E+03    0.28626E-04   -0.60995E-06  6899   0.501E-03    0.607E-02
RMM:   7    -0.696887611543E+03    0.12542E-04   -0.44350E-06  6322   0.445E-03    0.206E-02
RMM:   8    -0.696887616200E+03   -0.46569E-05   -0.74229E-07  3322   0.308E-03
  39 F= -.69688762E+03 E0= -.69631550E+03  d E =-.141024E-03  mag=     2.6258
       N       E                     dE             d eps       ncg     rms          rms(c)
DAV:   1    -0.696887682521E+03   -0.70978E-04   -0.75716E-04 14864   0.338E-02    0.169E-02
RMM:   2    -0.696887734307E+03   -0.51786E-04   -0.17763E-05  7836   0.791E-03    0.858E-02
RMM:   3    -0.696887683737E+03    0.50570E-04   -0.72135E-06  7012   0.569E-03    0.433E-02
RMM:   4    -0.696887688053E+03   -0.43160E-05   -0.14847E-06  4520   0.341E-03    0.302E-02
RMM:   5    -0.696887684577E+03    0.34763E-05   -0.11821E-07  1875   0.263E-03    0.200E-02
RMM:   6    -0.696887686879E+03   -0.23020E-05   -0.23727E-07  2136   0.268E-03    0.224E-02
RMM:   7    -0.696887685065E+03    0.18138E-05   -0.22635E-08  1696   0.241E-03    0.115E-02
RMM:   8    -0.696887685360E+03   -0.29545E-06   -0.21723E-08  1163   0.245E-03
  40 F= -.69688769E+03 E0= -.69631558E+03  d E =-.691603E-04  mag=     2.6259
       N       E                     dE             d eps       ncg     rms          rms(c)
DAV:   1    -0.696887849444E+03   -0.16438E-03   -0.68057E-03 15616   0.999E-02    0.347E-02
RMM:   2    -0.696887940731E+03   -0.91288E-04   -0.13082E-04  8231   0.227E-02    0.133E-01
RMM:   3    -0.696887862782E+03    0.77949E-04   -0.28293E-05  7824   0.118E-02    0.699E-02
RMM:   4    -0.696887894237E+03   -0.31455E-04   -0.88528E-06  6756   0.565E-03    0.973E-02
RMM:   5    -0.696887856167E+03    0.38070E-04   -0.11164E-05  7386   0.610E-03    0.455E-02
RMM:   6    -0.696887860560E+03   -0.43931E-05   -0.62051E-06  6917   0.500E-03    0.399E-02
RMM:   7    -0.696887860660E+03   -0.99964E-07   -0.22156E-06  5358   0.389E-03    0.307E-02
RMM:   8    -0.696887860168E+03    0.49151E-06   -0.25089E-08  1579   0.241E-03
  41 F= -.69688786E+03 E0= -.69631579E+03  d E =-.243968E-03  mag=     2.6259
       N       E                     dE             d eps       ncg     rms          rms(c)
DAV:   1    -0.696887911060E+03   -0.50400E-04   -0.27027E-02 15328   0.200E-01    0.744E-02
RMM:   2    -0.696887994181E+03   -0.83121E-04   -0.47946E-04 12236   0.443E-02    0.142E-01
RMM:   3    -0.696887962162E+03    0.32019E-04   -0.11956E-04  8300   0.196E-02    0.882E-02
RMM:   4    -0.696888191267E+03   -0.22910E-03   -0.51648E-05  7969   0.137E-02    0.218E-01
RMM:   5    -0.696887953489E+03    0.23778E-03   -0.26514E-05  7795   0.107E-02    0.755E-02
RMM:   6    -0.696888075296E+03   -0.12181E-03   -0.40497E-05  7952   0.105E-02    0.144E-01
RMM:   7    -0.696887945676E+03    0.12962E-03   -0.19260E-05  7410   0.102E-02    0.396E-02
RMM:   8    -0.696887951153E+03   -0.54771E-05   -0.50885E-06  6164   0.413E-03
  42 F= -.69688795E+03 E0= -.69631593E+03  d E =-.334953E-03  mag=     2.6259
       N       E                     dE             d eps       ncg     rms          rms(c)
DAV:   1    -0.696887967269E+03   -0.21592E-04   -0.30611E-03 15408   0.677E-02    0.361E-02
RMM:   2    -0.696888215240E+03   -0.24797E-03   -0.90368E-05  7992   0.186E-02    0.206E-01
RMM:   3    -0.696887963601E+03    0.25164E-03   -0.29302E-05  7866   0.123E-02    0.698E-02
RMM:   4    -0.696887975028E+03   -0.11427E-04   -0.86329E-06  6979   0.624E-03    0.448E-02
RMM:   5    -0.696887974831E+03    0.19654E-06   -0.22159E-06  5311   0.381E-03    0.399E-02
RMM:   6    -0.696887978829E+03   -0.39977E-05   -0.29061E-06  5289   0.366E-03    0.481E-02
RMM:   7    -0.696887967265E+03    0.11564E-04   -0.31761E-06  5543   0.369E-03    0.211E-02
RMM:   8    -0.696887969870E+03   -0.26050E-05   -0.72008E-07  3220   0.311E-03
  43 F= -.69688797E+03 E0= -.69631595E+03  d E =-.353670E-03  mag=     2.6260
       N       E                     dE             d eps       ncg     rms          rms(c)
DAV:   1    -0.696888069742E+03   -0.10248E-03   -0.26813E-03 15120   0.691E-02    0.215E-02
RMM:   2    -0.696888092797E+03   -0.23055E-04   -0.58908E-05  7868   0.157E-02    0.734E-02
RMM:   3    -0.696888072985E+03    0.19812E-04   -0.11533E-05  7659   0.789E-03    0.400E-02
RMM:   4    -0.696888094325E+03   -0.21340E-04   -0.36136E-06  5687   0.389E-03    0.674E-02
RMM:   5    -0.696888074601E+03    0.19724E-04   -0.35739E-06  6079   0.415E-03    0.344E-02
RMM:   6    -0.696888075107E+03   -0.50550E-06   -0.21815E-06  4792   0.351E-03    0.321E-02
RMM:   7    -0.696888073235E+03    0.18717E-05   -0.39251E-07  2815   0.299E-03    0.155E-02
RMM:   8    -0.696888074794E+03   -0.15594E-05   -0.50846E-08  1347   0.270E-03
  44 F= -.69688807E+03 E0= -.69631609E+03  d E =-.104924E-03  mag=     2.6261
       N       E                     dE             d eps       ncg     rms          rms(c)
DAV:   1    -0.696888093517E+03   -0.20282E-04   -0.82384E-04 14768   0.383E-02    0.165E-02
RMM:   2    -0.696888099133E+03   -0.56158E-05   -0.17223E-05  7831   0.830E-03    0.300E-02
RMM:   3    -0.696888096082E+03    0.30511E-05   -0.33717E-06  6654   0.445E-03    0.206E-02
RMM:   4    -0.696888097186E+03   -0.11041E-05   -0.49470E-08  1730   0.241E-03    0.177E-02
RMM:   5    -0.696888099829E+03   -0.26429E-05   -0.26625E-07  2145   0.266E-03    0.263E-02
RMM:   6    -0.696888097244E+03    0.25844E-05   -0.10959E-07  1998   0.249E-03    0.191E-02
RMM:   7    -0.696888095627E+03    0.16169E-05   -0.36606E-09  1118   0.237E-03    0.953E-03
RMM:   8    -0.696888096192E+03   -0.56446E-06    0.00000E+00  1029   0.234E-03
  45 F= -.69688810E+03 E0= -.69631613E+03  d E =-.126321E-03  mag=     2.6261
       N       E                     dE             d eps       ncg     rms          rms(c)
DAV:   1    -0.696888158713E+03   -0.63086E-04   -0.86214E-04 14848   0.425E-02    0.889E-03
RMM:   2    -0.696888161001E+03   -0.22887E-05   -0.18843E-05  7790   0.886E-03    0.190E-02
RMM:   3    -0.696888160152E+03    0.84952E-06   -0.27783E-06  6012   0.420E-03    0.978E-03
RMM:   4    -0.696888164837E+03   -0.46848E-05   -0.14833E-07  1842   0.254E-03    0.256E-02
RMM:   5    -0.696888159823E+03    0.50136E-05   -0.23129E-08  1550   0.245E-03    0.100E-02
RMM:   6    -0.696888161125E+03   -0.13017E-05   -0.27406E-08  1290   0.241E-03    0.902E-03
RMM:   7    -0.696888161038E+03    0.87100E-07   -0.21673E-08  1110   0.243E-03    0.489E-03
RMM:   8    -0.696888161228E+03   -0.19032E-06   -0.27854E-08  1022   0.246E-03
  46 F= -.69688816E+03 E0= -.69631621E+03  d E =-.650364E-04  mag=     2.6260
       N       E                     dE             d eps       ncg     rms          rms(c)
DAV:   1    -0.696888183323E+03   -0.22285E-04   -0.17793E-03 15040   0.612E-02    0.131E-02
RMM:   2    -0.696888187516E+03   -0.41930E-05   -0.39135E-05  7796   0.127E-02    0.267E-02
RMM:   3    -0.696888186690E+03    0.82515E-06   -0.65330E-06  7280   0.594E-03    0.159E-02
RMM:   4    -0.696888194237E+03   -0.75468E-05   -0.91688E-07  3305   0.304E-03    0.352E-02
RMM:   5    -0.696888185843E+03    0.83938E-05   -0.47890E-07  2827   0.296E-03    0.191E-02
RMM:   6    -0.696888188447E+03   -0.26036E-05   -0.18443E-07  2127   0.286E-03    0.188E-02
RMM:   7    -0.696888186715E+03    0.17321E-05   -0.10395E-07  1541   0.279E-03    0.110E-02
RMM:   8    -0.696888187067E+03   -0.35209E-06   -0.20437E-07  1470   0.285E-03
  47 F= -.69688819E+03 E0= -.69631626E+03  d E =-.908753E-04  mag=     2.6260
       N       E                     dE             d eps       ncg     rms          rms(c)
DAV:   1    -0.696888223279E+03   -0.36564E-04   -0.97766E-04 14896   0.417E-02    0.110E-02
RMM:   2    -0.696888229951E+03   -0.66720E-05   -0.20156E-05  7791   0.882E-03    0.299E-02
RMM:   3    -0.696888227154E+03    0.27973E-05   -0.39957E-06  6715   0.463E-03    0.257E-02
RMM:   4    -0.696888224609E+03    0.25451E-05   -0.20675E-07  2292   0.268E-03    0.900E-03
RMM:   5    -0.696888225756E+03   -0.11478E-05   -0.34679E-08  1617   0.261E-03    0.102E-02
RMM:   6    -0.696888225745E+03    0.11118E-07   -0.98629E-08  1627   0.270E-03    0.100E-02
RMM:   7    -0.696888225240E+03    0.50500E-06   -0.79974E-08  1306   0.271E-03    0.484E-03
RMM:   8    -0.696888225367E+03   -0.12683E-06   -0.21428E-08   938   0.268E-03
  48 F= -.69688823E+03 E0= -.69631632E+03  d E =-.383001E-04  mag=     2.6260
       N       E                     dE             d eps       ncg     rms          rms(c)
DAV:   1    -0.696888235036E+03   -0.97953E-05   -0.61916E-04 14880   0.331E-02    0.725E-03
RMM:   2    -0.696888237560E+03   -0.25246E-05   -0.13142E-05  7712   0.736E-03    0.186E-02
RMM:   3    -0.696888236059E+03    0.15011E-05   -0.17299E-06  4730   0.363E-03    0.125E-02
RMM:   4    -0.696888236344E+03   -0.28462E-06   -0.13951E-07  1842   0.257E-03    0.862E-03
RMM:   5    -0.696888236697E+03   -0.35304E-06   -0.51847E-09  1279   0.248E-03    0.102E-02
RMM:   6    -0.696888236268E+03    0.42884E-06   -0.62945E-09  1218   0.251E-03    0.676E-03
RMM:   7    -0.696888236193E+03    0.74957E-07   -0.41506E-08  1060   0.258E-03    0.315E-03
RMM:   8    -0.696888236277E+03   -0.84001E-07   -0.11533E-08   848   0.255E-03
  49 F= -.69688824E+03 E0= -.69631634E+03  d E =-.492099E-04  mag=     2.6259
