 ----------------------------------------------------
    OOO  PPPP  EEEEE N   N M   M PPPP
   O   O P   P E     NN  N MM MM P   P
   O   O PPPP  EEEEE N N N M M M PPPP   -- VERSION
   O   O P     E     N  NN M   M P
    OOO  P     EEEEE N   N M   M P
 ----------------------------------------------------
 running   16 mpi-ranks, with    4 threads/rank
 distrk:  each k-point on   16 cores,    1 groups
 distr:  one band on    1 cores,   16 groups
 vasp.6.2.1 16May21 (build Jul 28 2021 23:24:15) complex                        
  
 POSCAR found type information on POSCAR H IrO 
 POSCAR found :  3 types and     112 ions
 scaLAPACK will be used
 -----------------------------------------------------------------------------
|                                                                             |
|           W    W    AA    RRRRR   N    N  II  N    N   GGGG   !!!           |
|           W    W   A  A   R    R  NN   N  II  NN   N  G    G  !!!           |
|           W    W  A    A  R    R  N N  N  II  N N  N  G       !!!           |
|           W WW W  AAAAAA  RRRRR   N  N N  II  N  N N  G  GGG   !            |
|           WW  WW  A    A  R   R   N   NN  II  N   NN  G    G                |
|           W    W  A    A  R    R  N    N  II  N    N   GGGG   !!!           |
|                                                                             |
|     The real-space projection scheme for the treatment of the non-local     |
|     pseudopotentials has been switched on but on file POTCAR I have not     |
|     found any entries, signalling me that you have never performed a        |
|     real-space optimization of all non-local projectors! BE WARNED that     |
|     a calculation using the real-space projection scheme together with      |
|     non-local projectors which were not real-space optimized (according     |
|     to the plane-wave cutoff used in this calculation) might give more      |
|     or less inaccurate results. I hope you know what you are doing.         |
|                                                                             |
 -----------------------------------------------------------------------------

 LDA part: xc-table for Pade appr. of Perdew
 POSCAR, INCAR and KPOINTS ok, starting setup
 FFT: planning ...
 WAVECAR not read
 WARNING: random wavefunctions but no delay for mixing, default for NELMDL
 entering main loop
       N       E                     dE             d eps       ncg     rms          rms(c)
DAV:   1     0.781463441117E+04    0.78146E+04   -0.31241E+05 13648   0.127E+03
DAV:   2     0.584278324219E+03   -0.72304E+04   -0.65392E+04 14496   0.374E+02
DAV:   3    -0.807455716855E+03   -0.13917E+04   -0.13360E+04 16688   0.165E+02
DAV:   4    -0.884822892824E+03   -0.77367E+02   -0.75546E+02 18576   0.436E+01
DAV:   5    -0.886522941632E+03   -0.17000E+01   -0.16784E+01 17376   0.598E+00    0.190E+02
RMM:   6    -0.744597059876E+03    0.14193E+03   -0.66609E+02 13483   0.407E+01    0.192E+02
RMM:   7    -0.108676606699E+04   -0.34217E+03   -0.23070E+02 14277   0.229E+01    0.364E+02
RMM:   8    -0.924401802785E+03    0.16236E+03   -0.57439E+01 16390   0.861E+00    0.311E+02
RMM:   9    -0.121865190345E+04   -0.29425E+03   -0.12748E+02 15998   0.157E+01    0.390E+02
RMM:  10    -0.811193630518E+03    0.40746E+03   -0.22342E+02 17661   0.198E+01    0.147E+02
RMM:  11    -0.688775523589E+03    0.12242E+03   -0.89641E+01 14627   0.160E+01    0.107E+02
RMM:  12    -0.647104586628E+03    0.41671E+02   -0.31806E+01 13497   0.871E+00    0.761E+01
RMM:  13    -0.647265694824E+03   -0.16111E+00   -0.14019E+01 14158   0.628E+00    0.567E+01
RMM:  14    -0.665395653180E+03   -0.18130E+02   -0.13717E+01 13592   0.555E+00    0.530E+01
RMM:  15    -0.667740770229E+03   -0.23451E+01   -0.84223E+00 13887   0.444E+00    0.350E+01
RMM:  16    -0.673811334161E+03   -0.60706E+01   -0.82236E+00 14387   0.386E+00    0.307E+01
RMM:  17    -0.688013403558E+03   -0.14202E+02   -0.98075E+00 15444   0.438E+00    0.232E+01
RMM:  18    -0.699048919442E+03   -0.11036E+02   -0.48731E+00 13812   0.329E+00    0.194E+01
RMM:  19    -0.707766516279E+03   -0.87176E+01   -0.56799E+00 14644   0.320E+00    0.216E+01
RMM:  20    -0.712084090835E+03   -0.43176E+01   -0.28618E+00 13846   0.247E+00    0.211E+01
RMM:  21    -0.716104908894E+03   -0.40208E+01   -0.22345E+00 14276   0.217E+00    0.177E+01
RMM:  22    -0.717885925339E+03   -0.17810E+01   -0.74733E-01 13597   0.127E+00    0.144E+01
RMM:  23    -0.718392204346E+03   -0.50628E+00   -0.30783E-01 14008   0.811E-01    0.127E+01
RMM:  24    -0.720013764515E+03   -0.16216E+01   -0.55115E-01 14779   0.998E-01    0.115E+01
RMM:  25    -0.722643074942E+03   -0.26293E+01   -0.73254E-01 16087   0.114E+00    0.983E+00
RMM:  26    -0.728102743928E+03   -0.54597E+01   -0.16985E+00 18057   0.158E+00    0.115E+01
RMM:  27    -0.730582986156E+03   -0.24802E+01   -0.12238E+00 16344   0.130E+00    0.959E+00
RMM:  28    -0.733126900157E+03   -0.25439E+01   -0.49115E-01 15151   0.892E-01    0.689E+00
RMM:  29    -0.735261397235E+03   -0.21345E+01   -0.23925E-01 14250   0.629E-01    0.597E+00
RMM:  30    -0.736158780022E+03   -0.89738E+00   -0.10440E-01 13963   0.430E-01    0.534E+00
RMM:  31    -0.737144055732E+03   -0.98528E+00   -0.15418E-01 14921   0.454E-01    0.437E+00
RMM:  32    -0.737385401618E+03   -0.24135E+00   -0.10422E-01 14789   0.390E-01    0.398E+00
RMM:  33    -0.737442616969E+03   -0.57215E-01   -0.37244E-02 13766   0.266E-01    0.341E+00
RMM:  34    -0.737938558036E+03   -0.49594E+00   -0.41547E-02 14494   0.260E-01    0.280E+00
RMM:  35    -0.738715247944E+03   -0.77669E+00   -0.63219E-02 15699   0.298E-01    0.224E+00
RMM:  36    -0.738993117601E+03   -0.27787E+00   -0.29333E-02 14427   0.222E-01    0.183E+00
RMM:  37    -0.739314700348E+03   -0.32158E+00   -0.50763E-02 16215   0.264E-01    0.151E+00
RMM:  38    -0.739317807924E+03   -0.31076E-02   -0.24585E-02 14715   0.191E-01    0.163E+00
RMM:  39    -0.739388566487E+03   -0.70759E-01   -0.11234E-02 14022   0.140E-01    0.167E+00
RMM:  40    -0.739529549759E+03   -0.14098E+00   -0.59288E-03 13936   0.104E-01    0.161E+00
RMM:  41    -0.739625004418E+03   -0.95455E-01   -0.47023E-03 14015   0.842E-02    0.141E+00
RMM:  42    -0.739664329544E+03   -0.39325E-01   -0.30698E-03 13843   0.713E-02    0.114E+00
RMM:  43    -0.739713316060E+03   -0.48987E-01   -0.28744E-03 14198   0.683E-02    0.899E-01
RMM:  44    -0.739761200890E+03   -0.47885E-01   -0.13431E-03 13248   0.512E-02    0.783E-01
RMM:  45    -0.739828034465E+03   -0.66834E-01   -0.15072E-03 13658   0.490E-02    0.620E-01
RMM:  46    -0.739878489633E+03   -0.50455E-01   -0.91400E-04 12474   0.382E-02    0.475E-01
RMM:  47    -0.739913464338E+03   -0.34975E-01   -0.71179E-04 11989   0.329E-02    0.372E-01
RMM:  48    -0.739942077374E+03   -0.28613E-01   -0.63295E-04 11765   0.303E-02    0.292E-01
RMM:  49    -0.739975332894E+03   -0.33256E-01   -0.76192E-04 12110   0.316E-02    0.208E-01
RMM:  50    -0.739998288792E+03   -0.22956E-01   -0.30642E-04  9555   0.227E-02    0.159E-01
RMM:  51    -0.739972712153E+03    0.25577E-01   -0.77882E-04 11803   0.295E-02    0.118E-01
RMM:  52    -0.739995156764E+03   -0.22445E-01   -0.71737E-05  8206   0.157E-02    0.933E-02
RMM:  53    -0.740017131930E+03   -0.21975E-01   -0.61505E-05  8220   0.109E-02    0.801E-02
RMM:  54    -0.740028044788E+03   -0.10913E-01   -0.48863E-05  8076   0.964E-03    0.645E-02
RMM:  55    -0.740031037267E+03   -0.29925E-02   -0.18829E-05  7256   0.701E-03    0.483E-02
RMM:  56    -0.740031212420E+03   -0.17515E-03   -0.26596E-05  7946   0.701E-03    0.295E-02
RMM:  57    -0.740033102683E+03   -0.18903E-02   -0.84321E-06  6261   0.483E-03    0.222E-02
RMM:  58    -0.740033858593E+03   -0.75591E-03   -0.36976E-06  4496   0.345E-03    0.171E-02
RMM:  59    -0.740034153884E+03   -0.29529E-03   -0.19066E-06  3837   0.319E-03    0.137E-02
RMM:  60    -0.740034279534E+03   -0.12565E-03   -0.14400E-06  3551   0.305E-03    0.106E-02
RMM:  61    -0.740034322806E+03   -0.43273E-04   -0.10811E-06  3536   0.304E-03
   1 F= -.74003432E+03 E0= -.73940110E+03  d E =-.740034E+03  mag=    -0.0009
 curvature:   0.00 expect dE= 0.000E+00 dE for cont linesearch  0.000E+00
 trial: gam= 0.00000 g(F)=  0.128E+02 g(S)=  0.000E+00 ort = 0.000E+00 (trialstep = 0.100E+01)
 search vector abs. value=  0.128E+02
 bond charge predicted
       N       E                     dE             d eps       ncg     rms          rms(c)
DAV:   1    -0.716243841710E+03    0.23790E+02   -0.27668E+03 13456   0.809E+01    0.149E+01
RMM:   2    -0.729193125065E+03   -0.12949E+02   -0.11132E+02 13440   0.165E+01    0.351E+01
RMM:   3    -0.727928606700E+03    0.12645E+01   -0.16567E+01 13917   0.624E+00    0.196E+01
RMM:   4    -0.726965318309E+03    0.96329E+00   -0.26751E+00 13866   0.302E+00    0.181E+01
RMM:   5    -0.725345679049E+03    0.16196E+01   -0.10421E+00 13444   0.192E+00    0.120E+01
RMM:   6    -0.726032796585E+03   -0.68712E+00   -0.10211E+00 13893   0.151E+00    0.155E+01
RMM:   7    -0.725356865648E+03    0.67593E+00   -0.64744E-01 13822   0.129E+00    0.100E+01
RMM:   8    -0.724754508921E+03    0.60236E+00   -0.30840E-01 13444   0.886E-01    0.173E+00
RMM:   9    -0.724731485806E+03    0.23023E-01   -0.63958E-02 13856   0.437E-01    0.120E+00
RMM:  10    -0.724737347657E+03   -0.58619E-02   -0.27527E-02 14929   0.224E-01    0.144E+00
RMM:  11    -0.724736832926E+03    0.51473E-03   -0.97646E-03 13440   0.154E-01    0.154E+00
RMM:  12    -0.724727425218E+03    0.94077E-02   -0.15724E-02 14164   0.181E-01    0.952E-01
RMM:  13    -0.724722911680E+03    0.45135E-02   -0.45202E-03 13293   0.112E-01    0.260E-01
RMM:  14    -0.724723163574E+03   -0.25189E-03   -0.17332E-03 14398   0.608E-02    0.220E-01
RMM:  15    -0.724723427088E+03   -0.26351E-03   -0.27777E-04  9174   0.243E-02    0.203E-01
RMM:  16    -0.724723781168E+03   -0.35408E-03   -0.17136E-04  8411   0.222E-02    0.138E-01
RMM:  17    -0.724724465950E+03   -0.68478E-03   -0.22700E-04  8677   0.212E-02    0.870E-02
RMM:  18    -0.724724806449E+03   -0.34050E-03   -0.65074E-05  8104   0.145E-02    0.619E-02
RMM:  19    -0.724725055806E+03   -0.24936E-03   -0.43260E-05  7864   0.101E-02    0.534E-02
RMM:  20    -0.724725224934E+03   -0.16913E-03   -0.25257E-05  7496   0.749E-03    0.453E-02
RMM:  21    -0.724725413661E+03   -0.18873E-03   -0.22031E-05  7233   0.639E-03    0.377E-02
RMM:  22    -0.724725783722E+03   -0.37006E-03   -0.53996E-05  7687   0.804E-03    0.269E-02
RMM:  23    -0.724725974568E+03   -0.19085E-03   -0.25012E-05  6794   0.664E-03    0.231E-02
RMM:  24    -0.724726039052E+03   -0.64484E-04   -0.91419E-06  5468   0.490E-03
   2 F= -.72472604E+03 E0= -.72412355E+03  d E =0.153083E+02  mag=    -0.0001
 trial-energy change:   15.308284  1 .order   27.219365  -12.817650   67.256380
 step:   0.1601(harm=  0.1601)  dis= 0.02293  next Energy=  -741.060199 (dE=-0.103E+01)
 bond charge predicted
       N       E                     dE             d eps       ncg     rms          rms(c)
DAV:   1    -0.739223302467E+03   -0.14497E+02   -0.19799E+03 13760   0.698E+01    0.287E+01
RMM:   2    -0.830768083621E+03   -0.91545E+02   -0.18604E+02 13626   0.155E+01    0.125E+02
RMM:   3    -0.776521861938E+03    0.54246E+02   -0.28107E+01 14015   0.832E+00    0.446E+01
RMM:   4    -0.757332648450E+03    0.19189E+02   -0.12302E+01 13450   0.529E+00    0.342E+01
RMM:   5    -0.746058766653E+03    0.11274E+02   -0.61249E+00 13566   0.446E+00    0.174E+01
RMM:   6    -0.745423393608E+03    0.63537E+00   -0.34057E+00 14006   0.251E+00    0.176E+01
RMM:   7    -0.742597356062E+03    0.28260E+01   -0.30195E+00 15353   0.206E+00    0.101E+01
RMM:   8    -0.741983588719E+03    0.61377E+00   -0.10062E+00 15186   0.126E+00    0.797E+00
RMM:   9    -0.741648944467E+03    0.33464E+00   -0.49422E-01 13833   0.104E+00    0.579E+00
RMM:  10    -0.741453509410E+03    0.19544E+00   -0.52248E-01 14136   0.883E-01    0.337E+00
RMM:  11    -0.741478819408E+03   -0.25310E-01   -0.20812E-01 16301   0.598E-01    0.306E+00
RMM:  12    -0.741458472154E+03    0.20347E-01   -0.27465E-02 14243   0.241E-01    0.252E+00
RMM:  13    -0.741446229960E+03    0.12242E-01   -0.13110E-02 13339   0.175E-01    0.216E+00
RMM:  14    -0.741444537726E+03    0.16922E-02   -0.93091E-03 13436   0.131E-01    0.187E+00
RMM:  15    -0.741442248448E+03    0.22893E-02   -0.26040E-03 13072   0.830E-02    0.174E+00
RMM:  16    -0.741440929404E+03    0.13190E-02   -0.17066E-03 12835   0.637E-02    0.154E+00
RMM:  17    -0.741440866488E+03    0.62916E-04   -0.71326E-04 12162   0.399E-02
   3 F= -.74144087E+03 E0= -.74081154E+03  d E =-.140654E+01  mag=    -0.0000
 curvature:  -0.08 expect dE=-0.436E+00 dE for cont linesearch -0.296E+00
 ZBRENT: interpolating
 opt :   0.2381  next Energy=  -741.709646 (dE=-0.168E+01)
 bond charge predicted
       N       E                     dE             d eps       ncg     rms          rms(c)
DAV:   1    -0.741892330414E+03   -0.45140E+00   -0.17019E+01 13936   0.638E+00    0.154E+00
RMM:   2    -0.741965424865E+03   -0.73094E-01   -0.45341E-01 13440   0.115E+00    0.277E+00
RMM:   3    -0.742024318495E+03   -0.58894E-01   -0.68342E-02 13535   0.481E-01    0.404E+00
RMM:   4    -0.741923609864E+03    0.10071E+00   -0.21237E-02 13613   0.277E-01    0.802E-01
RMM:   5    -0.741924230461E+03   -0.62060E-03   -0.90915E-03 13401   0.166E-01    0.994E-01
RMM:   6    -0.741921537707E+03    0.26928E-02   -0.46462E-03 13450   0.127E-01    0.739E-01
RMM:   7    -0.741919311428E+03    0.22263E-02   -0.33508E-03 13405   0.950E-02    0.434E-01
RMM:   8    -0.741918898932E+03    0.41250E-03   -0.15849E-03 12866   0.703E-02    0.342E-01
RMM:   9    -0.741918336486E+03    0.56245E-03   -0.59874E-04 11552   0.353E-02    0.114E-01
RMM:  10    -0.741918285436E+03    0.51049E-04   -0.10286E-04  8112   0.183E-02
   4 F= -.74191829E+03 E0= -.74129459E+03  d E =-.188396E+01  mag=     0.0000
 curvature:  -0.07 expect dE=-0.204E+00 dE for cont linesearch -0.753E-01
 ZBRENT: interpolating
 opt :   0.3213  next Energy=  -742.077845 (dE=-0.204E+01)
 bond charge predicted
       N       E                     dE             d eps       ncg     rms          rms(c)
DAV:   1    -0.742060701874E+03   -0.14237E+00   -0.19581E+01 13872   0.688E+00    0.155E+00
RMM:   2    -0.742446565242E+03   -0.38586E+00   -0.56714E-01 13440   0.126E+00    0.804E+00
RMM:   3    -0.742105389102E+03    0.34118E+00   -0.75902E-02 13496   0.548E-01    0.169E+00
RMM:   4    -0.742118088154E+03   -0.12699E-01   -0.27865E-02 13535   0.307E-01    0.245E+00
RMM:   5    -0.742102018496E+03    0.16070E-01   -0.10727E-02 13669   0.191E-01    0.195E+00
RMM:   6    -0.742099884722E+03    0.21338E-02   -0.49562E-03 13304   0.116E-01    0.166E+00
RMM:   7    -0.742089522161E+03    0.10363E-01   -0.66229E-03 14398   0.120E-01    0.868E-01
RMM:   8    -0.742084473968E+03    0.50482E-02   -0.25672E-03 13005   0.897E-02    0.265E-01
RMM:   9    -0.742084625478E+03   -0.15151E-03   -0.10499E-03 12756   0.422E-02    0.222E-01
RMM:  10    -0.742084646357E+03   -0.20880E-04   -0.10549E-04  8127   0.203E-02
   5 F= -.74208465E+03 E0= -.74146229E+03  d E =-.205032E+01  mag=     0.0000
 curvature:  -0.15 expect dE=-0.302E+00 dE for cont linesearch -0.182E-01
 ZBRENT: bisectioning
 opt :   0.6607  next Energy=  -740.832798 (dE=-0.798E+00)
 bond charge predicted
       N       E                     dE             d eps       ncg     rms          rms(c)
DAV:   1    -0.738907290612E+03    0.31773E+01   -0.32873E+02 13552   0.284E+01    0.579E+00
RMM:   2    -0.742433800716E+03   -0.35265E+01   -0.93786E+00 13440   0.508E+00    0.252E+01
RMM:   3    -0.739803134271E+03    0.26307E+01   -0.12981E+00 13458   0.219E+00    0.813E+00
RMM:   4    -0.739602311069E+03    0.20082E+00   -0.44123E-01 13606   0.124E+00    0.662E+00
RMM:   5    -0.739424321540E+03    0.17799E+00   -0.12697E-01 13473   0.710E-01    0.513E+00
RMM:   6    -0.739433335224E+03   -0.90137E-02   -0.81304E-02 13562   0.452E-01    0.471E+00
RMM:   7    -0.739380133206E+03    0.53202E-01   -0.62042E-02 13709   0.406E-01    0.326E+00
RMM:   8    -0.739322547191E+03    0.57586E-01   -0.29014E-02 13467   0.335E-01    0.171E+00
RMM:   9    -0.739314162356E+03    0.83848E-02   -0.11858E-02 13646   0.177E-01    0.953E-01
RMM:  10    -0.739313503996E+03    0.65836E-03   -0.37442E-03 15202   0.940E-02    0.859E-01
RMM:  11    -0.739312353648E+03    0.11503E-02   -0.71963E-04 12197   0.386E-02    0.755E-01
RMM:  12    -0.739309382308E+03    0.29713E-02   -0.14858E-03 13293   0.502E-02    0.407E-01
RMM:  13    -0.739308580278E+03    0.80203E-03   -0.71804E-04 12119   0.358E-02    0.150E-01
RMM:  14    -0.739308616508E+03   -0.36230E-04   -0.15999E-04  8396   0.220E-02
   6 F= -.73930862E+03 E0= -.73869783E+03  d E =0.725706E+00  mag=     0.0000
 curvature:  10.57 expect dE= 0.646E+03 dE for cont linesearch  0.472E+03
 ZBRENT: interpolating
 opt :   0.3380  next Energy=  -742.094877 (dE=-0.206E+01)
 bond charge predicted
       N       E                     dE             d eps       ncg     rms          rms(c)
DAV:   1    -0.741955597783E+03   -0.26470E+01   -0.29742E+02 13568   0.276E+01    0.891E+00
RMM:   2    -0.754441497657E+03   -0.12486E+02   -0.15266E+01 13481   0.575E+00    0.391E+01
RMM:   3    -0.744401792980E+03    0.10040E+02   -0.21363E+00 13563   0.293E+00    0.116E+01
RMM:   4    -0.743556832845E+03    0.84496E+00   -0.84664E-01 13440   0.158E+00    0.126E+01
RMM:   5    -0.742396708464E+03    0.11601E+01   -0.48647E-01 13643   0.116E+00    0.637E+00
RMM:   6    -0.742156810494E+03    0.23990E+00   -0.91025E-01 15247   0.110E+00    0.305E+00
RMM:   7    -0.742166342515E+03   -0.95320E-02   -0.13401E-01 14431   0.563E-01    0.273E+00
RMM:   8    -0.742182053404E+03   -0.15711E-01   -0.13319E-01 13711   0.489E-01    0.345E+00
RMM:   9    -0.742110767741E+03    0.71286E-01   -0.18583E-02 13536   0.263E-01    0.119E+00
RMM:  10    -0.742102690041E+03    0.80777E-02   -0.54056E-03 13781   0.125E-01    0.830E-01
RMM:  11    -0.742101635782E+03    0.10543E-02   -0.26527E-03 13386   0.734E-02    0.712E-01
RMM:  12    -0.742101652496E+03   -0.16715E-04   -0.15989E-03 13311   0.501E-02    0.526E-01
RMM:  13    -0.742100747547E+03    0.90495E-03   -0.42086E-04 10775   0.328E-02    0.305E-01
RMM:  14    -0.742100457828E+03    0.28972E-03   -0.28294E-04  9535   0.258E-02    0.204E-01
RMM:  15    -0.742100452055E+03    0.57724E-05   -0.77093E-05  7935   0.158E-02
   7 F= -.74210045E+03 E0= -.74147977E+03  d E =-.206613E+01  mag=     0.0000
 curvature:  -0.00 expect dE=-0.440E-03 dE for cont linesearch -0.368E-05
 ZBRENT: interpolating
 opt :   0.3475  next Energy=  -742.102647 (dE=-0.207E+01)
 bond charge predicted
       N       E                     dE             d eps       ncg     rms          rms(c)
DAV:   1    -0.742099867750E+03    0.59008E-03   -0.25592E-01 13728   0.791E-01    0.178E-01
RMM:   2    -0.742102783112E+03   -0.29154E-02   -0.69652E-03 13348   0.144E-01    0.634E-01
RMM:   3    -0.742100845191E+03    0.19379E-02   -0.94356E-04 12628   0.608E-02    0.264E-01
RMM:   4    -0.742100579494E+03    0.26570E-03   -0.32973E-04  9829   0.334E-02    0.175E-01
RMM:   5    -0.742100461249E+03    0.11825E-03   -0.14176E-04  7853   0.233E-02    0.934E-02
RMM:   6    -0.742100507366E+03   -0.46117E-04   -0.92783E-05  7684   0.178E-02    0.923E-02
RMM:   7    -0.742100497124E+03    0.10242E-04   -0.57883E-05  7631   0.150E-02    0.485E-02
RMM:   8    -0.742100498496E+03   -0.13721E-05   -0.20356E-05  6890   0.951E-03
   8 F= -.74210050E+03 E0= -.74148113E+03  d E =-.206618E+01  mag=     0.0000
 curvature:  -0.14 expect dE=-0.279E+00 dE for cont linesearch -0.273E-02
 ZBRENT: interpolating
 opt :   0.3424  next Energy=  -742.101470 (dE=-0.207E+01)
 bond charge predicted
       N       E                     dE             d eps       ncg     rms          rms(c)
DAV:   1    -0.742101601723E+03   -0.11046E-02   -0.71692E-02 14112   0.419E-01    0.985E-02
RMM:   2    -0.742103117086E+03   -0.15154E-02   -0.21962E-03 12976   0.787E-02    0.467E-01
RMM:   3    -0.742101763748E+03    0.13533E-02   -0.29334E-04  8947   0.342E-02    0.115E-01
RMM:   4    -0.742101790540E+03   -0.26792E-04   -0.12025E-04  7669   0.218E-02    0.145E-01
RMM:   5    -0.742101730847E+03    0.59693E-04   -0.50971E-05  7346   0.140E-02    0.103E-01
RMM:   6    -0.742101709115E+03    0.21732E-04   -0.31148E-05  7014   0.996E-03    0.666E-02
RMM:   7    -0.742101710001E+03   -0.88655E-06   -0.21398E-05  6788   0.856E-03    0.439E-02
RMM:   8    -0.742101705983E+03    0.40185E-05   -0.88206E-06  6525   0.627E-03
   9 F= -.74210171E+03 E0= -.74148215E+03  d E =-.206738E+01  mag=     0.0000
 curvature:  -0.05 expect dE=-0.990E-01 dE for cont linesearch -0.454E-05
 trial: gam= 0.14901 g(F)=  0.194E+01 g(S)=  0.000E+00 ort = 0.338E-01 (trialstep = 0.868E+00)
 search vector abs. value=  0.224E+01
 bond charge predicted
       N       E                     dE             d eps       ncg     rms          rms(c)
DAV:   1    -0.740786303200E+03    0.13154E+01   -0.35927E+02 13440   0.299E+01    0.553E+00
RMM:   2    -0.742155553664E+03   -0.13693E+01   -0.81780E+00 13440   0.571E+00    0.114E+01
RMM:   3    -0.742437547588E+03   -0.28199E+00   -0.16718E+00 14037   0.241E+00    0.126E+01
RMM:   4    -0.741610664722E+03    0.82688E+00   -0.44221E-01 14234   0.121E+00    0.422E+00
RMM:   5    -0.741530077560E+03    0.80587E-01   -0.13836E-01 13493   0.703E-01    0.241E+00
RMM:   6    -0.741572946519E+03   -0.42869E-01   -0.10449E-01 13456   0.535E-01    0.372E+00
RMM:   7    -0.741520736042E+03    0.52210E-01   -0.49852E-02 13458   0.403E-01    0.202E+00
RMM:   8    -0.741508649412E+03    0.12087E-01   -0.39512E-02 13814   0.303E-01    0.114E+00
RMM:   9    -0.741500010304E+03    0.86391E-02   -0.10667E-02 13628   0.196E-01    0.409E-01
RMM:  10    -0.741499541875E+03    0.46843E-03   -0.47129E-03 15294   0.858E-02    0.257E-01
RMM:  11    -0.741499083219E+03    0.45866E-03   -0.14530E-03 12749   0.531E-02    0.226E-01
RMM:  12    -0.741498943844E+03    0.13937E-03   -0.11542E-03 12773   0.482E-02    0.133E-01
RMM:  13    -0.741498949329E+03   -0.54846E-05   -0.38900E-04 10484   0.319E-02
  10 F= -.74149895E+03 E0= -.74087718E+03  d E =0.602757E+00  mag=     0.0000
 trial-energy change:    0.602757  1 .order   -0.198113   -1.692477    1.296251
 step:   0.4918(harm=  0.4918)  dis= 0.02305  next Energy=  -742.580920 (dE=-0.479E+00)
 bond charge predicted
       N       E                     dE             d eps       ncg     rms          rms(c)
DAV:   1    -0.742014201548E+03   -0.51526E+00   -0.67727E+01 13568   0.130E+01    0.219E+00
RMM:   2    -0.742242015660E+03   -0.22781E+00   -0.14346E+00 13440   0.237E+00    0.448E+00
RMM:   3    -0.742266305713E+03   -0.24290E-01   -0.28391E-01 14091   0.988E-01    0.447E+00
RMM:   4    -0.742161155653E+03    0.10515E+00   -0.71274E-02 14272   0.488E-01    0.179E+00
RMM:   5    -0.742150251356E+03    0.10904E-01   -0.20338E-02 13534   0.277E-01    0.133E+00
RMM:   6    -0.742149259471E+03    0.99188E-03   -0.16621E-02 13480   0.208E-01    0.125E+00
RMM:   7    -0.742145313909E+03    0.39456E-02   -0.13840E-02 13850   0.193E-01    0.773E-01
RMM:   8    -0.742142426952E+03    0.28870E-02   -0.60601E-03 13366   0.135E-01    0.402E-01
RMM:   9    -0.742141551401E+03    0.87555E-03   -0.20722E-03 13703   0.772E-02    0.171E-01
RMM:  10    -0.742141456586E+03    0.94815E-04   -0.55738E-04 11106   0.323E-02
  11 F= -.74214146E+03 E0= -.74152266E+03  d E =-.397506E-01  mag=     0.0000
 curvature:  -0.28 expect dE=-0.207E+01 dE for cont linesearch -0.912E-01
 ZBRENT: interpolating
 opt :   0.3424  next Energy=  -742.204975 (dE=-0.103E+00)
 bond charge predicted
       N       E                     dE             d eps       ncg     rms          rms(c)
DAV:   1    -0.742187041126E+03   -0.45490E-01   -0.10675E+01 13808   0.516E+00    0.985E-01
RMM:   2    -0.742237909150E+03   -0.50868E-01   -0.22869E-01 13440   0.940E-01    0.228E+00
RMM:   3    -0.742239478456E+03   -0.15693E-02   -0.45772E-02 13703   0.407E-01    0.229E+00
RMM:   4    -0.742210716257E+03    0.28762E-01   -0.13147E-02 14362   0.208E-01    0.826E-01
RMM:   5    -0.742210152465E+03    0.56379E-03   -0.36149E-03 13541   0.114E-01    0.692E-01
RMM:   6    -0.742208992911E+03    0.11596E-02   -0.28267E-03 13307   0.858E-02    0.517E-01
RMM:   7    -0.742208449351E+03    0.54356E-03   -0.19944E-03 13030   0.753E-02    0.357E-01
RMM:   8    -0.742207775863E+03    0.67349E-03   -0.76891E-04 12371   0.505E-02    0.129E-01
RMM:   9    -0.742207697907E+03    0.77955E-04   -0.27361E-04  9470   0.275E-02
  12 F= -.74220770E+03 E0= -.74158905E+03  d E =-.105992E+00  mag=     0.0000
 curvature:  -0.20 expect dE=-0.106E+01 dE for cont linesearch -0.358E-02
 trial: gam= 2.82716 g(F)=  0.537E+01 g(S)=  0.000E+00 ort =-0.202E+00 (trialstep = 0.772E-01)
 search vector abs. value=  0.221E+02
 bond charge predicted
       N       E                     dE             d eps       ncg     rms          rms(c)
DAV:   1    -0.742338616678E+03   -0.13084E+00   -0.26188E+01 13504   0.781E+00    0.148E+00
RMM:   2    -0.742442041508E+03   -0.10342E+00   -0.52934E-01 13440   0.142E+00    0.314E+00
RMM:   3    -0.742450882622E+03   -0.88411E-02   -0.11005E-01 13896   0.595E-01    0.330E+00
RMM:   4    -0.742394611442E+03    0.56271E-01   -0.30257E-02 14109   0.312E-01    0.125E+00
RMM:   5    -0.742389571009E+03    0.50404E-02   -0.10056E-02 13478   0.185E-01    0.857E-01
RMM:   6    -0.742386880734E+03    0.26903E-02   -0.62069E-03 13462   0.129E-01    0.568E-01
RMM:   7    -0.742386449075E+03    0.43166E-03   -0.42456E-03 13639   0.111E-01    0.461E-01
RMM:   8    -0.742385642188E+03    0.80689E-03   -0.14638E-03 12728   0.691E-02    0.216E-01
RMM:   9    -0.742385473919E+03    0.16827E-03   -0.55891E-04 11408   0.366E-02    0.138E-01
RMM:  10    -0.742385396122E+03    0.77796E-04   -0.13341E-04  8374   0.190E-02
  13 F= -.74238540E+03 E0= -.74176757E+03  d E =-.177698E+00  mag=     0.0000
 trial-energy change:   -0.177698  1 .order   -0.192077   -0.370523   -0.013631
 step:   0.0812(harm=  0.0802)  dis= 0.01595  next Energy=  -742.385743 (dE=-0.178E+00)
 bond charge predicted
       N       E                     dE             d eps       ncg     rms          rms(c)
DAV:   1    -0.742385465924E+03    0.79944E-05   -0.69226E-02 13856   0.402E-01    0.942E-02
RMM:   2    -0.742386726801E+03   -0.12609E-02   -0.16055E-03 13329   0.766E-02    0.408E-01
RMM:   3    -0.742385725570E+03    0.10012E-02   -0.35779E-04 10317   0.359E-02    0.159E-01
RMM:   4    -0.742385629220E+03    0.96350E-04   -0.11223E-04  8020   0.210E-02    0.871E-02
RMM:   5    -0.742385610384E+03    0.18837E-04   -0.32770E-05  7721   0.126E-02    0.482E-02
RMM:   6    -0.742385633098E+03   -0.22715E-04   -0.18997E-05  7281   0.714E-03    0.645E-02
RMM:   7    -0.742385626537E+03    0.65609E-05   -0.12289E-05  6981   0.713E-03    0.409E-02
RMM:   8    -0.742385619457E+03    0.70801E-05   -0.51475E-06  6183   0.442E-03
  14 F= -.74238562E+03 E0= -.74176799E+03  d E =-.177922E+00  mag=     0.0000
 curvature:  -0.16 expect dE=-0.708E+00 dE for cont linesearch -0.685E-04
 trial: gam= 0.28477 g(F)=  0.433E+01 g(S)=  0.000E+00 ort =-0.963E-01 (trialstep = 0.780E-01)
 search vector abs. value=  0.607E+01
 bond charge predicted
       N       E                     dE             d eps       ncg     rms          rms(c)
DAV:   1    -0.742591229375E+03   -0.20560E+00   -0.62114E+00 13632   0.406E+00    0.619E-01
RMM:   2    -0.742621828219E+03   -0.30599E-01   -0.13434E-01 13440   0.734E-01    0.185E+00
RMM:   3    -0.742606774610E+03    0.15054E-01   -0.24819E-02 13978   0.297E-01    0.722E-01
RMM:   4    -0.742605957264E+03    0.81735E-03   -0.65842E-03 14462   0.149E-01    0.645E-01
RMM:   5    -0.742605003417E+03    0.95385E-03   -0.19085E-03 14102   0.777E-02    0.496E-01
RMM:   6    -0.742604647712E+03    0.35570E-03   -0.99145E-04 12795   0.552E-02    0.362E-01
RMM:   7    -0.742604358862E+03    0.28885E-03   -0.11016E-03 13135   0.559E-02    0.241E-01
RMM:   8    -0.742604004228E+03    0.35463E-03   -0.38681E-04 10498   0.384E-02    0.755E-02
RMM:   9    -0.742604008896E+03   -0.46684E-05   -0.11254E-04  8139   0.184E-02
  15 F= -.74260401E+03 E0= -.74198784E+03  d E =-.218389E+00  mag=     0.0000
 trial-energy change:   -0.218389  1 .order   -0.229828   -0.335678   -0.123977
 step:   0.1237(harm=  0.1237)  dis= 0.01333  next Energy=  -742.651749 (dE=-0.266E+00)
 bond charge predicted
       N       E                     dE             d eps       ncg     rms          rms(c)
DAV:   1    -0.742649679906E+03   -0.45676E-01   -0.21290E+00 13744   0.238E+00    0.367E-01
RMM:   2    -0.742656142458E+03   -0.64626E-02   -0.46077E-02 13440   0.430E-01    0.736E-01
RMM:   3    -0.742655845073E+03    0.29739E-03   -0.87856E-03 14333   0.172E-01    0.531E-01
RMM:   4    -0.742655366566E+03    0.47851E-03   -0.21080E-03 13991   0.859E-02    0.476E-01
RMM:   5    -0.742654802312E+03    0.56425E-03   -0.69376E-04 12655   0.484E-02    0.342E-01
RMM:   6    -0.742654469292E+03    0.33302E-03   -0.34926E-04 10645   0.346E-02    0.214E-01
RMM:   7    -0.742654370362E+03    0.98930E-04   -0.32822E-04  9950   0.328E-02    0.136E-01
RMM:   8    -0.742654264871E+03    0.10549E-03   -0.14453E-04  8125   0.244E-02    0.511E-02
RMM:   9    -0.742654263081E+03    0.17902E-05   -0.34955E-05  7927   0.118E-02
  16 F= -.74265426E+03 E0= -.74203860E+03  d E =-.268644E+00  mag=     0.0000
 curvature:  -0.09 expect dE=-0.245E+00 dE for cont linesearch -0.587E-02
 ZBRENT: increasing intervall
 opt :   0.2151  next Energy=  -742.625817 (dE=-0.240E+00)
 bond charge predicted
       N       E                     dE             d eps       ncg     rms          rms(c)
DAV:   1    -0.742617456946E+03    0.36808E-01   -0.85140E+00 13504   0.475E+00    0.750E-01
RMM:   2    -0.742660728926E+03   -0.43272E-01   -0.18489E-01 13440   0.860E-01    0.223E+00
RMM:   3    -0.742638899258E+03    0.21830E-01   -0.33970E-02 13953   0.348E-01    0.830E-01
RMM:   4    -0.742638262356E+03    0.63690E-03   -0.93526E-03 14397   0.177E-01    0.809E-01
RMM:   5    -0.742636593965E+03    0.16684E-02   -0.26443E-03 14224   0.919E-02    0.579E-01
RMM:   6    -0.742636239907E+03    0.35406E-03   -0.14674E-03 12970   0.660E-02    0.446E-01
RMM:   7    -0.742635639917E+03    0.59999E-03   -0.13870E-03 13240   0.645E-02    0.270E-01
RMM:   8    -0.742635198108E+03    0.44181E-03   -0.49136E-04 11364   0.434E-02    0.771E-02
RMM:   9    -0.742635219134E+03   -0.21025E-04   -0.14982E-04  8453   0.194E-02
  17 F= -.74263522E+03 E0= -.74202097E+03  d E =-.249600E+00  mag=     0.0000
 curvature:   0.42 expect dE= 0.229E+01 dE for cont linesearch  0.678E-01
 ZBRENT: bracketing found
 ZBRENT: interpolating
 opt :   0.1597  next Energy=  -742.665739 (dE=-0.280E+00)
 bond charge predicted
       N       E                     dE             d eps       ncg     rms          rms(c)
DAV:   1    -0.742659115720E+03   -0.23918E-01   -0.31354E+00 13568   0.288E+00    0.465E-01
RMM:   2    -0.742690168444E+03   -0.31053E-01   -0.68130E-02 13440   0.520E-01    0.206E+00
RMM:   3    -0.742666065233E+03    0.24103E-01   -0.12101E-02 13554   0.217E-01    0.454E-01
RMM:   4    -0.742665690214E+03    0.37502E-03   -0.37416E-03 14813   0.110E-01    0.371E-01
RMM:   5    -0.742665502758E+03    0.18746E-03   -0.89649E-04 13141   0.531E-02    0.311E-01
RMM:   6    -0.742665790763E+03   -0.28800E-03   -0.58948E-04 12281   0.403E-02    0.328E-01
RMM:   7    -0.742665458671E+03    0.33209E-03   -0.63858E-04 12371   0.423E-02    0.221E-01
RMM:   8    -0.742665167054E+03    0.29162E-03   -0.20122E-04  8517   0.279E-02    0.748E-02
RMM:   9    -0.742665163686E+03    0.33674E-05   -0.61289E-05  8008   0.154E-02
  18 F= -.74266516E+03 E0= -.74204970E+03  d E =-.279544E+00  mag=     0.0000
 curvature:  -0.07 expect dE=-0.267E+00 dE for cont linesearch -0.271E-05
 trial: gam= 0.77704 g(F)=  0.373E+01 g(S)=  0.000E+00 ort =-0.151E-01 (trialstep = 0.776E-01)
 search vector abs. value=  0.737E+01
 bond charge predicted
       N       E                     dE             d eps       ncg     rms          rms(c)
DAV:   1    -0.742854639821E+03   -0.18947E+00   -0.56722E+00 13744   0.396E+00    0.906E-01
RMM:   2    -0.742892593990E+03   -0.37954E-01   -0.14212E-01 13440   0.706E-01    0.209E+00
RMM:   3    -0.742892600505E+03   -0.65144E-05   -0.25643E-02 13548   0.312E-01    0.216E+00
RMM:   4    -0.742865580971E+03    0.27020E-01   -0.85370E-03 13661   0.175E-01    0.707E-01
RMM:   5    -0.742864190852E+03    0.13901E-02   -0.28620E-03 14504   0.919E-02    0.361E-01
RMM:   6    -0.742864805229E+03   -0.61438E-03   -0.14704E-03 13084   0.601E-02    0.463E-01
RMM:   7    -0.742864481999E+03    0.32323E-03   -0.10364E-03 12853   0.593E-02    0.361E-01
RMM:   8    -0.742863824988E+03    0.65701E-03   -0.47158E-04 11344   0.405E-02    0.116E-01
RMM:   9    -0.742863737581E+03    0.87407E-04   -0.12046E-04  8146   0.209E-02
  19 F= -.74286374E+03 E0= -.74224895E+03  d E =-.198574E+00  mag=     0.0000
 trial-energy change:   -0.198574  1 .order   -0.192049   -0.289058   -0.095040
 step:   0.1074(harm=  0.1157)  dis= 0.00825  next Energy=  -742.882303 (dE=-0.217E+00)
 bond charge predicted
       N       E                     dE             d eps       ncg     rms          rms(c)
DAV:   1    -0.742882673950E+03   -0.18849E-01   -0.83176E-01 14064   0.151E+00    0.350E-01
RMM:   2    -0.742886688429E+03   -0.40145E-02   -0.20632E-02 13440   0.270E-01    0.649E-01
RMM:   3    -0.742889222422E+03   -0.25340E-02   -0.38262E-03 13495   0.120E-01    0.910E-01
RMM:   4    -0.742884431019E+03    0.47914E-02   -0.12935E-03 13450   0.675E-02    0.303E-01
RMM:   5    -0.742884192689E+03    0.23833E-03   -0.40965E-04 10437   0.349E-02    0.148E-01
RMM:   6    -0.742884299808E+03   -0.10712E-03   -0.22441E-04  8739   0.253E-02    0.182E-01
RMM:   7    -0.742884253866E+03    0.45942E-04   -0.15453E-04  8183   0.241E-02    0.143E-01
RMM:   8    -0.742884160633E+03    0.93234E-04   -0.71951E-05  7980   0.173E-02
  20 F= -.74288416E+03 E0= -.74226952E+03  d E =-.218997E+00  mag=     0.0000
 curvature:  -0.11 expect dE=-0.242E+00 dE for cont linesearch -0.154E-02
 trial: gam= 0.32598 g(F)=  0.222E+01 g(S)=  0.000E+00 ort = 0.322E+00 (trialstep = 0.836E-01)
 search vector abs. value=  0.321E+01
 bond charge predicted
       N       E                     dE             d eps       ncg     rms          rms(c)
DAV:   1    -0.743026792476E+03   -0.14254E+00   -0.36906E+00 13504   0.321E+00    0.514E-01
RMM:   2    -0.743034799776E+03   -0.80073E-02   -0.79607E-02 13440   0.558E-01    0.818E-01
RMM:   3    -0.743035647492E+03   -0.84772E-03   -0.13509E-02 14448   0.219E-01    0.642E-01
RMM:   4    -0.743036532685E+03   -0.88519E-03   -0.28362E-03 14494   0.991E-02    0.644E-01
RMM:   5    -0.743035729800E+03    0.80288E-03   -0.12951E-03 13174   0.647E-02    0.647E-01
RMM:   6    -0.743034705445E+03    0.10244E-02   -0.69230E-04 12460   0.517E-02    0.344E-01
RMM:   7    -0.743034761015E+03   -0.55571E-04   -0.89515E-04 12842   0.468E-02    0.216E-01
RMM:   8    -0.743034508714E+03    0.25230E-03   -0.26079E-04  9457   0.320E-02    0.179E-01
RMM:   9    -0.743034461346E+03    0.47368E-04   -0.74105E-05  8041   0.172E-02
  21 F= -.74303446E+03 E0= -.74241950E+03  d E =-.150301E+00  mag=     0.0000
 trial-energy change:   -0.150301  1 .order   -0.143627   -0.194233   -0.093021
 step:   0.1310(harm=  0.1604)  dis= 0.00750  next Energy=  -743.062065 (dE=-0.178E+00)
 bond charge predicted
       N       E                     dE             d eps       ncg     rms          rms(c)
DAV:   1    -0.743065712703E+03   -0.31204E-01   -0.11933E+00 13840   0.183E+00    0.336E-01
RMM:   2    -0.743068445880E+03   -0.27332E-02   -0.26580E-02 13440   0.321E-01    0.471E-01
RMM:   3    -0.743068980194E+03   -0.53431E-03   -0.46046E-03 14438   0.128E-01    0.445E-01
RMM:   4    -0.743068632079E+03    0.34811E-03   -0.94107E-04 13666   0.585E-02    0.308E-01
RMM:   5    -0.743068704242E+03   -0.72162E-04   -0.43916E-04 11920   0.394E-02    0.354E-01
RMM:   6    -0.743068411308E+03    0.29293E-03   -0.29991E-04  9738   0.348E-02    0.152E-01
RMM:   7    -0.743068434508E+03   -0.23200E-04   -0.19194E-04  8474   0.249E-02    0.149E-01
RMM:   8    -0.743068347452E+03    0.87056E-04   -0.73987E-05  7946   0.187E-02
  22 F= -.74306835E+03 E0= -.74245317E+03  d E =-.184187E+00  mag=     0.0000
 curvature:  -0.09 expect dE=-0.180E+00 dE for cont linesearch -0.330E-02
 trial: gam= 0.71186 g(F)=  0.191E+01 g(S)=  0.000E+00 ort = 0.335E+00 (trialstep = 0.745E-01)
 search vector abs. value=  0.401E+01
 bond charge predicted
       N       E                     dE             d eps       ncg     rms          rms(c)
DAV:   1    -0.743124867627E+03   -0.56433E-01   -0.45367E+00 13504   0.346E+00    0.511E-01
RMM:   2    -0.743139479266E+03   -0.14612E-01   -0.94248E-02 13440   0.601E-01    0.122E+00
RMM:   3    -0.743135397219E+03    0.40820E-02   -0.15367E-02 14050   0.236E-01    0.487E-01
RMM:   4    -0.743138244755E+03   -0.28475E-02   -0.37523E-03 14207   0.114E-01    0.798E-01
RMM:   5    -0.743136320220E+03    0.19245E-02   -0.14222E-03 13227   0.713E-02    0.605E-01
RMM:   6    -0.743135143265E+03    0.11770E-02   -0.81496E-04 12628   0.526E-02    0.343E-01
RMM:   7    -0.743134839890E+03    0.30338E-03   -0.63678E-04 12265   0.452E-02    0.133E-01
RMM:   8    -0.743134767367E+03    0.72523E-04   -0.20100E-04  8796   0.273E-02
  23 F= -.74313477E+03 E0= -.74251920E+03  d E =-.664199E-01  mag=    -0.0000
 trial-energy change:   -0.066420  1 .order   -0.060225   -0.159893    0.039443
 step:   0.0618(harm=  0.0598)  dis= 0.00475  next Energy=  -743.138116 (dE=-0.698E-01)
 bond charge predicted
       N       E                     dE             d eps       ncg     rms          rms(c)
DAV:   1    -0.743138331112E+03   -0.34912E-02   -0.13392E-01 14000   0.596E-01    0.122E-01
RMM:   2    -0.743141077847E+03   -0.27467E-02   -0.29086E-03 13436   0.106E-01    0.645E-01
RMM:   3    -0.743138681034E+03    0.23968E-02   -0.53260E-04 12106   0.484E-02    0.172E-01
RMM:   4    -0.743138542296E+03    0.13874E-03   -0.14365E-04  7669   0.240E-02    0.699E-02
RMM:   5    -0.743138537741E+03    0.45549E-05   -0.43323E-05  7391   0.151E-02    0.631E-02
RMM:   6    -0.743138542190E+03   -0.44489E-05   -0.28471E-05  7255   0.926E-03    0.626E-02
RMM:   7    -0.743138542068E+03    0.12173E-06   -0.27177E-05  7140   0.101E-02    0.371E-02
RMM:   8    -0.743138538454E+03    0.36145E-05   -0.96728E-06  6571   0.650E-03
  24 F= -.74313854E+03 E0= -.74252295E+03  d E =-.701910E-01  mag=    -0.0000
 curvature:  -0.05 expect dE=-0.669E-01 dE for cont linesearch -0.332E-04
 trial: gam= 0.42030 g(F)=  0.122E+01 g(S)=  0.000E+00 ort =-0.492E-01 (trialstep = 0.720E-01)
 search vector abs. value=  0.189E+01
 bond charge predicted
       N       E                     dE             d eps       ncg     rms          rms(c)
DAV:   1    -0.743183444662E+03   -0.44903E-01   -0.19007E+00 13712   0.226E+00    0.330E-01
RMM:   2    -0.743187851730E+03   -0.44071E-02   -0.41081E-02 13440   0.415E-01    0.522E-01
RMM:   3    -0.743188208864E+03   -0.35713E-03   -0.73247E-03 14398   0.161E-01    0.328E-01
RMM:   4    -0.743190719191E+03   -0.25103E-02   -0.16069E-03 14145   0.748E-02    0.657E-01
RMM:   5    -0.743188392542E+03    0.23266E-02   -0.65960E-04 12494   0.483E-02    0.383E-01
RMM:   6    -0.743188140671E+03    0.25187E-03   -0.41401E-04 11321   0.361E-02    0.199E-01
RMM:   7    -0.743188036440E+03    0.10423E-03   -0.25648E-04  9374   0.285E-02    0.139E-01
RMM:   8    -0.743187985322E+03    0.51117E-04   -0.10444E-04  8050   0.206E-02
  25 F= -.74318799E+03 E0= -.74257157E+03  d E =-.494469E-01  mag=    -0.0000
 trial-energy change:   -0.049447  1 .order   -0.050111   -0.086283   -0.013939
 step:   0.0868(harm=  0.0858)  dis= 0.00604  next Energy=  -743.189418 (dE=-0.509E-01)
 bond charge predicted
       N       E                     dE             d eps       ncg     rms          rms(c)
DAV:   1    -0.743189406979E+03   -0.13705E-02   -0.80525E-02 13920   0.466E-01    0.103E-01
RMM:   2    -0.743189582240E+03   -0.17526E-03   -0.18827E-03 13430   0.885E-02    0.101E-01
RMM:   3    -0.743189677157E+03   -0.94917E-04   -0.35900E-04 10083   0.354E-02    0.105E-01
RMM:   4    -0.743189942918E+03   -0.26576E-03   -0.12160E-04  7978   0.223E-02    0.235E-01
RMM:   5    -0.743189666490E+03    0.27643E-03   -0.56351E-05  7758   0.153E-02    0.984E-02
RMM:   6    -0.743189638041E+03    0.28450E-04   -0.30746E-05  7661   0.111E-02    0.372E-02
RMM:   7    -0.743189630948E+03    0.70923E-05   -0.82595E-06  6690   0.583E-03    0.313E-02
RMM:   8    -0.743189632373E+03   -0.14245E-05   -0.33193E-06  5338   0.411E-03
  26 F= -.74318963E+03 E0= -.74257298E+03  d E =-.510939E-01  mag=     0.0000
 curvature:  -0.07 expect dE=-0.805E-01 dE for cont linesearch -0.472E-04
 trial: gam= 0.98679 g(F)=  0.120E+01 g(S)=  0.000E+00 ort = 0.364E-01 (trialstep = 0.455E-01)
 search vector abs. value=  0.311E+01
 bond charge predicted
       N       E                     dE             d eps       ncg     rms          rms(c)
DAV:   1    -0.743229956644E+03   -0.40326E-01   -0.12696E+00 13664   0.183E+00    0.235E-01
RMM:   2    -0.743232521366E+03   -0.25647E-02   -0.25726E-02 13440   0.318E-01    0.399E-01
RMM:   3    -0.743232768391E+03   -0.24702E-03   -0.45267E-03 14464   0.126E-01    0.198E-01
RMM:   4    -0.743235511935E+03   -0.27435E-02   -0.10642E-03 13670   0.576E-02    0.704E-01
RMM:   5    -0.743232849189E+03    0.26627E-02   -0.30901E-04  9834   0.351E-02    0.248E-01
RMM:   6    -0.743232753623E+03    0.95567E-04   -0.27163E-04  9551   0.281E-02    0.114E-01
RMM:   7    -0.743232794271E+03   -0.40648E-04   -0.15279E-04  8146   0.227E-02    0.152E-01
RMM:   8    -0.743232738074E+03    0.56197E-04   -0.65147E-05  7826   0.166E-02
  27 F= -.74323274E+03 E0= -.74261571E+03  d E =-.431057E-01  mag=     0.0000
 trial-energy change:   -0.043106  1 .order   -0.042930   -0.056130   -0.029731
 step:   0.0968(harm=  0.0968)  dis= 0.00822  next Energy=  -743.249304 (dE=-0.597E-01)
 bond charge predicted
       N       E                     dE             d eps       ncg     rms          rms(c)
DAV:   1    -0.743243737196E+03   -0.10943E-01   -0.16100E+00 13552   0.207E+00    0.289E-01
RMM:   2    -0.743246993182E+03   -0.32560E-02   -0.32953E-02 13440   0.359E-01    0.408E-01
RMM:   3    -0.743247493120E+03   -0.49994E-03   -0.59001E-03 14596   0.142E-01    0.290E-01
RMM:   4    -0.743249731015E+03   -0.22379E-02   -0.12479E-03 13988   0.642E-02    0.605E-01
RMM:   5    -0.743247713627E+03    0.20174E-02   -0.54072E-04 12252   0.440E-02    0.364E-01
RMM:   6    -0.743247368770E+03    0.34486E-03   -0.30318E-04  9933   0.334E-02    0.150E-01
RMM:   7    -0.743247426718E+03   -0.57947E-04   -0.25894E-04  9387   0.269E-02    0.116E-01
RMM:   8    -0.743247394894E+03    0.31824E-04   -0.80711E-05  7976   0.184E-02
  28 F= -.74324739E+03 E0= -.74262999E+03  d E =-.577625E-01  mag=     0.0000
 curvature:  -0.12 expect dE=-0.250E+00 dE for cont linesearch -0.291E-03
 trial: gam= 1.77859 g(F)=  0.205E+01 g(S)=  0.000E+00 ort =-0.861E-01 (trialstep = 0.150E-01)
 search vector abs. value=  0.116E+02
 bond charge predicted
       N       E                     dE             d eps       ncg     rms          rms(c)
DAV:   1    -0.743272597828E+03   -0.25171E-01   -0.50340E-01 13760   0.113E+00    0.183E-01
RMM:   2    -0.743273903251E+03   -0.13054E-02   -0.10278E-02 13440   0.193E-01    0.309E-01
RMM:   3    -0.743274058676E+03   -0.15543E-03   -0.17758E-03 14037   0.781E-02    0.264E-01
RMM:   4    -0.743273953314E+03    0.10536E-03   -0.43194E-04 10997   0.383E-02    0.219E-01
RMM:   5    -0.743273754869E+03    0.19844E-03   -0.16591E-04  8200   0.262E-02    0.136E-01
RMM:   6    -0.743273747392E+03    0.74767E-05   -0.10622E-04  7979   0.204E-02    0.109E-01
RMM:   7    -0.743273708831E+03    0.38561E-04   -0.58675E-05  7774   0.149E-02    0.492E-02
RMM:   8    -0.743273698812E+03    0.10019E-04   -0.25326E-05  7367   0.974E-03
  29 F= -.74327370E+03 E0= -.74265598E+03  d E =-.263039E-01  mag=     0.0000
 trial-energy change:   -0.026304  1 .order   -0.025856   -0.028374   -0.023337
 step:   0.0426(harm=  0.0844)  dis= 0.00834  next Energy=  -743.297974 (dE=-0.506E-01)
 bond charge predicted
       N       E                     dE             d eps       ncg     rms          rms(c)
DAV:   1    -0.743294265176E+03   -0.20556E-01   -0.17056E+00 13568   0.208E+00    0.275E-01
RMM:   2    -0.743298424971E+03   -0.41598E-02   -0.33976E-02 13440   0.353E-01    0.579E-01
RMM:   3    -0.743298246674E+03    0.17830E-03   -0.56976E-03 14203   0.141E-01    0.335E-01
RMM:   4    -0.743299131012E+03   -0.88434E-03   -0.14273E-03 14210   0.660E-02    0.492E-01
RMM:   5    -0.743297957666E+03    0.11733E-02   -0.44097E-04 11839   0.396E-02    0.269E-01
RMM:   6    -0.743297883039E+03    0.74627E-04   -0.27373E-04  9472   0.302E-02    0.223E-01
RMM:   7    -0.743297756258E+03    0.12678E-03   -0.25852E-04  9437   0.278E-02    0.962E-02
RMM:   8    -0.743297725852E+03    0.30405E-04   -0.13327E-04  8079   0.204E-02
  30 F= -.74329773E+03 E0= -.74267933E+03  d E =-.503310E-01  mag=     0.0000
 curvature:  -0.16 expect dE=-0.352E+00 dE for cont linesearch -0.143E-04
 trial: gam= 0.28929 g(F)=  0.215E+01 g(S)=  0.000E+00 ort = 0.317E-01 (trialstep = 0.205E-01)
 search vector abs. value=  0.313E+01
 bond charge predicted
       N       E                     dE             d eps       ncg     rms          rms(c)
DAV:   1    -0.743333346723E+03   -0.35590E-01   -0.30121E-01 13888   0.892E-01    0.137E-01
RMM:   2    -0.743334146042E+03   -0.79932E-03   -0.60999E-03 13440   0.148E-01    0.330E-01
RMM:   3    -0.743333963171E+03    0.18287E-03   -0.90117E-04 13438   0.610E-02    0.142E-01
RMM:   4    -0.743334711761E+03   -0.74859E-03   -0.31157E-04  9567   0.298E-02    0.381E-01
RMM:   5    -0.743333982501E+03    0.72926E-03   -0.93055E-05  7918   0.208E-02    0.147E-01
RMM:   6    -0.743333992833E+03   -0.10332E-04   -0.52276E-05  7696   0.129E-02    0.148E-01
RMM:   7    -0.743333963736E+03    0.29097E-04   -0.34655E-05  7340   0.112E-02    0.896E-02
RMM:   8    -0.743333951570E+03    0.12166E-04   -0.19567E-05  6918   0.807E-03
  31 F= -.74333395E+03 E0= -.74271548E+03  d E =-.362257E-01  mag=     0.0000
 trial-energy change:   -0.036226  1 .order   -0.035936   -0.044154   -0.027718
 step:   0.0551(harm=  0.0551)  dis= 0.00457  next Energy=  -743.357033 (dE=-0.593E-01)
 bond charge predicted
       N       E                     dE             d eps       ncg     rms          rms(c)
DAV:   1    -0.743354598930E+03   -0.20635E-01   -0.85780E-01 13664   0.151E+00    0.206E-01
RMM:   2    -0.743357034569E+03   -0.24356E-02   -0.17215E-02 13440   0.249E-01    0.596E-01
RMM:   3    -0.743356517413E+03    0.51716E-03   -0.26635E-03 14136   0.101E-01    0.323E-01
RMM:   4    -0.743358960892E+03   -0.24435E-02   -0.76713E-04 12968   0.493E-02    0.701E-01
RMM:   5    -0.743356397421E+03    0.25635E-02   -0.28174E-04  9481   0.327E-02    0.274E-01
RMM:   6    -0.743356405376E+03   -0.79552E-05   -0.12910E-04  8070   0.219E-02    0.264E-01
RMM:   7    -0.743356386617E+03    0.18759E-04   -0.85363E-05  7854   0.177E-02    0.213E-01
RMM:   8    -0.743356312724E+03    0.73894E-04   -0.73355E-05  7669   0.143E-02
  32 F= -.74335631E+03 E0= -.74273759E+03  d E =-.585869E-01  mag=     0.0000
 curvature:  -0.04 expect dE=-0.578E-01 dE for cont linesearch -0.192E-06
 trial: gam= 0.55031 g(F)=  0.144E+01 g(S)=  0.000E+00 ort = 0.388E-02 (trialstep = 0.274E-01)
 search vector abs. value=  0.240E+01
 bond charge predicted
       N       E                     dE             d eps       ncg     rms          rms(c)
DAV:   1    -0.743385039763E+03   -0.28653E-01   -0.40475E-01 13760   0.104E+00    0.172E-01
RMM:   2    -0.743386525176E+03   -0.14854E-02   -0.82579E-03 13440   0.178E-01    0.353E-01
RMM:   3    -0.743386733379E+03   -0.20820E-03   -0.14757E-03 13678   0.752E-02    0.381E-01
RMM:   4    -0.743385954026E+03    0.77935E-03   -0.38050E-04 10474   0.380E-02    0.123E-01
RMM:   5    -0.743385949064E+03    0.49628E-05   -0.12889E-04  8066   0.240E-02    0.109E-01
RMM:   6    -0.743385976805E+03   -0.27742E-04   -0.95588E-05  7881   0.177E-02    0.961E-02
RMM:   7    -0.743385930552E+03    0.46254E-04   -0.44610E-05  7688   0.136E-02    0.603E-02
RMM:   8    -0.743385918334E+03    0.12217E-04   -0.20633E-05  7034   0.854E-03
  33 F= -.74338592E+03 E0= -.74276780E+03  d E =-.296056E-01  mag=     0.0000
 trial-energy change:   -0.029606  1 .order   -0.029384   -0.039660   -0.019108
 step:   0.0529(harm=  0.0529)  dis= 0.00389  next Energy=  -743.394580 (dE=-0.383E-01)
 bond charge predicted
       N       E                     dE             d eps       ncg     rms          rms(c)
DAV:   1    -0.743393133821E+03   -0.72033E-02   -0.34958E-01 13888   0.965E-01    0.127E-01
RMM:   2    -0.743393866249E+03   -0.73243E-03   -0.69387E-03 13440   0.164E-01    0.172E-01
RMM:   3    -0.743394182629E+03   -0.31638E-03   -0.12037E-03 13892   0.661E-02    0.225E-01
RMM:   4    -0.743393953493E+03    0.22914E-03   -0.26850E-04  8742   0.313E-02    0.126E-01
RMM:   5    -0.743393944461E+03    0.90323E-05   -0.10024E-04  7988   0.221E-02    0.121E-01
RMM:   6    -0.743393914771E+03    0.29690E-04   -0.57239E-05  7753   0.143E-02    0.737E-02
RMM:   7    -0.743393901563E+03    0.13208E-04   -0.35087E-05  7650   0.114E-02    0.593E-02
RMM:   8    -0.743393893365E+03    0.81980E-05   -0.21503E-05  7055   0.871E-03
  34 F= -.74339389E+03 E0= -.74277612E+03  d E =-.375806E-01  mag=     0.0000
 curvature:  -0.04 expect dE=-0.289E-01 dE for cont linesearch -0.134E-03
 trial: gam= 0.47119 g(F)=  0.660E+00 g(S)=  0.000E+00 ort =-0.856E-01 (trialstep = 0.325E-01)
 search vector abs. value=  0.111E+01
 bond charge predicted
       N       E                     dE             d eps       ncg     rms          rms(c)
DAV:   1    -0.743410220126E+03   -0.16319E-01   -0.21810E-01 13856   0.747E-01    0.126E-01
RMM:   2    -0.743411076189E+03   -0.85606E-03   -0.49125E-03 13440   0.135E-01    0.383E-01
RMM:   3    -0.743410765629E+03    0.31056E-03   -0.81357E-04 13200   0.558E-02    0.186E-01
RMM:   4    -0.743410842842E+03   -0.77213E-04   -0.23319E-04  8607   0.268E-02    0.199E-01
RMM:   5    -0.743410748769E+03    0.94073E-04   -0.96378E-05  7764   0.207E-02    0.175E-01
RMM:   6    -0.743410716358E+03    0.32411E-04   -0.40060E-05  7520   0.120E-02    0.114E-01
RMM:   7    -0.743410696828E+03    0.19530E-04   -0.49541E-05  7475   0.111E-02    0.605E-02
RMM:   8    -0.743410690731E+03    0.60968E-05   -0.15297E-05  6782   0.886E-03
  35 F= -.74341069E+03 E0= -.74279358E+03  d E =-.167974E-01  mag=     0.0000
 trial-energy change:   -0.016797  1 .order   -0.016883   -0.020137   -0.013630
 step:   0.1006(harm=  0.1006)  dis= 0.00564  next Energy=  -743.425054 (dE=-0.312E-01)
 bond charge predicted
       N       E                     dE             d eps       ncg     rms          rms(c)
DAV:   1    -0.743419146745E+03   -0.84499E-02   -0.95788E-01 13600   0.157E+00    0.256E-01
RMM:   2    -0.743422031843E+03   -0.28851E-02   -0.21449E-02 13440   0.282E-01    0.708E-01
RMM:   3    -0.743421444136E+03    0.58771E-03   -0.36825E-03 14396   0.115E-01    0.350E-01
RMM:   4    -0.743421341749E+03    0.10239E-03   -0.91209E-04 13042   0.521E-02    0.313E-01
RMM:   5    -0.743421622234E+03   -0.28049E-03   -0.23370E-04  8756   0.278E-02    0.349E-01
RMM:   6    -0.743421282344E+03    0.33989E-03   -0.97928E-05  8036   0.203E-02    0.249E-01
RMM:   7    -0.743421346190E+03   -0.63846E-04   -0.11555E-04  7908   0.176E-02    0.212E-01
RMM:   8    -0.743421247494E+03    0.98696E-04   -0.63692E-05  7746   0.165E-02
  36 F= -.74342125E+03 E0= -.74280506E+03  d E =-.273541E-01  mag=     0.0000
 curvature:  -0.09 expect dE=-0.681E-01 dE for cont linesearch -0.190E-02
 ZBRENT: interpolating
 opt :   0.0824  next Energy=  -743.422639 (dE=-0.287E-01)
 bond charge predicted
       N       E                     dE             d eps       ncg     rms          rms(c)
DAV:   1    -0.743422263841E+03   -0.91765E-03   -0.68662E-02 14112   0.420E-01    0.134E-01
RMM:   2    -0.743422818619E+03   -0.55478E-03   -0.17036E-03 13420   0.790E-02    0.323E-01
RMM:   3    -0.743422635793E+03    0.18283E-03   -0.36745E-04  9944   0.413E-02    0.203E-01
RMM:   4    -0.743422381374E+03    0.25442E-03   -0.93143E-05  7386   0.195E-02    0.776E-02
RMM:   5    -0.743422371875E+03    0.94983E-05   -0.24228E-05  7162   0.105E-02    0.384E-02
RMM:   6    -0.743422378962E+03   -0.70869E-05   -0.13065E-05  6514   0.594E-03    0.567E-02
RMM:   7    -0.743422393777E+03   -0.14815E-04   -0.10510E-05  6713   0.653E-03    0.677E-02
RMM:   8    -0.743422362006E+03    0.31771E-04   -0.86045E-06  6595   0.526E-03
  37 F= -.74342236E+03 E0= -.74280567E+03  d E =-.284686E-01  mag=    -0.0000
 curvature:  -0.07 expect dE=-0.353E-01 dE for cont linesearch -0.278E-04
 trial: gam= 0.53422 g(F)=  0.533E+00 g(S)=  0.000E+00 ort = 0.216E-01 (trialstep = 0.425E-01)
 search vector abs. value=  0.873E+00
 bond charge predicted
       N       E                     dE             d eps       ncg     rms          rms(c)
DAV:   1    -0.743438350459E+03   -0.15957E-01   -0.28566E-01 13888   0.860E-01    0.142E-01
RMM:   2    -0.743439525075E+03   -0.11746E-02   -0.63844E-03 13440   0.153E-01    0.458E-01
RMM:   3    -0.743439025518E+03    0.49956E-03   -0.10732E-03 13598   0.611E-02    0.234E-01
RMM:   4    -0.743439846520E+03   -0.82100E-03   -0.29941E-04  9270   0.301E-02    0.424E-01
RMM:   5    -0.743439009522E+03    0.83700E-03   -0.14173E-04  7948   0.244E-02    0.215E-01
RMM:   6    -0.743438916924E+03    0.92598E-04   -0.79677E-05  7712   0.159E-02    0.124E-01
RMM:   7    -0.743438937832E+03   -0.20907E-04   -0.54704E-05  7581   0.133E-02    0.112E-01
RMM:   8    -0.743438914274E+03    0.23558E-04   -0.25901E-05  7241   0.108E-02
  38 F= -.74343891E+03 E0= -.74282252E+03  d E =-.165523E-01  mag=    -0.0000
 trial-energy change:   -0.016552  1 .order   -0.016339   -0.023142   -0.009537
 step:   0.0723(harm=  0.0723)  dis= 0.00368  next Energy=  -743.442044 (dE=-0.197E-01)
 bond charge predicted
       N       E                     dE             d eps       ncg     rms          rms(c)
DAV:   1    -0.743441662716E+03   -0.27249E-02   -0.14039E-01 13904   0.603E-01    0.120E-01
RMM:   2    -0.743442066276E+03   -0.40356E-03   -0.31990E-03 13438   0.108E-01    0.240E-01
RMM:   3    -0.743441985762E+03    0.80514E-04   -0.52788E-04 11802   0.433E-02    0.142E-01
RMM:   4    -0.743442052880E+03   -0.67118E-04   -0.12141E-04  7912   0.217E-02    0.153E-01
RMM:   5    -0.743442081992E+03   -0.29112E-04   -0.96287E-05  7692   0.191E-02    0.191E-01
RMM:   6    -0.743441984611E+03    0.97382E-04   -0.44144E-05  7424   0.139E-02    0.870E-02
RMM:   7    -0.743441985260E+03   -0.64923E-06   -0.33250E-05  7439   0.942E-03    0.671E-02
RMM:   8    -0.743441964057E+03    0.21203E-04   -0.16230E-05  6730   0.880E-03
  39 F= -.74344196E+03 E0= -.74282606E+03  d E =-.196021E-01  mag=    -0.0000
 curvature:  -0.06 expect dE=-0.159E-01 dE for cont linesearch -0.156E-04
 trial: gam= 0.52670 g(F)=  0.274E+00 g(S)=  0.000E+00 ort =-0.153E-01 (trialstep = 0.484E-01)
 search vector abs. value=  0.500E+00
 bond charge predicted
       N       E                     dE             d eps       ncg     rms          rms(c)
DAV:   1    -0.743446994962E+03   -0.50097E-02   -0.20728E-01 13888   0.728E-01    0.115E-01
RMM:   2    -0.743447450450E+03   -0.45549E-03   -0.44135E-03 13440   0.125E-01    0.179E-01
RMM:   3    -0.743447455814E+03   -0.53642E-05   -0.72736E-04 13156   0.511E-02    0.977E-02
RMM:   4    -0.743448023855E+03   -0.56804E-03   -0.20323E-04  8307   0.251E-02    0.329E-01
RMM:   5    -0.743447562216E+03    0.46164E-03   -0.77484E-05  7668   0.198E-02    0.167E-01
RMM:   6    -0.743447417965E+03    0.14425E-03   -0.45331E-05  7535   0.118E-02    0.848E-02
RMM:   7    -0.743447414004E+03    0.39610E-05   -0.30652E-05  7331   0.987E-03    0.391E-02
RMM:   8    -0.743447413076E+03    0.92732E-06   -0.18786E-05  6744   0.854E-03
  40 F= -.74344741E+03 E0= -.74283178E+03  d E =-.544902E-02  mag=    -0.0000
 trial-energy change:   -0.005449  1 .order   -0.005185   -0.012890    0.002520
 step:   0.0405(harm=  0.0405)  dis= 0.00154  next Energy=  -743.447355 (dE=-0.539E-02)
 bond charge predicted
       N       E                     dE             d eps       ncg     rms          rms(c)
DAV:   1    -0.743447597148E+03   -0.18314E-03   -0.56300E-03 13760   0.120E-01    0.247E-02
RMM:   2    -0.743447615855E+03   -0.18707E-04   -0.12500E-04  7326   0.214E-02    0.566E-02
RMM:   3    -0.743447607557E+03    0.82978E-05   -0.22131E-05  7157   0.118E-02    0.261E-02
RMM:   4    -0.743447606117E+03    0.14400E-05   -0.42108E-06  6371   0.423E-03    0.179E-02
RMM:   5    -0.743447605792E+03    0.32546E-06   -0.99496E-07  3090   0.308E-03    0.203E-02
RMM:   6    -0.743447605212E+03    0.57974E-06   -0.69248E-07  2634   0.302E-03    0.135E-02
RMM:   7    -0.743447605555E+03   -0.34308E-06   -0.28230E-06  4209   0.347E-03    0.906E-03
RMM:   8    -0.743447605766E+03   -0.21034E-06   -0.72830E-07  2231   0.295E-03
  41 F= -.74344761E+03 E0= -.74283189E+03  d E =-.564171E-02  mag=    -0.0000
 curvature:  -0.04 expect dE=-0.588E-02 dE for cont linesearch -0.392E-06
 trial: gam= 0.43153 g(F)=  0.154E+00 g(S)=  0.000E+00 ort = 0.227E-02 (trialstep = 0.469E-01)
 search vector abs. value=  0.249E+00
 bond charge predicted
       N       E                     dE             d eps       ncg     rms          rms(c)
DAV:   1    -0.743453128672E+03   -0.55231E-02   -0.81384E-02 13792   0.455E-01    0.719E-02
RMM:   2    -0.743453329138E+03   -0.20047E-03   -0.17477E-03 13440   0.831E-02    0.123E-01
RMM:   3    -0.743453347189E+03   -0.18051E-04   -0.34766E-04  9770   0.332E-02    0.989E-02
RMM:   4    -0.743453360394E+03   -0.13205E-04   -0.77153E-05  7572   0.196E-02    0.121E-01
RMM:   5    -0.743453323187E+03    0.37207E-04   -0.31340E-05  7329   0.114E-02    0.821E-02
RMM:   6    -0.743453294693E+03    0.28494E-04   -0.19537E-05  6982   0.874E-03    0.421E-02
RMM:   7    -0.743453297555E+03   -0.28620E-05   -0.14417E-05  6844   0.666E-03    0.333E-02
RMM:   8    -0.743453294067E+03    0.34885E-05   -0.68890E-06  6468   0.563E-03
  42 F= -.74345329E+03 E0= -.74283776E+03  d E =-.568830E-02  mag=    -0.0000
 trial-energy change:   -0.005688  1 .order   -0.005693   -0.007278   -0.004108
 step:   0.1076(harm=  0.1076)  dis= 0.00200  next Energy=  -743.455960 (dE=-0.835E-02)
 bond charge predicted
       N       E                     dE             d eps       ncg     rms          rms(c)
DAV:   1    -0.743456130624E+03   -0.28331E-02   -0.13650E-01 13856   0.590E-01    0.966E-02
RMM:   2    -0.743456458598E+03   -0.32797E-03   -0.29602E-03 13440   0.108E-01    0.147E-01
RMM:   3    -0.743456539200E+03   -0.80602E-04   -0.60330E-04 12650   0.432E-02    0.140E-01
RMM:   4    -0.743456525998E+03    0.13202E-04   -0.12521E-04  7948   0.219E-02    0.152E-01
RMM:   5    -0.743456485455E+03    0.40543E-04   -0.52952E-05  7646   0.161E-02    0.113E-01
RMM:   6    -0.743456427810E+03    0.57644E-04   -0.33198E-05  7423   0.110E-02    0.556E-02
RMM:   7    -0.743456429746E+03   -0.19361E-05   -0.24002E-05  7254   0.863E-03    0.464E-02
RMM:   8    -0.743456424003E+03    0.57437E-05   -0.10598E-05  6476   0.708E-03
  43 F= -.74345642E+03 E0= -.74284117E+03  d E =-.881824E-02  mag=    -0.0000
 curvature:  -0.09 expect dE=-0.112E-01 dE for cont linesearch -0.592E-04
 trial: gam= 0.78188 g(F)=  0.130E+00 g(S)=  0.000E+00 ort = 0.131E-01 (trialstep = 0.486E-01)
 search vector abs. value=  0.303E+00
 bond charge predicted
       N       E                     dE             d eps       ncg     rms          rms(c)
DAV:   1    -0.743461868783E+03   -0.54390E-02   -0.76028E-02 14000   0.422E-01    0.731E-02
RMM:   2    -0.743462042341E+03   -0.17356E-03   -0.15577E-03 13430   0.785E-02    0.116E-01
RMM:   3    -0.743462024570E+03    0.17771E-04   -0.33612E-04  9490   0.318E-02    0.608E-02
RMM:   4    -0.743462118895E+03   -0.94325E-04   -0.77080E-05  7790   0.194E-02    0.140E-01
RMM:   5    -0.743462032593E+03    0.86302E-04   -0.28002E-05  7435   0.103E-02    0.678E-02
RMM:   6    -0.743462020333E+03    0.12260E-04   -0.23412E-05  7132   0.860E-03    0.458E-02
RMM:   7    -0.743462017273E+03    0.30604E-05   -0.15963E-05  6722   0.752E-03    0.210E-02
RMM:   8    -0.743462016569E+03    0.70371E-06   -0.84631E-06  6550   0.577E-03
  44 F= -.74346202E+03 E0= -.74284688E+03  d E =-.559257E-02  mag=    -0.0000
 trial-energy change:   -0.005593  1 .order   -0.005639   -0.006809   -0.004469
 step:   0.1414(harm=  0.1414)  dis= 0.00383  next Energy=  -743.466330 (dE=-0.991E-02)
 bond charge predicted
       N       E                     dE             d eps       ncg     rms          rms(c)
DAV:   1    -0.743465661070E+03   -0.36438E-02   -0.27726E-01 13856   0.806E-01    0.137E-01
RMM:   2    -0.743466581807E+03   -0.92074E-03   -0.57027E-03 13440   0.150E-01    0.313E-01
RMM:   3    -0.743466365646E+03    0.21616E-03   -0.13755E-03 14161   0.612E-02    0.173E-01
RMM:   4    -0.743466405096E+03   -0.39450E-04   -0.24335E-04  8606   0.283E-02    0.206E-01
RMM:   5    -0.743466261571E+03    0.14352E-03   -0.11362E-04  8006   0.227E-02    0.142E-01
RMM:   6    -0.743466201947E+03    0.59624E-04   -0.10029E-04  7855   0.177E-02    0.832E-02
RMM:   7    -0.743466192118E+03    0.98297E-05   -0.75550E-05  7672   0.154E-02    0.468E-02
RMM:   8    -0.743466186967E+03    0.51507E-05   -0.34255E-05  7238   0.120E-02
  45 F= -.74346619E+03 E0= -.74285147E+03  d E =-.976296E-02  mag=    -0.0000
 curvature:  -0.15 expect dE=-0.593E-01 dE for cont linesearch -0.880E-06
 trial: gam= 3.14351 g(F)=  0.388E+00 g(S)=  0.000E+00 ort = 0.132E-02 (trialstep = 0.600E-02)
 search vector abs. value=  0.339E+01
 bond charge predicted
       N       E                     dE             d eps       ncg     rms          rms(c)
DAV:   1    -0.743468446165E+03   -0.22540E-02   -0.95986E-03 13904   0.147E-01    0.361E-02
RMM:   2    -0.743468472166E+03   -0.26001E-04   -0.23545E-04  8263   0.296E-02    0.439E-02
RMM:   3    -0.743468474308E+03   -0.21425E-05   -0.47277E-05  7308   0.161E-02    0.417E-02
RMM:   4    -0.743468472287E+03    0.20215E-05   -0.13061E-05  6942   0.731E-03    0.338E-02
RMM:   5    -0.743468474660E+03   -0.23730E-05   -0.59482E-06  6272   0.479E-03    0.391E-02
RMM:   6    -0.743468470308E+03    0.43519E-05   -0.23730E-06  4602   0.371E-03    0.151E-02
RMM:   7    -0.743468469675E+03    0.63315E-06   -0.67563E-07  2819   0.304E-03    0.114E-02
RMM:   8    -0.743468470454E+03   -0.77910E-06   -0.53389E-07  2609   0.298E-03
  46 F= -.74346847E+03 E0= -.74285382E+03  d E =-.228349E-02  mag=    -0.0000
 ZBRENT: can't locate minimum, use default step
 trial-energy change:   -0.002283  1 .order   -0.002278   -0.002354   -0.002202
 step:   0.0240(harm=  0.0929)  dis= 0.00240  next Energy=  -743.484404 (dE=-0.182E-01)
 bond charge predicted
       N       E                     dE             d eps       ncg     rms          rms(c)
DAV:   1    -0.743474262208E+03   -0.57925E-02   -0.86977E-02 13888   0.441E-01    0.835E-02
RMM:   2    -0.743474576946E+03   -0.31474E-03   -0.18377E-03 13440   0.847E-02    0.196E-01
RMM:   3    -0.743474522465E+03    0.54481E-04   -0.43550E-04 10879   0.362E-02    0.129E-01
RMM:   4    -0.743474476678E+03    0.45787E-04   -0.10064E-04  7870   0.198E-02    0.121E-01
RMM:   5    -0.743474425465E+03    0.51213E-04   -0.37075E-05  7409   0.133E-02    0.720E-02
RMM:   6    -0.743474413650E+03    0.11815E-04   -0.36980E-05  7252   0.102E-02    0.499E-02
RMM:   7    -0.743474406496E+03    0.71543E-05   -0.21771E-05  6999   0.896E-03    0.258E-02
RMM:   8    -0.743474407191E+03   -0.69515E-06   -0.10327E-05  6498   0.639E-03
  47 F= -.74347441E+03 E0= -.74286014E+03  d E =-.822022E-02  mag=     0.0000
 curvature:  -0.15 expect dE=-0.473E-01 dE for cont linesearch -0.364E-02
 ZBRENT: increasing intervall
 opt :   0.0600  next Energy=  -743.481918 (dE=-0.157E-01)
 bond charge predicted
       N       E                     dE             d eps       ncg     rms          rms(c)
DAV:   1    -0.743480655881E+03   -0.62494E-02   -0.34744E-01 13504   0.882E-01    0.164E-01
RMM:   2    -0.743481655128E+03   -0.99925E-03   -0.73376E-03 13440   0.170E-01    0.322E-01
RMM:   3    -0.743481720545E+03   -0.65416E-04   -0.18002E-03 14952   0.718E-02    0.258E-01
RMM:   4    -0.743481629032E+03    0.91512E-04   -0.41178E-04 10927   0.331E-02    0.266E-01
RMM:   5    -0.743481329007E+03    0.30003E-03   -0.12171E-04  8044   0.228E-02    0.142E-01
RMM:   6    -0.743481265315E+03    0.63692E-04   -0.13618E-04  8018   0.198E-02    0.877E-02
RMM:   7    -0.743481251271E+03    0.14044E-04   -0.90978E-05  7730   0.175E-02    0.591E-02
RMM:   8    -0.743481248751E+03    0.25197E-05   -0.42909E-05  7400   0.132E-02
  48 F= -.74348125E+03 E0= -.74286764E+03  d E =-.150618E-01  mag=     0.0000
 curvature:  -0.31 expect dE=-0.146E+00 dE for cont linesearch -0.640E-03
 trial: gam= 0.72306 g(F)=  0.474E+00 g(S)=  0.000E+00 ort = 0.840E-01 (trialstep = 0.168E-01)
 search vector abs. value=  0.237E+01
 bond charge predicted
       N       E                     dE             d eps       ncg     rms          rms(c)
DAV:   1    -0.743489757887E+03   -0.85066E-02   -0.38422E-02 14016   0.286E-01    0.644E-02
RMM:   2    -0.743489971865E+03   -0.21398E-03   -0.82381E-04 12991   0.551E-02    0.159E-01
RMM:   3    -0.743489916588E+03    0.55277E-04   -0.18659E-04  8034   0.253E-02    0.132E-01
RMM:   4    -0.743489827410E+03    0.89178E-04   -0.47913E-05  7367   0.161E-02    0.326E-02
RMM:   5    -0.743489841163E+03   -0.13753E-04   -0.26912E-05  7094   0.836E-03    0.577E-02
RMM:   6    -0.743489834988E+03    0.61757E-05   -0.95286E-06  6569   0.668E-03    0.344E-02
RMM:   7    -0.743489835528E+03   -0.54046E-06   -0.98176E-06  6570   0.547E-03    0.248E-02
RMM:   8    -0.743489835433E+03    0.94726E-07   -0.41226E-06  5943   0.445E-03
  49 F= -.74348984E+03 E0= -.74287645E+03  d E =-.858668E-02  mag=     0.0000
 ZBRENT: can't locate minimum, use default step
 trial-energy change:   -0.008587  1 .order   -0.008543   -0.008988   -0.008098
 step:   0.0672(harm=  0.1696)  dis= 0.00608  next Energy=  -743.526604 (dE=-0.454E-01)
 bond charge predicted
       N       E                     dE             d eps       ncg     rms          rms(c)
DAV:   1    -0.743508132910E+03   -0.18297E-01   -0.34653E-01 13632   0.855E-01    0.169E-01
RMM:   2    -0.743509160307E+03   -0.10274E-02   -0.70361E-03 13440   0.162E-01    0.367E-01
RMM:   3    -0.743508922023E+03    0.23828E-03   -0.16214E-03 14593   0.702E-02    0.181E-01
RMM:   4    -0.743509481772E+03   -0.55975E-03   -0.42933E-04 10497   0.321E-02    0.352E-01
RMM:   5    -0.743508816538E+03    0.66523E-03   -0.19375E-04  8303   0.268E-02    0.166E-01
RMM:   6    -0.743508761029E+03    0.55509E-04   -0.14738E-04  7990   0.224E-02    0.954E-02
RMM:   7    -0.743508747308E+03    0.13721E-04   -0.82332E-05  7653   0.165E-02    0.583E-02
RMM:   8    -0.743508746002E+03    0.13056E-05   -0.37772E-05  7202   0.124E-02
  50 F= -.74350875E+03 E0= -.74289624E+03  d E =-.274973E-01  mag=     0.0000
 curvature:  -0.21 expect dE=-0.800E-01 dE for cont linesearch -0.587E-02
 ZBRENT: increasing intervall
 opt :   0.1681  next Energy=  -743.512426 (dE=-0.312E-01)
 bond charge predicted
       N       E                     dE             d eps       ncg     rms          rms(c)
DAV:   1    -0.743513946518E+03   -0.51992E-02   -0.13873E+00 13472   0.171E+00    0.352E-01
RMM:   2    -0.743517980230E+03   -0.40337E-02   -0.28195E-02 13440   0.325E-01    0.722E-01
RMM:   3    -0.743517127562E+03    0.85267E-03   -0.66583E-03 15665   0.140E-01    0.354E-01
RMM:   4    -0.743520278151E+03   -0.31506E-02   -0.17359E-03 13894   0.635E-02    0.808E-01
RMM:   5    -0.743516930211E+03    0.33479E-02   -0.82581E-04 12676   0.533E-02    0.367E-01
RMM:   6    -0.743516549434E+03    0.38078E-03   -0.64765E-04 12445   0.429E-02    0.199E-01
RMM:   7    -0.743516467850E+03    0.81584E-04   -0.36080E-04 10508   0.312E-02    0.108E-01
RMM:   8    -0.743516449119E+03    0.18730E-04   -0.15263E-04  8211   0.234E-02
  51 F= -.74351645E+03 E0= -.74290558E+03  d E =-.352004E-01  mag=     0.0000
 curvature:  -0.13 expect dE=-0.158E+00 dE for cont linesearch -0.253E-02
 ZBRENT: bracketing found
 ZBRENT: interpolating
 opt :   0.1224  next Energy=  -743.521359 (dE=-0.401E-01)
 bond charge predicted
       N       E                     dE             d eps       ncg     rms          rms(c)
DAV:   1    -0.743517971527E+03   -0.15037E-02   -0.28607E-01 13728   0.777E-01    0.176E-01
RMM:   2    -0.743521357741E+03   -0.33862E-02   -0.60744E-03 13440   0.151E-01    0.744E-01
RMM:   3    -0.743518506453E+03    0.28513E-02   -0.12236E-03 13308   0.683E-02    0.200E-01
RMM:   4    -0.743518559254E+03   -0.52801E-04   -0.43446E-04 10624   0.332E-02    0.193E-01
RMM:   5    -0.743518416180E+03    0.14307E-03   -0.20821E-04  8334   0.255E-02    0.154E-01
RMM:   6    -0.743518379166E+03    0.37014E-04   -0.14365E-04  7780   0.227E-02    0.976E-02
RMM:   7    -0.743518360250E+03    0.18917E-04   -0.69540E-05  7369   0.157E-02    0.736E-02
RMM:   8    -0.743518365456E+03   -0.52065E-05   -0.37741E-05  7085   0.119E-02
  52 F= -.74351837E+03 E0= -.74290622E+03  d E =-.371167E-01  mag=     0.0000
 curvature:  -0.25 expect dE=-0.177E+00 dE for cont linesearch -0.805E-03
 trial: gam= 1.18275 g(F)=  0.704E+00 g(S)=  0.000E+00 ort = 0.870E-01 (trialstep = 0.213E-01)
 search vector abs. value=  0.422E+01
 bond charge predicted
       N       E                     dE             d eps       ncg     rms          rms(c)
DAV:   1    -0.743532490488E+03   -0.14130E-01   -0.10381E-01 13968   0.482E-01    0.115E-01
RMM:   2    -0.743534852894E+03   -0.23624E-02   -0.22781E-03 13436   0.911E-02    0.618E-01
RMM:   3    -0.743532670098E+03    0.21828E-02   -0.43031E-04 11514   0.427E-02    0.153E-01
RMM:   4    -0.743532689718E+03   -0.19620E-04   -0.13556E-04  7856   0.212E-02    0.132E-01
RMM:   5    -0.743532746829E+03   -0.57111E-04   -0.69701E-05  7359   0.173E-02    0.165E-01
RMM:   6    -0.743532714667E+03    0.32163E-04   -0.54348E-05  7310   0.132E-02    0.107E-01
RMM:   7    -0.743532663482E+03    0.51185E-04   -0.37539E-05  7265   0.115E-02    0.491E-02
RMM:   8    -0.743532658230E+03    0.52521E-05   -0.19726E-05  6684   0.837E-03
  53 F= -.74353266E+03 E0= -.74292110E+03  d E =-.142928E-01  mag=     0.0000
 trial-energy change:   -0.014293  1 .order   -0.014091   -0.017159   -0.011023
 step:   0.0595(harm=  0.0595)  dis= 0.00756  next Energy=  -743.542360 (dE=-0.240E-01)
 bond charge predicted
       N       E                     dE             d eps       ncg     rms          rms(c)
DAV:   1    -0.743536328458E+03   -0.36650E-02   -0.33395E-01 13712   0.865E-01    0.185E-01
RMM:   2    -0.743538780161E+03   -0.24517E-02   -0.68768E-03 13440   0.158E-01    0.661E-01
RMM:   3    -0.743537125115E+03    0.16550E-02   -0.13987E-03 13787   0.682E-02    0.284E-01
RMM:   4    -0.743537440350E+03   -0.31524E-03   -0.37848E-04  9976   0.316E-02    0.321E-01
RMM:   5    -0.743537157973E+03    0.28238E-03   -0.26978E-04  9199   0.284E-02    0.253E-01
RMM:   6    -0.743537046942E+03    0.11103E-03   -0.14467E-04  7776   0.237E-02    0.170E-01
RMM:   7    -0.743537007606E+03    0.39336E-04   -0.80390E-05  7540   0.167E-02    0.937E-02
RMM:   8    -0.743536985011E+03    0.22595E-04   -0.47152E-05  7178   0.128E-02
  54 F= -.74353699E+03 E0= -.74292637E+03  d E =-.186196E-01  mag=     0.0000
 curvature:  -0.16 expect dE=-0.159E+00 dE for cont linesearch -0.264E-02
 ZBRENT: interpolating
 opt :   0.0465  next Energy=  -743.538726 (dE=-0.204E-01)
 bond charge predicted
       N       E                     dE             d eps       ncg     rms          rms(c)
DAV:   1    -0.743538938698E+03   -0.19311E-02   -0.38841E-02 13904   0.295E-01    0.825E-02
RMM:   2    -0.743539780265E+03   -0.84157E-03   -0.90907E-04 12945   0.575E-02    0.389E-01
RMM:   3    -0.743539063153E+03    0.71711E-03   -0.18962E-04  7927   0.286E-02    0.143E-01
RMM:   4    -0.743538985453E+03    0.77700E-04   -0.52087E-05  7252   0.161E-02    0.704E-02
RMM:   5    -0.743539006860E+03   -0.21407E-04   -0.23104E-05  6986   0.923E-03    0.887E-02
RMM:   6    -0.743539001112E+03    0.57482E-05   -0.23757E-05  7142   0.880E-03    0.727E-02
RMM:   7    -0.743538986717E+03    0.14394E-04   -0.16051E-05  6598   0.779E-03    0.383E-02
RMM:   8    -0.743538983138E+03    0.35792E-05   -0.64883E-06  6247   0.498E-03
  55 F= -.74353898E+03 E0= -.74292805E+03  d E =-.206177E-01  mag=     0.0000
 curvature:  -0.10 expect dE=-0.703E-01 dE for cont linesearch -0.192E-04
 trial: gam= 0.76142 g(F)=  0.685E+00 g(S)=  0.000E+00 ort =-0.281E-01 (trialstep = 0.263E-01)
 search vector abs. value=  0.309E+01
 bond charge predicted
       N       E                     dE             d eps       ncg     rms          rms(c)
DAV:   1    -0.743552580875E+03   -0.13594E-01   -0.12870E-01 13872   0.563E-01    0.116E-01
RMM:   2    -0.743553057711E+03   -0.47684E-03   -0.25907E-03 13440   0.990E-02    0.314E-01
RMM:   3    -0.743552806209E+03    0.25150E-03   -0.44961E-04 11222   0.429E-02    0.100E-01
RMM:   4    -0.743553045020E+03   -0.23881E-03   -0.16801E-04  8139   0.229E-02    0.205E-01
RMM:   5    -0.743552882459E+03    0.16256E-03   -0.63237E-05  7569   0.166E-02    0.144E-01
RMM:   6    -0.743552845425E+03    0.37034E-04   -0.32161E-05  7344   0.102E-02    0.907E-02
RMM:   7    -0.743552824667E+03    0.20758E-04   -0.21253E-05  6978   0.924E-03    0.506E-02
RMM:   8    -0.743552818546E+03    0.61216E-05   -0.65528E-06  6264   0.537E-03
  56 F= -.74355282E+03 E0= -.74294214E+03  d E =-.138354E-01  mag=     0.0000
 trial-energy change:   -0.013835  1 .order   -0.014263   -0.017461   -0.011064
 step:   0.0718(harm=  0.0718)  dis= 0.00784  next Energy=  -743.562815 (dE=-0.238E-01)
 bond charge predicted
       N       E                     dE             d eps       ncg     rms          rms(c)
DAV:   1    -0.743564529441E+03   -0.11705E-01   -0.38365E-01 13504   0.970E-01    0.185E-01
RMM:   2    -0.743565959427E+03   -0.14300E-02   -0.75956E-03 13440   0.170E-01    0.529E-01
RMM:   3    -0.743565387350E+03    0.57208E-03   -0.13847E-03 13624   0.713E-02    0.234E-01
RMM:   4    -0.743566055084E+03   -0.66773E-03   -0.49390E-04 10956   0.358E-02    0.381E-01
RMM:   5    -0.743565353302E+03    0.70178E-03   -0.19328E-04  8208   0.257E-02    0.203E-01
RMM:   6    -0.743565365990E+03   -0.12688E-04   -0.10137E-04  7824   0.201E-02    0.157E-01
RMM:   7    -0.743565312566E+03    0.53424E-04   -0.65401E-05  7654   0.155E-02    0.977E-02
RMM:   8    -0.743565297987E+03    0.14580E-04   -0.25468E-05  7284   0.105E-02
  57 F= -.74356530E+03 E0= -.74295539E+03  d E =-.263148E-01  mag=     0.0000
 curvature:  -0.17 expect dE=-0.645E-01 dE for cont linesearch -0.963E-03
 ZBRENT: extrapolating
 opt :   0.0929  next Energy=  -743.566708 (dE=-0.277E-01)
 bond charge predicted
       N       E                     dE             d eps       ncg     rms          rms(c)
DAV:   1    -0.743566637344E+03   -0.13248E-02   -0.82523E-02 14016   0.450E-01    0.904E-02
RMM:   2    -0.743566956509E+03   -0.31917E-03   -0.16310E-03 13440   0.784E-02    0.214E-01
RMM:   3    -0.743566832351E+03    0.12416E-03   -0.32177E-04  9319   0.325E-02    0.123E-01
RMM:   4    -0.743566818230E+03    0.14121E-04   -0.66560E-05  7689   0.187E-02    0.875E-02
RMM:   5    -0.743566859125E+03   -0.40895E-04   -0.40033E-05  7437   0.114E-02    0.122E-01
RMM:   6    -0.743566837840E+03    0.21284E-04   -0.27872E-05  7312   0.107E-02    0.753E-02
RMM:   7    -0.743566824593E+03    0.13248E-04   -0.18735E-05  6744   0.806E-03    0.310E-02
RMM:   8    -0.743566823020E+03    0.15726E-05   -0.60577E-06  6284   0.553E-03
  58 F= -.74356682E+03 E0= -.74295701E+03  d E =-.278399E-01  mag=     0.0000
 curvature:  -0.24 expect dE=-0.146E+00 dE for cont linesearch -0.337E-04
 trial: gam= 0.85153 g(F)=  0.595E+00 g(S)=  0.000E+00 ort = 0.206E-01 (trialstep = 0.396E-01)
 search vector abs. value=  0.287E+01
 bond charge predicted
       N       E                     dE             d eps       ncg     rms          rms(c)
DAV:   1    -0.743590677521E+03   -0.23853E-01   -0.18519E-01 13616   0.670E-01    0.138E-01
RMM:   2    -0.743591202832E+03   -0.52531E-03   -0.35531E-03 13440   0.118E-01    0.274E-01
RMM:   3    -0.743591168508E+03    0.34323E-04   -0.69201E-04 12817   0.500E-02    0.177E-01
RMM:   4    -0.743591171125E+03   -0.26166E-05   -0.21472E-04  8495   0.260E-02    0.158E-01
RMM:   5    -0.743591113357E+03    0.57767E-04   -0.11440E-04  7779   0.217E-02    0.140E-01
RMM:   6    -0.743591080931E+03    0.32427E-04   -0.62899E-05  7529   0.157E-02    0.827E-02
RMM:   7    -0.743591068357E+03    0.12574E-04   -0.37344E-05  7395   0.118E-02    0.491E-02
RMM:   8    -0.743591055325E+03    0.13032E-04   -0.12754E-05  6626   0.751E-03
  59 F= -.74359106E+03 E0= -.74298144E+03  d E =-.242323E-01  mag=    -0.0000
 ZBRENT: can't locate minimum, use default step
 trial-energy change:   -0.024232  1 .order   -0.023435   -0.024272   -0.022597
 step:   0.1585(harm=  0.5742)  dis= 0.01797  next Energy=  -743.742689 (dE=-0.176E+00)
 bond charge predicted
       N       E                     dE             d eps       ncg     rms          rms(c)
DAV:   1    -0.743615814489E+03   -0.24746E-01   -0.16733E+00 13440   0.202E+00    0.413E-01
RMM:   2    -0.743621874532E+03   -0.60600E-02   -0.32298E-02 13440   0.355E-01    0.949E-01
RMM:   3    -0.743621169269E+03    0.70526E-03   -0.64095E-03 13730   0.153E-01    0.649E-01
RMM:   4    -0.743619531221E+03    0.16380E-02   -0.22806E-03 15560   0.780E-02    0.328E-01
RMM:   5    -0.743619681526E+03   -0.15030E-03   -0.80123E-04 12714   0.477E-02    0.399E-01
RMM:   6    -0.743619465066E+03    0.21646E-03   -0.53108E-04 12218   0.423E-02    0.280E-01
RMM:   7    -0.743619254413E+03    0.21065E-03   -0.40374E-04 10879   0.353E-02    0.122E-01
RMM:   8    -0.743619146717E+03    0.10770E-03   -0.13564E-04  8139   0.212E-02    0.512E-02
RMM:   9    -0.743619150314E+03   -0.35966E-05   -0.31694E-05  7590   0.123E-02
  60 F= -.74361915E+03 E0= -.74301036E+03  d E =-.523273E-01  mag=    -0.0000
 curvature:  -0.53 expect dE=-0.360E+00 dE for cont linesearch -0.195E-02
 trial: gam= 0.76274 g(F)=  0.678E+00 g(S)=  0.000E+00 ort = 0.103E+00 (trialstep = 0.634E-01)
 search vector abs. value=  0.250E+01
 bond charge predicted
       N       E                     dE             d eps       ncg     rms          rms(c)
DAV:   1    -0.743654576737E+03   -0.35430E-01   -0.56956E-01 13952   0.116E+00    0.235E-01
RMM:   2    -0.743655942421E+03   -0.13657E-02   -0.11077E-02 13440   0.198E-01    0.341E-01
RMM:   3    -0.743656232990E+03   -0.29057E-03   -0.22259E-03 15063   0.832E-02    0.276E-01
RMM:   4    -0.743657324477E+03   -0.10915E-02   -0.69462E-04 12681   0.439E-02    0.522E-01
RMM:   5    -0.743655919586E+03    0.14049E-02   -0.29470E-04  9433   0.340E-02    0.222E-01
RMM:   6    -0.743655765174E+03    0.15441E-03   -0.16954E-04  8204   0.241E-02    0.106E-01
RMM:   7    -0.743655756941E+03    0.82328E-05   -0.95433E-05  7816   0.183E-02    0.836E-02
[...]
DAV:   1    -0.744058385857E+03   -0.31851E-02   -0.59661E-02 13840   0.365E-01    0.906E-02
RMM:   2    -0.744058990114E+03   -0.60426E-03   -0.12667E-03 13392   0.691E-02    0.279E-01
RMM:   3    -0.744058751914E+03    0.23820E-03   -0.31361E-04  9519   0.328E-02    0.213E-01
RMM:   4    -0.744058530646E+03    0.22127E-03   -0.79143E-05  7639   0.202E-02    0.751E-02
RMM:   5    -0.744058506066E+03    0.24580E-04   -0.29305E-05  7292   0.107E-02    0.610E-02
RMM:   6    -0.744058505026E+03    0.10399E-05   -0.15007E-05  6655   0.759E-03    0.291E-02
RMM:   7    -0.744058505919E+03   -0.89230E-06   -0.12470E-05  6722   0.624E-03    0.376E-02
RMM:   8    -0.744058506611E+03   -0.69254E-06   -0.67506E-06  6349   0.543E-03
 136 F= -.74405851E+03 E0= -.74345635E+03  d E =-.330009E-02  mag=    -0.0000
 trial-energy change:   -0.003300  1 .order   -0.003327   -0.005133   -0.001520
 step:   0.0505(harm=  0.0505)  dis= 0.00138  next Energy=  -744.058853 (dE=-0.365E-02)
 bond charge predicted
       N       E                     dE             d eps       ncg     rms          rms(c)
DAV:   1    -0.744058818920E+03   -0.31300E-03   -0.10562E-02 14112   0.153E-01    0.337E-02
RMM:   2    -0.744058926347E+03   -0.10743E-03   -0.23460E-04  8066   0.296E-02    0.120E-01
RMM:   3    -0.744058863281E+03    0.63066E-04   -0.50940E-05  7256   0.162E-02    0.746E-02
RMM:   4    -0.744058844472E+03    0.18809E-04   -0.12054E-05  7129   0.719E-03    0.343E-02
RMM:   5    -0.744058839325E+03    0.51465E-05   -0.35141E-06  5682   0.418E-03    0.230E-02
RMM:   6    -0.744058840554E+03   -0.12290E-05   -0.15619E-06  3597   0.327E-03    0.157E-02
RMM:   7    -0.744058840230E+03    0.32396E-06   -0.24369E-06  4616   0.345E-03    0.133E-02
RMM:   8    -0.744058841024E+03   -0.79396E-06   -0.10473E-06  2893   0.306E-03
 137 F= -.74405884E+03 E0= -.74345666E+03  d E =-.363451E-02  mag=    -0.0000
 curvature:  -0.06 expect dE=-0.632E-02 dE for cont linesearch -0.984E-06
 trial: gam= 0.89197 g(F)=  0.112E+00 g(S)=  0.000E+00 ort = 0.237E-02 (trialstep = 0.333E-01)
 search vector abs. value=  0.373E+00
 bond charge predicted
       N       E                     dE             d eps       ncg     rms          rms(c)
DAV:   1    -0.744061967528E+03   -0.31273E-02   -0.59165E-02 13888   0.345E-01    0.788E-02
RMM:   2    -0.744062377962E+03   -0.41043E-03   -0.13865E-03 13376   0.716E-02    0.297E-01
RMM:   3    -0.744062105525E+03    0.27244E-03   -0.29755E-04  9106   0.317E-02    0.139E-01
RMM:   4    -0.744062273911E+03   -0.16839E-03   -0.82399E-05  7628   0.188E-02    0.218E-01
RMM:   5    -0.744062076738E+03    0.19717E-03   -0.59374E-05  7320   0.139E-02    0.119E-01
RMM:   6    -0.744062041787E+03    0.34951E-04   -0.37542E-05  7118   0.111E-02    0.608E-02
RMM:   7    -0.744062036903E+03    0.48838E-05   -0.19087E-05  6795   0.853E-03    0.423E-02
RMM:   8    -0.744062038331E+03   -0.14279E-05   -0.76287E-06  6192   0.554E-03
 138 F= -.74406204E+03 E0= -.74346000E+03  d E =-.319731E-02  mag=    -0.0000
 trial-energy change:   -0.003197  1 .order   -0.003179   -0.003809   -0.002550
 step:   0.1006(harm=  0.1006)  dis= 0.00317  next Energy=  -744.064601 (dE=-0.576E-02)
 bond charge predicted
       N       E                     dE             d eps       ncg     rms          rms(c)
DAV:   1    -0.744064763581E+03   -0.27267E-02   -0.24224E-01 13600   0.698E-01    0.157E-01
RMM:   2    -0.744066287812E+03   -0.15242E-02   -0.56441E-03 13442   0.145E-01    0.577E-01
RMM:   3    -0.744065375138E+03    0.91267E-03   -0.13689E-03 14145   0.634E-02    0.294E-01
RMM:   4    -0.744066121590E+03   -0.74645E-03   -0.30912E-04  9305   0.290E-02    0.445E-01
RMM:   5    -0.744065213740E+03    0.90785E-03   -0.27156E-04  8928   0.287E-02    0.246E-01
RMM:   6    -0.744065117131E+03    0.96609E-04   -0.16922E-04  8033   0.234E-02    0.147E-01
RMM:   7    -0.744065079846E+03    0.37285E-04   -0.98875E-05  7695   0.180E-02    0.996E-02
RMM:   8    -0.744065070849E+03    0.89973E-05   -0.42301E-05  7207   0.130E-02
 139 F= -.74406507E+03 E0= -.74346331E+03  d E =-.622982E-02  mag=    -0.0000
 curvature:  -0.16 expect dE=-0.155E-01 dE for cont linesearch -0.622E-04
 trial: gam= 0.75883 g(F)=  0.943E-01 g(S)=  0.000E+00 ort = 0.119E-01 (trialstep = 0.468E-01)
 search vector abs. value=  0.327E+00
 bond charge predicted
       N       E                     dE             d eps       ncg     rms          rms(c)
DAV:   1    -0.744068995835E+03   -0.39160E-02   -0.92896E-02 13824   0.426E-01    0.106E-01
RMM:   2    -0.744069392474E+03   -0.39664E-03   -0.21728E-03 13440   0.902E-02    0.291E-01
RMM:   3    -0.744069246839E+03    0.14564E-03   -0.56799E-04 11461   0.388E-02    0.193E-01
RMM:   4    -0.744069800609E+03   -0.55377E-03   -0.11723E-04  7904   0.211E-02    0.347E-01
RMM:   5    -0.744069229330E+03    0.57128E-03   -0.12414E-04  7715   0.204E-02    0.193E-01
RMM:   6    -0.744069145546E+03    0.83784E-04   -0.89387E-05  7377   0.177E-02    0.830E-02
RMM:   7    -0.744069152130E+03   -0.65835E-05   -0.50060E-05  7245   0.117E-02    0.703E-02
RMM:   8    -0.744069145433E+03    0.66961E-05   -0.15708E-05  6687   0.897E-03
 140 F= -.74406915E+03 E0= -.74346751E+03  d E =-.407458E-02  mag=    -0.0000
 trial-energy change:   -0.004075  1 .order   -0.004013   -0.004831   -0.003194
 step:   0.1379(harm=  0.1379)  dis= 0.00461  next Energy=  -744.072198 (dE=-0.713E-02)
 bond charge predicted
       N       E                     dE             d eps       ncg     rms          rms(c)
DAV:   1    -0.744071143081E+03   -0.19910E-02   -0.35416E-01 13760   0.831E-01    0.200E-01
RMM:   2    -0.744074058368E+03   -0.29153E-02   -0.85458E-03 13444   0.182E-01    0.791E-01
RMM:   3    -0.744072101516E+03    0.19569E-02   -0.21496E-03 14978   0.797E-02    0.382E-01
RMM:   4    -0.744072672041E+03   -0.57052E-03   -0.49013E-04 10664   0.341E-02    0.474E-01
RMM:   5    -0.744071844040E+03    0.82800E-03   -0.40653E-04 10648   0.334E-02    0.314E-01
RMM:   6    -0.744071659355E+03    0.18468E-03   -0.28225E-04  9223   0.288E-02    0.177E-01
RMM:   7    -0.744071643599E+03    0.15756E-04   -0.14868E-04  7990   0.209E-02    0.127E-01
RMM:   8    -0.744071616866E+03    0.26733E-04   -0.71970E-05  7568   0.170E-02
 141 F= -.74407162E+03 E0= -.74347021E+03  d E =-.654602E-02  mag=     0.0000
 curvature:  -0.22 expect dE=-0.316E-01 dE for cont linesearch -0.120E-03
 trial: gam= 1.63312 g(F)=  0.145E+00 g(S)=  0.000E+00 ort =-0.134E-01 (trialstep = 0.218E-01)
 search vector abs. value=  0.973E+00
 bond charge predicted
       N       E                     dE             d eps       ncg     rms          rms(c)
DAV:   1    -0.744073177400E+03   -0.15338E-02   -0.61653E-02 14000   0.353E-01    0.974E-02
RMM:   2    -0.744073349752E+03   -0.17235E-03   -0.14908E-03 13332   0.741E-02    0.147E-01
RMM:   3    -0.744073343230E+03    0.65219E-05   -0.32210E-04  9299   0.319E-02    0.117E-01
RMM:   4    -0.744073385865E+03   -0.42635E-04   -0.83642E-05  7799   0.197E-02    0.135E-01
RMM:   5    -0.744073340641E+03    0.45224E-04   -0.64926E-05  7512   0.144E-02    0.138E-01
RMM:   6    -0.744073289823E+03    0.50819E-04   -0.27892E-05  7192   0.113E-02    0.574E-02
RMM:   7    -0.744073281940E+03    0.78821E-05   -0.15647E-05  6665   0.661E-03    0.381E-02
RMM:   8    -0.744073277228E+03    0.47124E-05   -0.69159E-06  6314   0.568E-03
 142 F= -.74407328E+03 E0= -.74347188E+03  d E =-.166036E-02  mag=     0.0000
 trial-energy change:   -0.001660  1 .order   -0.001681   -0.002689   -0.000674
 step:   0.0291(harm=  0.0291)  dis= 0.00162  next Energy=  -744.073411 (dE=-0.179E-02)
 bond charge predicted
       N       E                     dE             d eps       ncg     rms          rms(c)
DAV:   1    -0.744073385528E+03   -0.10359E-03   -0.69170E-03 13920   0.118E-01    0.265E-02
RMM:   2    -0.744073432450E+03   -0.46922E-04   -0.16871E-04  7556   0.251E-02    0.963E-02
RMM:   3    -0.744073400494E+03    0.31956E-04   -0.32698E-05  7188   0.137E-02    0.403E-02
RMM:   4    -0.744073416313E+03   -0.15819E-04   -0.95136E-06  6808   0.583E-03    0.653E-02
RMM:   5    -0.744073397744E+03    0.18569E-04   -0.59867E-06  6311   0.506E-03    0.323E-02
RMM:   6    -0.744073396572E+03    0.11729E-05   -0.23791E-06  4318   0.352E-03    0.150E-02
RMM:   7    -0.744073398037E+03   -0.14650E-05   -0.79905E-07  2585   0.301E-03    0.161E-02
RMM:   8    -0.744073398658E+03   -0.62173E-06   -0.22158E-07  1862   0.278E-03
 143 F= -.74407340E+03 E0= -.74347208E+03  d E =-.178179E-02  mag=     0.0000
 curvature:  -0.12 expect dE=-0.566E-02 dE for cont linesearch -0.102E-07
 trial: gam= 0.04365 g(F)=  0.491E-01 g(S)=  0.000E+00 ort = 0.293E-03 (trialstep = 0.233E-01)
 search vector abs. value=  0.510E-01
 bond charge predicted
       N       E                     dE             d eps       ncg     rms          rms(c)
DAV:   1    -0.744074357854E+03   -0.95982E-03   -0.66629E-03 13728   0.134E-01    0.213E-02
RMM:   2    -0.744074374504E+03   -0.16649E-04   -0.15568E-04  7458   0.252E-02    0.304E-02
RMM:   3    -0.744074381371E+03   -0.68673E-05   -0.22796E-05  7148   0.115E-02    0.403E-02
RMM:   4    -0.744074372996E+03    0.83754E-05   -0.52613E-06  6898   0.506E-03    0.129E-02
RMM:   5    -0.744074376475E+03   -0.34789E-05   -0.19719E-06  4558   0.347E-03    0.263E-02
RMM:   6    -0.744074374830E+03    0.16442E-05   -0.44753E-07  2647   0.301E-03    0.101E-02
RMM:   7    -0.744074375536E+03   -0.70578E-06   -0.68258E-07  2743   0.306E-03    0.914E-03
RMM:   8    -0.744074375367E+03    0.16890E-06   -0.33688E-07  2085   0.275E-03
 144 F= -.74407438E+03 E0= -.74347306E+03  d E =-.976709E-03  mag=     0.0000
 trial-energy change:   -0.000977  1 .order   -0.000973   -0.001145   -0.000801
 step:   0.0776(harm=  0.0776)  dis= 0.00097  next Energy=  -744.075305 (dE=-0.191E-02)
 bond charge predicted
       N       E                     dE             d eps       ncg     rms          rms(c)
DAV:   1    -0.744075255116E+03   -0.87958E-03   -0.35982E-02 13888   0.312E-01    0.461E-02
RMM:   2    -0.744075341288E+03   -0.86172E-04   -0.81903E-04 13118   0.585E-02    0.815E-02
RMM:   3    -0.744075339069E+03    0.22192E-05   -0.14386E-04  7492   0.231E-02    0.346E-02
RMM:   4    -0.744075422223E+03   -0.83154E-04   -0.38041E-05  7388   0.142E-02    0.128E-01
RMM:   5    -0.744075339805E+03    0.82418E-04   -0.11505E-05  7108   0.714E-03    0.450E-02
RMM:   6    -0.744075340089E+03   -0.28328E-06   -0.60916E-06  6181   0.475E-03    0.368E-02
RMM:   7    -0.744075341481E+03   -0.13923E-05   -0.33828E-06  5285   0.409E-03    0.274E-02
RMM:   8    -0.744075341710E+03   -0.22863E-06   -0.21905E-06  4437   0.346E-03
 145 F= -.74407534E+03 E0= -.74347413E+03  d E =-.194305E-02  mag=     0.0000
 curvature:  -0.04 expect dE=-0.637E-03 dE for cont linesearch -0.170E-05
 trial: gam= 0.28939 g(F)=  0.158E-01 g(S)=  0.000E+00 ort = 0.147E-02 (trialstep = 0.341E-01)
 search vector abs. value=  0.209E-01
 bond charge predicted
       N       E                     dE             d eps       ncg     rms          rms(c)
DAV:   1    -0.744075718940E+03   -0.37746E-03   -0.54666E-03 13664   0.118E-01    0.282E-02
RMM:   2    -0.744075802469E+03   -0.83529E-04   -0.13603E-04  7302   0.229E-02    0.113E-01
RMM:   3    -0.744075737945E+03    0.64524E-04   -0.28173E-05  7164   0.123E-02    0.491E-02
RMM:   4    -0.744075730887E+03    0.70577E-05   -0.66437E-06  6966   0.570E-03    0.184E-02
RMM:   5    -0.744075730281E+03    0.60631E-06   -0.18162E-06  4558   0.350E-03    0.165E-02
RMM:   6    -0.744075731089E+03   -0.80759E-06   -0.53563E-07  2766   0.287E-03    0.123E-02
RMM:   7    -0.744075731372E+03   -0.28292E-06   -0.40683E-07  2605   0.279E-03    0.133E-02
RMM:   8    -0.744075730478E+03    0.89350E-06   -0.13688E-07  1708   0.276E-03
 146 F= -.74407573E+03 E0= -.74347451E+03  d E =-.388769E-03  mag=     0.0000
 trial-energy change:   -0.000389  1 .order   -0.000397   -0.000555   -0.000239
 step:   0.0601(harm=  0.0601)  dis= 0.00028  next Energy=  -744.075829 (dE=-0.488E-03)
 bond charge predicted
       N       E                     dE             d eps       ncg     rms          rms(c)
DAV:   1    -0.744075822391E+03   -0.91020E-04   -0.31142E-03 13632   0.893E-02    0.147E-02
RMM:   2    -0.744075834690E+03   -0.12299E-04   -0.74920E-05  7170   0.174E-02    0.361E-02
RMM:   3    -0.744075832097E+03    0.25925E-05   -0.12307E-05  7116   0.837E-03    0.257E-02
RMM:   4    -0.744075828973E+03    0.31246E-05   -0.27784E-06  5705   0.383E-03    0.139E-02
RMM:   5    -0.744075829468E+03   -0.49495E-06   -0.11329E-07  1957   0.269E-03    0.111E-02
RMM:   6    -0.744075829588E+03   -0.11989E-06   -0.54494E-08  1782   0.278E-03    0.101E-02
RMM:   7    -0.744075829450E+03    0.13773E-06   -0.10664E-07  1658   0.286E-03    0.445E-03
RMM:   8    -0.744075829575E+03   -0.12496E-06   -0.39649E-07  1820   0.301E-03
 147 F= -.74407583E+03 E0= -.74347461E+03  d E =-.487865E-03  mag=     0.0000
 curvature:  -0.04 expect dE=-0.545E-03 dE for cont linesearch -0.621E-06
 trial: gam= 0.85895 g(F)=  0.141E-01 g(S)=  0.000E+00 ort = 0.580E-03 (trialstep = 0.270E-01)
 search vector abs. value=  0.305E-01
 bond charge predicted
       N       E                     dE             d eps       ncg     rms          rms(c)
DAV:   1    -0.744076107843E+03   -0.27839E-03   -0.48824E-03 13440   0.110E-01    0.187E-02
RMM:   2    -0.744076118815E+03   -0.10972E-04   -0.11222E-04  7186   0.212E-02    0.380E-02
RMM:   3    -0.744076117189E+03    0.16253E-05   -0.17828E-05  7078   0.104E-02    0.138E-02
RMM:   4    -0.744076126843E+03   -0.96537E-05   -0.52673E-06  6786   0.452E-03    0.426E-02
RMM:   5    -0.744076116883E+03    0.99601E-05   -0.11816E-06  3728   0.331E-03    0.161E-02
RMM:   6    -0.744076118473E+03   -0.15903E-05   -0.95543E-07  3275   0.297E-03    0.142E-02
RMM:   7    -0.744076118144E+03    0.32920E-06   -0.22603E-07  2022   0.265E-03    0.112E-02
RMM:   8    -0.744076117622E+03    0.52213E-06   -0.69562E-08  1471   0.256E-03
 148 F= -.74407612E+03 E0= -.74347490E+03  d E =-.288047E-03  mag=     0.0000
 trial-energy change:   -0.000288  1 .order   -0.000297   -0.000393   -0.000201
 step:   0.0552(harm=  0.0552)  dis= 0.00054  next Energy=  -744.076232 (dE=-0.402E-03)
 bond charge predicted
       N       E                     dE             d eps       ncg     rms          rms(c)
DAV:   1    -0.744076207554E+03   -0.89410E-04   -0.52960E-03 13664   0.114E-01    0.196E-02
RMM:   2    -0.744076226582E+03   -0.19028E-04   -0.12366E-04  7224   0.224E-02    0.472E-02
RMM:   3    -0.744076218189E+03    0.83936E-05   -0.20011E-05  7146   0.108E-02    0.236E-02
RMM:   4    -0.744076220398E+03   -0.22093E-05   -0.53067E-06  6731   0.479E-03    0.243E-02
RMM:   5    -0.744076219243E+03    0.11546E-05   -0.18283E-06  4531   0.353E-03    0.224E-02
RMM:   6    -0.744076218679E+03    0.56401E-06   -0.76707E-07  2925   0.293E-03    0.101E-02
RMM:   7    -0.744076218978E+03   -0.29850E-06   -0.66443E-07  2703   0.293E-03    0.994E-03
RMM:   8    -0.744076218680E+03    0.29770E-06   -0.33796E-07  1886   0.279E-03
 149 F= -.74407622E+03 E0= -.74347501E+03  d E =-.389105E-03  mag=     0.0000
 curvature:  -0.06 expect dE=-0.399E-03 dE for cont linesearch -0.417E-07
 trial: gam= 0.53285 g(F)=  0.691E-02 g(S)=  0.000E+00 ort = 0.149E-03 (trialstep = 0.326E-01)
 search vector abs. value=  0.157E-01
 bond charge predicted
       N       E                     dE             d eps       ncg     rms          rms(c)
DAV:   1    -0.744076399791E+03   -0.18081E-03   -0.37130E-03 13568   0.925E-02    0.160E-02
RMM:   2    -0.744076409780E+03   -0.99897E-05   -0.80047E-05  7162   0.180E-02    0.402E-02
RMM:   3    -0.744076406565E+03    0.32150E-05   -0.14005E-05  7084   0.904E-03    0.148E-02
RMM:   4    -0.744076411281E+03   -0.47154E-05   -0.38393E-06  6074   0.403E-03    0.307E-02
RMM:   5    -0.744076406492E+03    0.47890E-05   -0.84658E-07  3497   0.314E-03    0.122E-02
RMM:   6    -0.744076407449E+03   -0.95763E-06   -0.33230E-07  2208   0.284E-03    0.139E-02
RMM:   7    -0.744076407476E+03   -0.26914E-07   -0.19548E-07  1784   0.262E-03    0.113E-02
RMM:   8    -0.744076406958E+03    0.51800E-06   -0.34723E-07  1664   0.276E-03
 150 F= -.74407641E+03 E0= -.74347521E+03  d E =-.188278E-03  mag=    -0.0000
 trial-energy change:   -0.000188  1 .order   -0.000189   -0.000228   -0.000149
 step:   0.0943(harm=  0.0943)  dis= 0.00054  next Energy=  -744.076548 (dE=-0.330E-03)
 bond charge predicted
       N       E                     dE             d eps       ncg     rms          rms(c)
DAV:   1    -0.744076496158E+03   -0.88682E-04   -0.13278E-02 13856   0.175E-01    0.281E-02
RMM:   2    -0.744076531573E+03   -0.35415E-04   -0.27483E-04  8487   0.332E-02    0.707E-02
RMM:   3    -0.744076523143E+03    0.84303E-05   -0.48498E-05  7188   0.161E-02    0.319E-02
RMM:   4    -0.744076533261E+03   -0.10119E-04   -0.13923E-05  7080   0.766E-03    0.516E-02
RMM:   5    -0.744076521849E+03    0.11412E-04   -0.56599E-06  6270   0.523E-03    0.264E-02
RMM:   6    -0.744076521545E+03    0.30418E-06   -0.17627E-06  3657   0.330E-03    0.171E-02
RMM:   7    -0.744076522068E+03   -0.52276E-06   -0.22656E-06  4567   0.340E-03    0.126E-02
RMM:   8    -0.744076522140E+03   -0.72185E-07   -0.58947E-07  2273   0.282E-03
 151 F= -.74407652E+03 E0= -.74347539E+03  d E =-.303460E-03  mag=    -0.0000
 curvature:  -0.11 expect dE=-0.361E-03 dE for cont linesearch -0.386E-05
 ZBRENT: interpolating
 opt :   0.0856  next Energy=  -744.076525 (dE=-0.307E-03)
 bond charge predicted
       N       E                     dE             d eps       ncg     rms          rms(c)
DAV:   1    -0.744076524930E+03   -0.28623E-05   -0.26962E-04 11808   0.252E-02    0.130E-02
RMM:   2    -0.744076543627E+03   -0.18696E-04   -0.11512E-05  7065   0.671E-03    0.561E-02
RMM:   3    -0.744076528465E+03    0.15161E-04   -0.38159E-06  6046   0.453E-03    0.287E-02
RMM:   4    -0.744076525382E+03    0.30836E-05   -0.51209E-08  1285   0.240E-03    0.867E-03
RMM:   5    -0.744076525700E+03   -0.31856E-06    0.00000E+00   884   0.230E-03    0.830E-03
RMM:   6    -0.744076525633E+03    0.67557E-07   -0.81049E-10   885   0.237E-03    0.701E-03
RMM:   7    -0.744076525630E+03    0.32742E-08   -0.42735E-08  1058   0.259E-03    0.400E-03
RMM:   8    -0.744076525662E+03   -0.31978E-07   -0.69123E-08  1092   0.265E-03
 152 F= -.74407653E+03 E0= -.74347537E+03  d E =-.306982E-03  mag=    -0.0000
 curvature:  -0.09 expect dE=-0.288E-03 dE for cont linesearch -0.287E-09
 trial: gam= 0.26502 g(F)=  0.316E-02 g(S)=  0.000E+00 ort = 0.704E-05 (trialstep = 0.432E-01)
 search vector abs. value=  0.427E-02
 bond charge predicted
       N       E                     dE             d eps       ncg     rms          rms(c)
DAV:   1    -0.744076618592E+03   -0.92963E-04   -0.16279E-03 13184   0.612E-02    0.104E-02
RMM:   2    -0.744076625291E+03   -0.66986E-05   -0.36275E-05  7096   0.122E-02    0.281E-02
RMM:   3    -0.744076621009E+03    0.42818E-05   -0.59675E-06  7004   0.576E-03    0.104E-02
RMM:   4    -0.744076622297E+03   -0.12876E-05   -0.33575E-07  2115   0.274E-03    0.126E-02
RMM:   5    -0.744076621495E+03    0.80150E-06   -0.80864E-08  1705   0.267E-03    0.939E-03
RMM:   6    -0.744076621499E+03   -0.33688E-08   -0.79370E-08  1322   0.273E-03    0.663E-03
RMM:   7    -0.744076621409E+03    0.89109E-07   -0.33167E-07  1494   0.284E-03    0.524E-03
RMM:   8    -0.744076621339E+03    0.70475E-07   -0.41847E-07  1434   0.285E-03
 153 F= -.74407662E+03 E0= -.74347548E+03  d E =-.956775E-04  mag=    -0.0000
 trial-energy change:   -0.000096  1 .order   -0.000096   -0.000137   -0.000056
 step:   0.0729(harm=  0.0729)  dis= 0.00023  next Energy=  -744.076641 (dE=-0.115E-03)
 reached required accuracy - stopping structural energy minimisation
 writing wavefunctions
