       N       E                     dE             d eps       ncg     rms          rms(c)
DAV:   1     0.757111106592E+04    0.75711E+04   -0.29552E+05 15072   0.125E+03
DAV:   2     0.598678088658E+03   -0.69724E+04   -0.62822E+04 16064   0.371E+02
DAV:   3    -0.753110518667E+03   -0.13518E+04   -0.12987E+04 18560   0.165E+02
DAV:   4    -0.825489487606E+03   -0.72379E+02   -0.70572E+02 20240   0.429E+01
DAV:   5    -0.827132341011E+03   -0.16429E+01   -0.16235E+01 19296   0.605E+00    0.188E+02
RMM:   6    -0.720741215042E+03    0.10639E+03   -0.62574E+02 14890   0.401E+01    0.192E+02
RMM:   7    -0.128571258128E+04   -0.56497E+03   -0.31545E+02 16089   0.255E+01    0.375E+02
RMM:   8    -0.122472574906E+04    0.60987E+02   -0.86788E+01 18336   0.103E+01    0.372E+02
RMM:   9    -0.155782833075E+04   -0.33310E+03   -0.60067E+01 16208   0.789E+00    0.418E+02
RMM:  10    -0.177494388187E+04   -0.21712E+03   -0.74257E+01 16865   0.973E+00    0.448E+02
RMM:  11    -0.218944423724E+04   -0.41450E+03   -0.11526E+03 25344   0.406E+01    0.389E+02
RMM:  12    -0.312176640573E+04   -0.93232E+03   -0.10802E+03 25777   0.378E+01    0.438E+02
RMM:  13    -0.285952178037E+04    0.26224E+03   -0.29533E+02 22432   0.169E+01    0.357E+02
RMM:  14    -0.241736696447E+04    0.44215E+03   -0.20608E+02 21475   0.120E+01    0.350E+02
RMM:  15    -0.223594439661E+04    0.18142E+03   -0.12123E+02 20791   0.102E+01    0.357E+02
RMM:  16    -0.188600767644E+04    0.34994E+03   -0.10607E+02 20206   0.981E+00    0.341E+02
RMM:  17    -0.167407968878E+04    0.21193E+03   -0.76690E+01 20249   0.914E+00    0.332E+02
RMM:  18    -0.125843116360E+04    0.41565E+03   -0.17103E+02 23047   0.141E+01    0.313E+02
RMM:  19    -0.786477264074E+03    0.47195E+03   -0.22697E+02 23182   0.160E+01    0.227E+02
RMM:  20    -0.806591156054E+03   -0.20114E+02   -0.19688E+01 16732   0.528E+00    0.262E+02
RMM:  21    -0.822759438012E+03   -0.16168E+02   -0.48801E+00 16317   0.274E+00    0.255E+02
RMM:  22    -0.753244939998E+03    0.69514E+02   -0.93140E+00 17545   0.374E+00    0.209E+02
RMM:  23    -0.745892722256E+03    0.73522E+01   -0.54491E+00 16631   0.332E+00    0.203E+02
RMM:  24    -0.709964714786E+03    0.35928E+02   -0.64350E+00 17761   0.332E+00    0.186E+02
RMM:  25    -0.678059358483E+03    0.31905E+02   -0.14737E+01 20034   0.506E+00    0.164E+02
RMM:  26    -0.656704616160E+03    0.21355E+02   -0.60732E+00 18068   0.321E+00    0.148E+02
RMM:  27    -0.657069259538E+03   -0.36464E+00   -0.57426E-01 17050   0.114E+00    0.148E+02
RMM:  28    -0.657007596504E+03    0.61663E-01   -0.16500E-01 17555   0.526E-01    0.147E+02
RMM:  29    -0.658485227115E+03   -0.14776E+01   -0.12498E-01 15030   0.553E-01    0.149E+02
RMM:  30    -0.661528187398E+03   -0.30430E+01   -0.11037E+00 20276   0.154E+00    0.153E+02
RMM:  31    -0.670530963964E+03   -0.90028E+01   -0.21865E+00 23176   0.213E+00    0.166E+02
RMM:  32    -0.666563630751E+03    0.39673E+01   -0.31153E-01 16606   0.865E-01    0.160E+02
RMM:  33    -0.657499447998E+03    0.90642E+01   -0.53882E+00 25337   0.316E+00    0.139E+02
RMM:  34    -0.651327564716E+03    0.61719E+01   -0.27346E+00 24314   0.229E+00    0.123E+02
RMM:  35    -0.641879941795E+03    0.94476E+01   -0.75388E+00 25660   0.377E+00    0.922E+01
RMM:  36    -0.642016923924E+03   -0.13698E+00   -0.89013E-01 20631   0.131E+00    0.830E+01
RMM:  37    -0.643439434016E+03   -0.14225E+01   -0.21429E-01 16794   0.708E-01    0.801E+01
RMM:  38    -0.647693709191E+03   -0.42543E+01   -0.27865E+00 24555   0.228E+00    0.608E+01
RMM:  39    -0.657592317528E+03   -0.98986E+01   -0.70353E+00 25872   0.356E+00    0.280E+01
RMM:  40    -0.659749204151E+03   -0.21569E+01   -0.14974E+00 22877   0.162E+00    0.179E+01
RMM:  41    -0.663657327138E+03   -0.39081E+01   -0.15199E+00 22330   0.160E+00    0.202E+01
RMM:  42    -0.661102064890E+03    0.25553E+01   -0.70590E-01 19631   0.116E+00    0.173E+01
RMM:  43    -0.668215338922E+03   -0.71133E+01   -0.24089E+00 23378   0.209E+00    0.276E+01
RMM:  44    -0.668951265059E+03   -0.73593E+00   -0.12821E+00 21860   0.153E+00    0.400E+01
RMM:  45    -0.670962026793E+03   -0.20108E+01   -0.66641E-02 15025   0.422E-01    0.404E+01
RMM:  46    -0.669689099891E+03    0.12729E+01   -0.23816E-01 18334   0.666E-01    0.343E+01
RMM:  47    -0.673789402816E+03   -0.41003E+01   -0.34193E-01 19411   0.873E-01    0.387E+01
RMM:  48    -0.673392320811E+03    0.39708E+00   -0.31558E-01 19251   0.751E-01    0.355E+01
RMM:  49    -0.674951266132E+03   -0.15589E+01   -0.65511E-01 21840   0.104E+00    0.263E+01
RMM:  50    -0.673540176351E+03    0.14111E+01   -0.23934E-01 18818   0.695E-01    0.282E+01
RMM:  51    -0.671507796994E+03    0.20324E+01   -0.27412E+00 25405   0.219E+00    0.143E+01
RMM:  52    -0.676762338371E+03   -0.52545E+01   -0.52064E-01 20466   0.100E+00    0.164E+01
RMM:  53    -0.675849173148E+03    0.91317E+00   -0.79362E-02 15928   0.469E-01    0.161E+01
RMM:  54    -0.674821084509E+03    0.10281E+01   -0.93949E-02 16773   0.447E-01    0.147E+01
RMM:  55    -0.675365047089E+03   -0.54396E+00   -0.14298E-01 18329   0.517E-01    0.128E+01
RMM:  56    -0.678172280831E+03   -0.28072E+01   -0.41001E-01 21434   0.856E-01    0.947E+00
RMM:  57    -0.680237079642E+03   -0.20648E+01   -0.21523E-01 18670   0.614E-01    0.870E+00
RMM:  58    -0.681712668278E+03   -0.14756E+01   -0.31614E-01 20177   0.729E-01    0.701E+00
RMM:  59    -0.681919343977E+03   -0.20668E+00   -0.12307E-01 17654   0.471E-01    0.580E+00
RMM:  60    -0.682421448839E+03   -0.50210E+00   -0.45430E-02 15488   0.291E-01    0.529E+00
RMM:  61    -0.682030789648E+03    0.39066E+00   -0.37493E-01 21357   0.804E-01    0.591E+00
RMM:  62    -0.681935572050E+03    0.95218E-01   -0.92850E-02 17433   0.402E-01    0.516E+00
RMM:  63    -0.682769418538E+03   -0.83385E+00   -0.58278E-02 16509   0.329E-01    0.424E+00
RMM:  64    -0.683467976592E+03   -0.69856E+00   -0.26409E-02 15545   0.237E-01    0.346E+00
RMM:  65    -0.683688850117E+03   -0.22087E+00   -0.17221E-02 15423   0.188E-01    0.287E+00
RMM:  66    -0.684208218557E+03   -0.51937E+00   -0.13025E-01 20714   0.424E-01    0.365E+00
RMM:  67    -0.684316614264E+03   -0.10840E+00   -0.19483E-02 16412   0.217E-01    0.209E+00
RMM:  68    -0.684508860090E+03   -0.19225E+00   -0.13641E-02 16004   0.183E-01    0.194E+00
RMM:  69    -0.684642773466E+03   -0.13391E+00   -0.10352E-02 15606   0.162E-01    0.128E+00
RMM:  70    -0.684784904780E+03   -0.14213E+00   -0.61042E-03 15213   0.117E-01    0.974E-01
RMM:  71    -0.684889499015E+03   -0.10459E+00   -0.80933E-03 16436   0.123E-01    0.870E-01
RMM:  72    -0.685002236587E+03   -0.11274E+00   -0.58506E-03 15937   0.109E-01    0.659E-01
RMM:  73    -0.685092056274E+03   -0.89820E-01   -0.34753E-03 15458   0.803E-02    0.441E-01
RMM:  74    -0.685146222882E+03   -0.54167E-01   -0.11715E-03 13822   0.488E-02    0.377E-01
RMM:  75    -0.685212977768E+03   -0.66755E-01   -0.91482E-04 13586   0.425E-02    0.274E-01
RMM:  76    -0.685259933704E+03   -0.46956E-01   -0.55117E-04 12669   0.364E-02    0.255E-01
RMM:  77    -0.685310437442E+03   -0.50504E-01   -0.32764E-04 10940   0.289E-02    0.202E-01
RMM:  78    -0.685434566494E+03   -0.12413E+00   -0.73129E-04 11730   0.315E-02    0.164E-01
RMM:  79    -0.685519902190E+03   -0.85336E-01   -0.53286E-04 11013   0.257E-02    0.128E-01
RMM:  80    -0.685602447535E+03   -0.82545E-01   -0.59860E-04 11009   0.248E-02
   1 F= -.68560245E+03 E0= -.68503819E+03  d E =-.685602E+03  mag=     5.0653
       N       E                     dE             d eps       ncg     rms          rms(c)
DAV:   1    -0.679024190019E+03    0.64957E+01   -0.15876E+03 15584   0.531E+01    0.175E+01
RMM:   2    -0.708576911233E+03   -0.29553E+02   -0.83298E+01 15055   0.134E+01    0.585E+01
RMM:   3    -0.705032435826E+03    0.35445E+01   -0.18198E+01 15913   0.599E+00    0.513E+01
RMM:   4    -0.687051827666E+03    0.17981E+02   -0.40654E+00 15147   0.331E+00    0.187E+01
RMM:   5    -0.685394673340E+03    0.16572E+01   -0.15831E+00 15324   0.198E+00    0.114E+01
RMM:   6    -0.685889187580E+03   -0.49451E+00   -0.48764E-01 14990   0.119E+00    0.129E+01
RMM:   7    -0.685410343150E+03    0.47884E+00   -0.23926E-01 14962   0.855E-01    0.788E+00
RMM:   8    -0.685466428200E+03   -0.56085E-01   -0.23604E-01 15539   0.670E-01    0.623E+00
RMM:   9    -0.685625917595E+03   -0.15949E+00   -0.30528E-01 16639   0.726E-01    0.454E+00
RMM:  10    -0.685554314623E+03    0.71603E-01   -0.15651E-01 15851   0.547E-01    0.330E+00
RMM:  11    -0.685526979161E+03    0.27335E-01   -0.40751E-02 15144   0.324E-01    0.238E+00
RMM:  12    -0.685549104527E+03   -0.22125E-01   -0.17460E-02 15574   0.207E-01    0.150E+00
RMM:  13    -0.685597282321E+03   -0.48178E-01   -0.19050E-02 15750   0.175E-01    0.171E+00
RMM:  14    -0.685605138380E+03   -0.78561E-02   -0.62265E-03 15067   0.119E-01    0.127E+00
RMM:  15    -0.685614684983E+03   -0.95466E-02   -0.30331E-03 14630   0.795E-02    0.940E-01
RMM:  16    -0.685621789524E+03   -0.71045E-02   -0.10349E-03 13659   0.483E-02    0.795E-01
RMM:  17    -0.685627781319E+03   -0.59918E-02   -0.51555E-04 12385   0.374E-02    0.638E-01
RMM:  18    -0.685635139449E+03   -0.73581E-02   -0.49256E-04 12123   0.339E-02    0.453E-01
RMM:  19    -0.685642411126E+03   -0.72717E-02   -0.47609E-04 11615   0.302E-02    0.271E-01
RMM:  20    -0.685648440891E+03   -0.60298E-02   -0.28298E-04 10278   0.239E-02    0.172E-01
RMM:  21    -0.685652406220E+03   -0.39653E-02   -0.11660E-04  9084   0.183E-02    0.156E-01
RMM:  22    -0.685656072579E+03   -0.36664E-02   -0.88826E-05  8937   0.151E-02    0.125E-01
RMM:  23    -0.685658456828E+03   -0.23842E-02   -0.57474E-05  8547   0.119E-02    0.744E-02
RMM:  24    -0.685660430716E+03   -0.19739E-02   -0.45021E-05  8408   0.103E-02    0.375E-02
RMM:  25    -0.685662547321E+03   -0.21166E-02   -0.42320E-05  7804   0.828E-03    0.285E-02
RMM:  26    -0.685664008031E+03   -0.14607E-02   -0.22621E-05  6818   0.629E-03    0.264E-02
RMM:  27    -0.685665331006E+03   -0.13230E-02   -0.22414E-05  6566   0.564E-03    0.194E-02
RMM:  28    -0.685666298847E+03   -0.96784E-03   -0.20845E-05  6674   0.548E-03    0.184E-02
RMM:  29    -0.685666921520E+03   -0.62267E-03   -0.15115E-05  6012   0.501E-03    0.153E-02
RMM:  30    -0.685667256871E+03   -0.33535E-03   -0.91555E-06  5497   0.434E-03    0.140E-02
RMM:  31    -0.685667650354E+03   -0.39348E-03   -0.77880E-06  5031   0.388E-03    0.125E-02
RMM:  32    -0.685667837313E+03   -0.18696E-03   -0.64583E-06  4809   0.373E-03    0.100E-02
RMM:  33    -0.685667905954E+03   -0.68641E-04   -0.43937E-06  4467   0.351E-03
   2 F= -.68566791E+03 E0= -.68510563E+03  d E =-.654584E-01  mag=     5.0170
       N       E                     dE             d eps       ncg     rms          rms(c)
DAV:   1    -0.685408809648E+03    0.25903E+00   -0.43512E+02 15328   0.271E+01    0.763E+00
RMM:   2    -0.686441271790E+03   -0.10325E+01   -0.91764E+00 14848   0.496E+00    0.948E+00
RMM:   3    -0.689673154864E+03   -0.32319E+01   -0.25579E+00 15383   0.234E+00    0.240E+01
RMM:   4    -0.686742439323E+03    0.29307E+01   -0.65257E-01 15174   0.134E+00    0.866E+00
RMM:   5    -0.686278552081E+03    0.46389E+00   -0.19446E-01 15086   0.793E-01    0.382E+00
RMM:   6    -0.686261307776E+03    0.17244E-01   -0.99499E-02 15292   0.492E-01    0.248E+00
RMM:   7    -0.686311473415E+03   -0.50166E-01   -0.78532E-02 15196   0.423E-01    0.246E+00
RMM:   8    -0.686322498198E+03   -0.11025E-01   -0.52190E-02 15368   0.340E-01    0.114E+00
RMM:   9    -0.686340646092E+03   -0.18148E-01   -0.24824E-02 15173   0.252E-01    0.871E-01
RMM:  10    -0.686344860219E+03   -0.42141E-02   -0.79036E-03 15020   0.160E-01    0.860E-01
RMM:  11    -0.686346636038E+03   -0.17758E-02   -0.27466E-03 15215   0.803E-02    0.423E-01
RMM:  12    -0.686349271831E+03   -0.26358E-02   -0.10083E-03 13504   0.488E-02    0.484E-01
RMM:  13    -0.686349663346E+03   -0.39151E-03   -0.69524E-04 12929   0.432E-02    0.188E-01
RMM:  14    -0.686350981489E+03   -0.13181E-02   -0.43365E-04 11604   0.300E-02    0.113E-01
RMM:  15    -0.686351897925E+03   -0.91644E-03   -0.11662E-04  8991   0.209E-02    0.719E-02
RMM:  16    -0.686353121772E+03   -0.12238E-02   -0.50534E-05  8723   0.131E-02    0.642E-02
RMM:  17    -0.686354298094E+03   -0.11763E-02   -0.27507E-05  8212   0.881E-03    0.535E-02
RMM:  18    -0.686355342057E+03   -0.10440E-02   -0.18188E-05  7919   0.719E-03    0.432E-02
RMM:  19    -0.686357446020E+03   -0.21040E-02   -0.28462E-05  8233   0.709E-03    0.348E-02
RMM:  20    -0.686358814716E+03   -0.13687E-02   -0.15985E-05  7088   0.579E-03    0.309E-02
RMM:  21    -0.686361912244E+03   -0.30975E-02   -0.50303E-05  8048   0.684E-03    0.276E-02
RMM:  22    -0.686364594134E+03   -0.26819E-02   -0.47772E-05  7916   0.642E-03    0.286E-02
RMM:  23    -0.686366361327E+03   -0.17672E-02   -0.28459E-05  7017   0.595E-03    0.262E-02
RMM:  24    -0.686367742190E+03   -0.13809E-02   -0.20584E-05  6404   0.536E-03    0.186E-02
RMM:  25    -0.686368479281E+03   -0.73709E-03   -0.83101E-06  5127   0.428E-03    0.166E-02
RMM:  26    -0.686369486096E+03   -0.10068E-02   -0.59347E-06  4751   0.381E-03    0.134E-02
RMM:  27    -0.686370817539E+03   -0.13314E-02   -0.62491E-06  5531   0.396E-03    0.147E-02
RMM:  28    -0.686371680620E+03   -0.86308E-03   -0.28274E-06  4267   0.349E-03    0.122E-02
RMM:  29    -0.686372291319E+03   -0.61070E-03   -0.15611E-06  3603   0.312E-03    0.983E-03
RMM:  30    -0.686373190942E+03   -0.89962E-03   -0.33796E-06  4765   0.341E-03    0.109E-02
RMM:  31    -0.686373955741E+03   -0.76480E-03   -0.31677E-06  4435   0.327E-03    0.881E-03
RMM:  32    -0.686374577313E+03   -0.62157E-03   -0.37137E-06  4120   0.320E-03    0.848E-03
RMM:  33    -0.686375049815E+03   -0.47250E-03   -0.35579E-06  3983   0.318E-03    0.769E-03
RMM:  34    -0.686375494317E+03   -0.44450E-03   -0.49592E-06  4241   0.330E-03    0.497E-03
RMM:  35    -0.686375909567E+03   -0.41525E-03   -0.53194E-06  4202   0.333E-03    0.503E-03
RMM:  36    -0.686376051507E+03   -0.14194E-03   -0.21364E-06  3488   0.316E-03    0.399E-03
RMM:  37    -0.686376184711E+03   -0.13320E-03   -0.15152E-06  2950   0.291E-03    0.288E-03
RMM:  38    -0.686376348564E+03   -0.16385E-03   -0.17314E-06  3043   0.295E-03    0.227E-03
RMM:  39    -0.686376452662E+03   -0.10410E-03   -0.14490E-06  2975   0.293E-03    0.202E-03
RMM:  40    -0.686376493925E+03   -0.41263E-04   -0.83543E-07  2610   0.286E-03
   3 F= -.68637649E+03 E0= -.68581881E+03  d E =-.774046E+00  mag=     4.7230
       N       E                     dE             d eps       ncg     rms          rms(c)
DAV:   1    -0.686562127192E+03   -0.18567E+00   -0.27090E+01 15408   0.683E+00    0.181E+00
RMM:   2    -0.686653926850E+03   -0.91800E-01   -0.57019E-01 14849   0.123E+00    0.298E+00
RMM:   3    -0.686834124496E+03   -0.18020E+00   -0.13623E-01 15487   0.531E-01    0.646E+00
RMM:   4    -0.686617233583E+03    0.21689E+00   -0.34749E-02 14989   0.345E-01    0.170E+00
RMM:   5    -0.686616342839E+03    0.89074E-03   -0.10236E-02 15109   0.185E-01    0.148E+00
RMM:   6    -0.686610542016E+03    0.58008E-02   -0.45479E-03 14754   0.116E-01    0.919E-01
RMM:   7    -0.686610280135E+03    0.26188E-03   -0.11339E-02 16763   0.149E-01    0.722E-01
RMM:   8    -0.686611173506E+03   -0.89337E-03   -0.30957E-03 14730   0.933E-02    0.493E-01
RMM:   9    -0.686610587791E+03    0.58571E-03   -0.90753E-04 13497   0.606E-02    0.250E-01
RMM:  10    -0.686610595967E+03   -0.81763E-05   -0.25345E-04 10290   0.280E-02
   4 F= -.68661060E+03 E0= -.68605184E+03  d E =-.100815E+01  mag=     4.7067
       N       E                     dE             d eps       ncg     rms          rms(c)
DAV:   1    -0.686609713960E+03    0.87383E-03   -0.35910E+00 15232   0.248E+00    0.609E-01
RMM:   2    -0.686619215293E+03   -0.95013E-02   -0.79171E-02 14815   0.471E-01    0.743E-01
RMM:   3    -0.686627299324E+03   -0.80840E-02   -0.17087E-02 15433   0.187E-01    0.127E+00
RMM:   4    -0.686622044514E+03    0.52548E-02   -0.42474E-03 15187   0.103E-01    0.796E-01
RMM:   5    -0.686619430607E+03    0.26139E-02   -0.11445E-03 13874   0.613E-02    0.428E-01
RMM:   6    -0.686618831344E+03    0.59926E-03   -0.53015E-04 12636   0.415E-02    0.242E-01
RMM:   7    -0.686618818970E+03    0.12374E-04   -0.10012E-03 13289   0.451E-02    0.243E-01
RMM:   8    -0.686619079387E+03   -0.26042E-03   -0.49600E-04 12555   0.352E-02    0.267E-01
RMM:   9    -0.686618729275E+03    0.35011E-03   -0.16052E-04  8845   0.245E-02    0.767E-02
RMM:  10    -0.686618811796E+03   -0.82522E-04   -0.48268E-05  8403   0.147E-02
   5 F= -.68661881E+03 E0= -.68606036E+03  d E =-.101636E+01  mag=     4.7092
       N       E                     dE             d eps       ncg     rms          rms(c)
DAV:   1    -0.686633314338E+03   -0.14585E-01   -0.75482E-01 15328   0.114E+00    0.286E-01
RMM:   2    -0.686636868692E+03   -0.35544E-02   -0.16377E-02 14611   0.214E-01    0.568E-01
RMM:   3    -0.686640415923E+03   -0.35472E-02   -0.41039E-03 15056   0.914E-02    0.958E-01
RMM:   4    -0.686635416167E+03    0.49998E-02   -0.10367E-03 13189   0.593E-02    0.264E-01
RMM:   5    -0.686635442726E+03   -0.26559E-04   -0.29014E-04 10493   0.314E-02    0.189E-01
RMM:   6    -0.686635419422E+03    0.23304E-04   -0.12810E-04  8718   0.213E-02    0.136E-01
RMM:   7    -0.686635453861E+03   -0.34439E-04   -0.26835E-04  9840   0.248E-02    0.129E-01
RMM:   8    -0.686635491251E+03   -0.37390E-04   -0.11258E-04  8486   0.197E-02
   6 F= -.68663549E+03 E0= -.68607690E+03  d E =-.103304E+01  mag=     4.7081
       N       E                     dE             d eps       ncg     rms          rms(c)
DAV:   1    -0.680088890892E+03    0.65466E+01   -0.11060E+03 14848   0.486E+01    0.137E+01
RMM:   2    -0.699094939205E+03   -0.19006E+02   -0.40338E+01 14853   0.115E+01    0.743E+01
RMM:   3    -0.690096941603E+03    0.89980E+01   -0.10314E+01 16601   0.474E+00    0.557E+01
RMM:   4    -0.696263256336E+03   -0.61663E+01   -0.20762E+00 15489   0.223E+00    0.614E+01
RMM:   5    -0.682348414802E+03    0.13915E+02   -0.19914E+00 15353   0.204E+00    0.226E+01
RMM:   6    -0.682748327670E+03   -0.39991E+00   -0.87358E-01 15138   0.155E+00    0.183E+01
RMM:   7    -0.682525386270E+03    0.22294E+00   -0.41723E-01 14970   0.118E+00    0.200E+01
RMM:   8    -0.682421496439E+03    0.10389E+00   -0.94451E-01 16298   0.123E+00    0.144E+01
RMM:   9    -0.682064017596E+03    0.35748E+00   -0.27388E-01 15259   0.827E-01    0.116E+01
RMM:  10    -0.682108956712E+03   -0.44939E-01   -0.20725E-01 15588   0.679E-01    0.957E+00
RMM:  11    -0.682391163832E+03   -0.28221E+00   -0.15463E-01 15631   0.560E-01    0.113E+01
RMM:  12    -0.682418246649E+03   -0.27083E-01   -0.52096E-02 15533   0.351E-01    0.109E+01
RMM:  13    -0.682181188924E+03    0.23706E+00   -0.76349E-02 16069   0.338E-01    0.842E+00
RMM:  14    -0.681723572240E+03    0.45762E+00   -0.18227E-01 17865   0.455E-01    0.688E+00
RMM:  15    -0.681678103269E+03    0.45469E-01   -0.19690E-02 15213   0.223E-01    0.690E+00
RMM:  16    -0.681813306826E+03   -0.13520E+00   -0.47744E-02 17078   0.299E-01    0.605E+00
RMM:  17    -0.681801412626E+03    0.11894E-01   -0.15664E-02 15347   0.181E-01    0.498E+00
RMM:  18    -0.681819237154E+03   -0.17825E-01   -0.69611E-03 15075   0.119E-01    0.446E+00
RMM:  19    -0.681852306930E+03   -0.33070E-01   -0.56215E-03 15356   0.937E-02    0.418E+00
RMM:  20    -0.681905198756E+03   -0.52892E-01   -0.70184E-03 16077   0.959E-02    0.390E+00
RMM:  21    -0.681939903081E+03   -0.34704E-01   -0.46375E-03 15918   0.817E-02    0.353E+00
RMM:  22    -0.681968589431E+03   -0.28686E-01   -0.46326E-03 16412   0.808E-02    0.305E+00
RMM:  23    -0.682002386165E+03   -0.33797E-01   -0.31576E-03 15792   0.686E-02    0.275E+00
RMM:  24    -0.682021616245E+03   -0.19230E-01   -0.14629E-03 14628   0.518E-02    0.257E+00
RMM:  25    -0.682039630097E+03   -0.18014E-01   -0.27699E-03 15855   0.638E-02    0.222E+00
RMM:  26    -0.682048419496E+03   -0.87894E-02   -0.12007E-03 14171   0.442E-02    0.197E+00
RMM:  27    -0.682055546978E+03   -0.71275E-02   -0.71718E-04 12629   0.353E-02    0.179E+00
RMM:  28    -0.682073422185E+03   -0.17875E-01   -0.15900E-03 14625   0.513E-02    0.148E+00
RMM:  29    -0.682082106215E+03   -0.86840E-02   -0.67386E-04 12668   0.391E-02    0.129E+00
RMM:  30    -0.682085374361E+03   -0.32681E-02   -0.85687E-04 12973   0.391E-02    0.108E+00
RMM:  31    -0.682085674254E+03   -0.29989E-03   -0.36104E-04 10791   0.281E-02    0.946E-01
RMM:  32    -0.682086215857E+03   -0.54160E-03   -0.98188E-05  8941   0.167E-02    0.898E-01
RMM:  33    -0.682087614336E+03   -0.13985E-02   -0.16099E-04  9329   0.177E-02    0.813E-01
RMM:  34    -0.682087764871E+03   -0.15053E-03   -0.36066E-04 10755   0.244E-02    0.661E-01
RMM:  35    -0.682088935668E+03   -0.11708E-02   -0.11943E-04  9046   0.171E-02    0.589E-01
RMM:  36    -0.682093293604E+03   -0.43579E-02   -0.57964E-04 11545   0.287E-02    0.505E-01
RMM:  37    -0.682091935164E+03    0.13584E-02   -0.18286E-04  9530   0.190E-02    0.444E-01
RMM:  38    -0.682092518095E+03   -0.58293E-03   -0.77425E-05  8730   0.138E-02    0.409E-01
RMM:  39    -0.682094960369E+03   -0.24423E-02   -0.89287E-05  8768   0.127E-02    0.365E-01
RMM:  40    -0.682095529978E+03   -0.56961E-03   -0.14683E-04  9202   0.143E-02    0.279E-01
RMM:  41    -0.682095209034E+03    0.32094E-03   -0.78279E-05  8464   0.124E-02    0.219E-01
RMM:  42    -0.682095656007E+03   -0.44697E-03   -0.32234E-05  7596   0.924E-03    0.198E-01
RMM:  43    -0.682097869991E+03   -0.22140E-02   -0.14352E-05  6919   0.644E-03    0.187E-01
RMM:  44    -0.682100129459E+03   -0.22595E-02   -0.36508E-05  7882   0.821E-03    0.134E-01
RMM:  45    -0.682102346100E+03   -0.22166E-02   -0.22837E-05  7115   0.651E-03    0.115E-01
RMM:  46    -0.682102774791E+03   -0.42869E-03   -0.16268E-05  6994   0.628E-03    0.862E-02
RMM:  47    -0.682102974371E+03   -0.19958E-03   -0.99057E-05  8406   0.124E-02    0.171E-02
RMM:  48    -0.682104625047E+03   -0.16507E-02   -0.14324E-05  6921   0.691E-03    0.307E-02
RMM:  49    -0.682105847245E+03   -0.12222E-02   -0.60691E-06  5054   0.416E-03    0.309E-02
RMM:  50    -0.682106321011E+03   -0.47377E-03   -0.19741E-06  3839   0.341E-03    0.215E-02
RMM:  51    -0.682107059780E+03   -0.73877E-03   -0.28781E-06  4040   0.325E-03    0.962E-03
RMM:  52    -0.682107742646E+03   -0.68287E-03   -0.37621E-06  4257   0.330E-03    0.851E-03
RMM:  53    -0.682108237799E+03   -0.49515E-03   -0.26362E-06  3776   0.313E-03    0.103E-02
RMM:  54    -0.682108893841E+03   -0.65604E-03   -0.36691E-06  3702   0.314E-03    0.800E-03
RMM:  55    -0.682109483065E+03   -0.58922E-03   -0.53309E-06  3997   0.329E-03    0.650E-03
RMM:  56    -0.682109876897E+03   -0.39383E-03   -0.45097E-06  3851   0.327E-03    0.447E-03
RMM:  57    -0.682109966118E+03   -0.89221E-04   -0.17468E-06  3017   0.305E-03
   7 F= -.68210997E+03 E0= -.68151310E+03  d E =0.452553E+01  mag=     4.7451
       N       E                     dE             d eps       ncg     rms          rms(c)
DAV:   1    -0.685790401854E+03   -0.36805E+01   -0.69486E+02 15008   0.378E+01    0.131E+01
RMM:   2    -0.688628051034E+03   -0.28376E+01   -0.16947E+01 14912   0.772E+00    0.235E+01
RMM:   3    -0.687348220688E+03    0.12798E+01   -0.35791E+00 16253   0.317E+00    0.113E+01
RMM:   4    -0.698871622296E+03   -0.11523E+02   -0.15614E+00 15130   0.192E+00    0.406E+01
RMM:   5    -0.691442544779E+03    0.74291E+01   -0.13020E+00 15302   0.194E+00    0.320E+01
RMM:   6    -0.688339869475E+03    0.31027E+01   -0.52957E-01 14890   0.127E+00    0.189E+01
RMM:   7    -0.688011679277E+03    0.32819E+00   -0.16838E-01 14956   0.778E-01    0.164E+01
RMM:   8    -0.687598038986E+03    0.41364E+00   -0.41161E-01 16367   0.835E-01    0.896E+00
RMM:   9    -0.687186550045E+03    0.41149E+00   -0.19011E-01 15710   0.627E-01    0.453E+00
RMM:  10    -0.687111686593E+03    0.74863E-01   -0.44608E-02 15133   0.361E-01    0.376E+00
RMM:  11    -0.687103865418E+03    0.78212E-02   -0.14463E-02 16343   0.182E-01    0.346E+00
RMM:  12    -0.687092069891E+03    0.11796E-01   -0.47241E-03 14890   0.113E-01    0.329E+00
RMM:  13    -0.687065091565E+03    0.26978E-01   -0.22116E-02 18001   0.208E-01    0.262E+00
RMM:  14    -0.687031074815E+03    0.34017E-01   -0.19885E-02 18518   0.201E-01    0.200E+00
RMM:  15    -0.687012275205E+03    0.18800E-01   -0.36103E-03 15195   0.100E-01    0.158E+00
RMM:  16    -0.686994923645E+03    0.17352E-01   -0.29272E-03 15196   0.835E-02    0.112E+00
RMM:  17    -0.686991896947E+03    0.30267E-02   -0.16053E-03 14929   0.618E-02    0.930E-01
RMM:  18    -0.686993228964E+03   -0.13320E-02   -0.16054E-03 15143   0.584E-02    0.672E-01
RMM:  19    -0.687002795437E+03   -0.95665E-02   -0.17062E-03 15437   0.557E-02    0.405E-01
RMM:  20    -0.687013540668E+03   -0.10745E-01   -0.87064E-04 13482   0.416E-02    0.211E-01
RMM:  21    -0.687022013409E+03   -0.84727E-02   -0.39610E-04 11234   0.281E-02    0.156E-01
RMM:  22    -0.687027505507E+03   -0.54921E-02   -0.16893E-04  9679   0.191E-02    0.118E-01
RMM:  23    -0.687036395161E+03   -0.88897E-02   -0.17823E-04  9598   0.162E-02    0.819E-02
RMM:  24    -0.687043939918E+03   -0.75448E-02   -0.13239E-04  9063   0.130E-02    0.567E-02
RMM:  25    -0.687049847129E+03   -0.59072E-02   -0.10044E-04  8535   0.112E-02    0.350E-02
RMM:  26    -0.687053763009E+03   -0.39159E-02   -0.53857E-05  7733   0.856E-03    0.362E-02
RMM:  27    -0.687056640512E+03   -0.28775E-02   -0.85403E-05  8019   0.840E-03    0.299E-02
RMM:  28    -0.687057852230E+03   -0.12117E-02   -0.24939E-05  7011   0.689E-03    0.208E-02
RMM:  29    -0.687057900345E+03   -0.48115E-04   -0.15196E-05  6529   0.524E-03
   8 F= -.68705790E+03 E0= -.68649748E+03  d E =-.422409E+00  mag=     4.7053
       N       E                     dE             d eps       ncg     rms          rms(c)
DAV:   1    -0.686101137467E+03    0.95671E+00   -0.14945E+02 15152   0.177E+01    0.501E+00
RMM:   2    -0.686673295181E+03   -0.57216E+00   -0.35752E+00 14849   0.339E+00    0.156E+01
RMM:   3    -0.686729195979E+03   -0.55901E-01   -0.75937E-01 16145   0.134E+00    0.143E+01
RMM:   4    -0.686382510576E+03    0.34669E+00   -0.24721E-01 14940   0.742E-01    0.940E+00
RMM:   5    -0.688282200395E+03   -0.18997E+01   -0.21999E-01 15483   0.650E-01    0.212E+01
RMM:   6    -0.686903344788E+03    0.13789E+01   -0.72337E-02 14880   0.555E-01    0.146E+01
RMM:   7    -0.686854112529E+03    0.49232E-01   -0.59531E-02 15192   0.390E-01    0.143E+01
RMM:   8    -0.686400302207E+03    0.45381E+00   -0.19913E-01 18041   0.560E-01    0.995E+00
RMM:   9    -0.686421336235E+03   -0.21034E-01   -0.81796E-02 16400   0.407E-01    0.854E+00
RMM:  10    -0.686439779414E+03   -0.18443E-01   -0.23385E-02 15162   0.259E-01    0.790E+00
RMM:  11    -0.686432630057E+03    0.71494E-02   -0.11171E-02 15213   0.164E-01    0.768E+00
RMM:  12    -0.686412396801E+03    0.20233E-01   -0.11216E-02 15426   0.145E-01    0.759E+00
RMM:  13    -0.686396272297E+03    0.16125E-01   -0.32585E-03 14713   0.930E-02    0.752E+00
RMM:  14    -0.686384581072E+03    0.11691E-01   -0.18603E-03 14328   0.635E-02    0.747E+00
RMM:  15    -0.686378016299E+03    0.65648E-02   -0.82992E-04 13556   0.461E-02    0.740E+00
RMM:  16    -0.686369685981E+03    0.83303E-02   -0.59263E-04 12669   0.361E-02    0.728E+00
RMM:  17    -0.686367310016E+03    0.23760E-02   -0.18338E-04  9490   0.230E-02    0.722E+00
RMM:  18    -0.686366942196E+03    0.36782E-03   -0.67257E-05  8805   0.158E-02    0.719E+00
RMM:  19    -0.686366788848E+03    0.15335E-03   -0.60914E-05  8748   0.127E-02    0.712E+00
RMM:  20    -0.686362901178E+03    0.38877E-02   -0.52090E-04 11366   0.309E-02    0.677E+00
RMM:  21    -0.686361160160E+03    0.17410E-02   -0.14392E-04  9015   0.200E-02    0.665E+00
RMM:  22    -0.686360786154E+03    0.37401E-03   -0.10534E-04  8629   0.165E-02    0.656E+00
RMM:  23    -0.686360651231E+03    0.13492E-03   -0.20879E-04  9456   0.211E-02    0.639E+00
RMM:  24    -0.686360330868E+03    0.32036E-03   -0.61778E-04 11818   0.327E-02    0.606E+00
RMM:  25    -0.686356686275E+03    0.36446E-02   -0.17952E-03 15224   0.557E-02    0.545E+00
RMM:  26    -0.686353066634E+03    0.36196E-02   -0.83965E-04 12831   0.411E-02    0.507E+00
RMM:  27    -0.686351014849E+03    0.20518E-02   -0.65458E-04 12442   0.363E-02    0.476E+00
RMM:  28    -0.686350045724E+03    0.96913E-03   -0.61451E-04 12100   0.357E-02    0.443E+00
RMM:  29    -0.686349848539E+03    0.19718E-03   -0.76307E-04 12748   0.384E-02    0.404E+00
RMM:  30    -0.686350755759E+03   -0.90722E-03   -0.97569E-04 13326   0.434E-02    0.360E+00
RMM:  31    -0.686352666151E+03   -0.19104E-02   -0.84826E-04 12836   0.411E-02    0.322E+00
RMM:  32    -0.686354096231E+03   -0.14301E-02   -0.72731E-04 12543   0.388E-02    0.286E+00
RMM:  33    -0.686354224108E+03   -0.12788E-03   -0.59182E-04 11896   0.354E-02    0.253E+00
RMM:  34    -0.686354157567E+03    0.66542E-04   -0.53918E-04 11848   0.337E-02
   9 F= -.68635416E+03 E0= -.68578039E+03  d E =0.703743E+00  mag=     4.2430
       N       E                     dE             d eps       ncg     rms          rms(c)
DAV:   1    -0.686760508936E+03   -0.40628E+00   -0.19712E+01 15472   0.637E+00    0.200E+00
RMM:   2    -0.686808690757E+03   -0.48182E-01   -0.40893E-01 14848   0.116E+00    0.377E+00
RMM:   3    -0.686795217972E+03    0.13473E-01   -0.76936E-02 16157   0.457E-01    0.214E+00
RMM:   4    -0.687198859944E+03   -0.40364E+00   -0.43185E-02 14981   0.315E-01    0.884E+00
RMM:   5    -0.686802667220E+03    0.39619E+00   -0.25371E-02 14876   0.303E-01    0.245E+00
RMM:   6    -0.686788430817E+03    0.14236E-01   -0.26118E-02 15581   0.251E-01    0.175E+00
RMM:   7    -0.686772106528E+03    0.16324E-01   -0.97736E-03 14895   0.170E-01    0.956E-01
RMM:   8    -0.686770270093E+03    0.18364E-02   -0.28605E-03 14627   0.102E-01    0.691E-01
RMM:   9    -0.686770219963E+03    0.50130E-04   -0.10511E-03 13439   0.599E-02    0.318E-01
RMM:  10    -0.686771093668E+03   -0.87371E-03   -0.33657E-04 11005   0.273E-02    0.238E-01
RMM:  11    -0.686771877719E+03   -0.78405E-03   -0.12425E-04  9127   0.188E-02    0.192E-01
RMM:  12    -0.686773857586E+03   -0.19799E-02   -0.26837E-04 10162   0.231E-02    0.186E-01
RMM:  13    -0.686775439939E+03   -0.15824E-02   -0.12371E-04  8941   0.200E-02    0.138E-01
RMM:  14    -0.686776427305E+03   -0.98737E-03   -0.61596E-05  8738   0.144E-02    0.748E-02
RMM:  15    -0.686777135826E+03   -0.70852E-03   -0.27817E-05  7830   0.878E-03    0.560E-02
RMM:  16    -0.686778069313E+03   -0.93349E-03   -0.17767E-05  7272   0.665E-03    0.356E-02
RMM:  17    -0.686779191456E+03   -0.11221E-02   -0.17971E-05  7180   0.587E-03    0.324E-02
RMM:  18    -0.686780849916E+03   -0.16585E-02   -0.30460E-05  7820   0.661E-03    0.332E-02
RMM:  19    -0.686781963501E+03   -0.11136E-02   -0.20203E-05  6798   0.581E-03    0.430E-02
RMM:  20    -0.686782610672E+03   -0.64717E-03   -0.11727E-05  6077   0.515E-03    0.420E-02
RMM:  21    -0.686783599341E+03   -0.98867E-03   -0.16884E-05  6224   0.500E-03    0.330E-02
RMM:  22    -0.686784405559E+03   -0.80622E-03   -0.15017E-05  6190   0.499E-03    0.257E-02
RMM:  23    -0.686785122740E+03   -0.71718E-03   -0.13345E-05  5977   0.485E-03    0.223E-02
RMM:  24    -0.686785596178E+03   -0.47344E-03   -0.10317E-05  5508   0.443E-03    0.204E-02
RMM:  25    -0.686786216192E+03   -0.62001E-03   -0.15761E-05  6078   0.482E-03    0.160E-02
RMM:  26    -0.686786669972E+03   -0.45378E-03   -0.10068E-05  5448   0.434E-03    0.139E-02
RMM:  27    -0.686787030173E+03   -0.36020E-03   -0.67007E-06  4683   0.394E-03    0.106E-02
RMM:  28    -0.686787290379E+03   -0.26021E-03   -0.33248E-06  4039   0.346E-03    0.962E-03
RMM:  29    -0.686787629391E+03   -0.33901E-03   -0.18096E-06  3422   0.310E-03    0.876E-03
RMM:  30    -0.686788094394E+03   -0.46500E-03   -0.14360E-06  3354   0.305E-03    0.815E-03
RMM:  31    -0.686788720975E+03   -0.62658E-03   -0.16633E-06  3581   0.311E-03    0.974E-03
RMM:  32    -0.686789121898E+03   -0.40092E-03   -0.62120E-07  2716   0.291E-03    0.100E-02
RMM:  33    -0.686789512098E+03   -0.39020E-03   -0.40826E-07  2397   0.284E-03    0.887E-03
RMM:  34    -0.686789834898E+03   -0.32280E-03   -0.58215E-07  2450   0.284E-03    0.761E-03
RMM:  35    -0.686790049485E+03   -0.21459E-03   -0.92054E-07  2620   0.286E-03    0.542E-03
RMM:  36    -0.686790130025E+03   -0.80541E-04   -0.82734E-07  2533   0.281E-03
  10 F= -.68679013E+03 E0= -.68622173E+03  d E =0.267770E+00  mag=     4.3956
       N       E                     dE             d eps       ncg     rms          rms(c)
DAV:   1    -0.687022935722E+03   -0.23289E+00   -0.12899E+01 15280   0.518E+00    0.185E+00
RMM:   2    -0.687061631062E+03   -0.38695E-01   -0.29383E-01 14854   0.967E-01    0.353E+00
RMM:   3    -0.687083692649E+03   -0.22062E-01   -0.68005E-02 16010   0.395E-01    0.410E+00
RMM:   4    -0.687105774330E+03   -0.22082E-01   -0.16200E-02 17793   0.177E-01    0.478E+00
RMM:   5    -0.687211172318E+03   -0.10540E+00   -0.54551E-03 15116   0.102E-01    0.663E+00
RMM:   6    -0.687207249373E+03    0.39229E-02   -0.15456E-03 14864   0.787E-02    0.661E+00
RMM:   7    -0.687246705676E+03   -0.39456E-01   -0.17996E-03 14776   0.554E-02    0.709E+00
RMM:   8    -0.687241113407E+03    0.55923E-02   -0.31288E-04 10725   0.317E-02    0.703E+00
RMM:   9    -0.687259076823E+03   -0.17963E-01   -0.16771E-03 15648   0.616E-02    0.723E+00
RMM:  10    -0.687333901647E+03   -0.74825E-01   -0.21973E-02 24733   0.213E-01    0.789E+00
RMM:  11    -0.687134896883E+03    0.19900E+00   -0.60952E-02 25839   0.323E-01    0.783E+00
RMM:  12    -0.687063233600E+03    0.71663E-01   -0.13022E-02 22897   0.168E-01    0.566E+00
RMM:  13    -0.687049543374E+03    0.13690E-01   -0.51427E-03 20634   0.122E-01    0.410E+00
RMM:  14    -0.687043567633E+03    0.59757E-02   -0.60814E-03 21929   0.122E-01    0.244E+00
RMM:  15    -0.687041150107E+03    0.24175E-02   -0.42851E-03 20369   0.101E-01    0.115E+00
RMM:  16    -0.687040440620E+03    0.70949E-03   -0.10784E-03 14671   0.526E-02    0.910E-01
RMM:  17    -0.687038623574E+03    0.18170E-02   -0.41280E-04 11501   0.339E-02    0.888E-01
RMM:  18    -0.687035255816E+03    0.33678E-02   -0.11536E-03 14651   0.516E-02    0.741E-01
RMM:  19    -0.687034413716E+03    0.84210E-03   -0.40193E-04 11609   0.332E-02    0.727E-01
RMM:  20    -0.687034703369E+03   -0.28965E-03   -0.21492E-04  9509   0.239E-02    0.645E-01
RMM:  21    -0.687036363448E+03   -0.16601E-02   -0.24638E-04  9857   0.263E-02    0.363E-01
RMM:  22    -0.687037585556E+03   -0.12221E-02   -0.13103E-04  8948   0.191E-02    0.207E-01
RMM:  23    -0.687038352385E+03   -0.76683E-03   -0.55530E-05  8526   0.143E-02    0.115E-01
RMM:  24    -0.687038732622E+03   -0.38024E-03   -0.21442E-05  8023   0.839E-03    0.786E-02
RMM:  25    -0.687039135604E+03   -0.40298E-03   -0.20237E-05  7942   0.753E-03    0.149E-01
RMM:  26    -0.687039241130E+03   -0.10553E-03   -0.91413E-06  7092   0.583E-03    0.118E-01
RMM:  27    -0.687039371942E+03   -0.13081E-03   -0.97267E-06  7546   0.500E-03    0.731E-02
RMM:  28    -0.687039571437E+03   -0.19949E-03   -0.29620E-06  4501   0.347E-03    0.709E-02
RMM:  29    -0.687039959909E+03   -0.38847E-03   -0.61518E-06  4963   0.377E-03    0.688E-02
RMM:  30    -0.687040556766E+03   -0.59686E-03   -0.16198E-05  6878   0.523E-03    0.304E-02
RMM:  31    -0.687041146668E+03   -0.58990E-03   -0.18188E-05  6404   0.496E-03    0.355E-02
RMM:  32    -0.687041400900E+03   -0.25423E-03   -0.61262E-06  4560   0.387E-03    0.257E-02
RMM:  33    -0.687041795485E+03   -0.39459E-03   -0.94688E-06  5607   0.422E-03    0.137E-02
RMM:  34    -0.687042073877E+03   -0.27839E-03   -0.53610E-06  4609   0.369E-03    0.124E-02
RMM:  35    -0.687042420072E+03   -0.34619E-03   -0.47565E-06  4252   0.349E-03    0.105E-02
RMM:  36    -0.687042807774E+03   -0.38770E-03   -0.33119E-06  3960   0.329E-03    0.199E-02
RMM:  37    -0.687043136173E+03   -0.32840E-03   -0.22867E-06  3312   0.304E-03    0.195E-02
RMM:  38    -0.687043379797E+03   -0.24362E-03   -0.12387E-06  2871   0.290E-03    0.184E-02
RMM:  39    -0.687043803222E+03   -0.42342E-03   -0.92476E-07  2794   0.288E-03    0.125E-02
RMM:  40    -0.687044364644E+03   -0.56142E-03   -0.14404E-06  3170   0.298E-03    0.725E-03
RMM:  41    -0.687044657072E+03   -0.29243E-03   -0.66353E-07  2446   0.285E-03    0.408E-03
RMM:  42    -0.687044806071E+03   -0.14900E-03   -0.31522E-07  2097   0.279E-03    0.456E-03
RMM:  43    -0.687044930625E+03   -0.12455E-03   -0.15132E-07  1989   0.273E-03    0.372E-03
RMM:  44    -0.687045019135E+03   -0.88510E-04   -0.43496E-07  2185   0.276E-03
  11 F= -.68704502E+03 E0= -.68648049E+03  d E =0.128812E-01  mag=     4.5087
       N       E                     dE             d eps       ncg     rms          rms(c)
DAV:   1    -0.687158570350E+03   -0.11364E+00   -0.43759E+00 15536   0.301E+00    0.820E-01
RMM:   2    -0.687170633005E+03   -0.12063E-01   -0.98063E-02 14854   0.570E-01    0.197E+00
RMM:   3    -0.687173392318E+03   -0.27593E-02   -0.21612E-02 16194   0.227E-01    0.189E+00
RMM:   4    -0.687167008785E+03    0.63835E-02   -0.52316E-03 15133   0.110E-01    0.146E+00
RMM:   5    -0.687192759481E+03   -0.25751E-01   -0.50244E-03 15100   0.100E-01    0.259E+00
RMM:   6    -0.687169812389E+03    0.22947E-01   -0.19991E-03 14339   0.819E-02    0.167E+00
RMM:   7    -0.687168995773E+03    0.81662E-03   -0.34577E-03 16501   0.883E-02    0.182E+00
RMM:   8    -0.687166624714E+03    0.23711E-02   -0.10450E-02 19166   0.131E-01    0.188E+00
RMM:   9    -0.687167221665E+03   -0.59695E-03   -0.21097E-03 15752   0.664E-02    0.207E+00
RMM:  10    -0.687168045862E+03   -0.82420E-03   -0.72557E-04 13676   0.458E-02    0.221E+00
RMM:  11    -0.687169969836E+03   -0.19240E-02   -0.81235E-04 13676   0.429E-02    0.250E+00
RMM:  12    -0.687171764381E+03   -0.17945E-02   -0.84609E-04 13428   0.411E-02    0.290E+00
RMM:  13    -0.687171699071E+03    0.65310E-04   -0.86674E-05  8853   0.186E-02
  12 F= -.68717170E+03 E0= -.68661018E+03  d E =-.113799E+00  mag=     4.5228
       N       E                     dE             d eps       ncg     rms          rms(c)
DAV:   1    -0.687133980106E+03    0.37784E-01   -0.22160E+01 15312   0.762E+00    0.286E+00
RMM:   2    -0.687547191942E+03   -0.41321E+00   -0.54068E-01 14859   0.139E+00    0.926E+00
RMM:   3    -0.687184764299E+03    0.36243E+00   -0.95833E-02 15096   0.611E-01    0.178E+00
RMM:   4    -0.687541517788E+03   -0.35675E+00   -0.55747E-02 14928   0.412E-01    0.805E+00
RMM:   5    -0.687229629294E+03    0.31189E+00   -0.21949E-02 14852   0.314E-01    0.344E+00
RMM:   6    -0.687174617157E+03    0.55012E-01   -0.15387E-02 15124   0.201E-01    0.167E+00
RMM:   7    -0.687169443841E+03    0.51733E-02   -0.70637E-03 15099   0.144E-01    0.127E+00
RMM:   8    -0.687167516526E+03    0.19273E-02   -0.36002E-03 15092   0.106E-01    0.103E+00
RMM:   9    -0.687166731322E+03    0.78520E-03   -0.11933E-03 13837   0.628E-02    0.860E-01
RMM:  10    -0.687165711641E+03    0.10197E-02   -0.51760E-04 12257   0.362E-02    0.615E-01
RMM:  11    -0.687164954349E+03    0.75729E-03   -0.24368E-04 10363   0.264E-02    0.437E-01
RMM:  12    -0.687164468257E+03    0.48609E-03   -0.12802E-04  9027   0.204E-02    0.377E-01
RMM:  13    -0.687163994730E+03    0.47353E-03   -0.67296E-05  8872   0.158E-02    0.300E-01
RMM:  14    -0.687163034465E+03    0.96027E-03   -0.52627E-05  8775   0.128E-02    0.135E-01
RMM:  15    -0.687162616460E+03    0.41801E-03   -0.30387E-05  8345   0.103E-02    0.889E-02
RMM:  16    -0.687162124785E+03    0.49167E-03   -0.21811E-05  8161   0.816E-03    0.442E-02
RMM:  17    -0.687162202252E+03   -0.77467E-04   -0.14757E-05  7234   0.604E-03
  13 F= -.68716220E+03 E0= -.68659533E+03  d E =0.949682E-02  mag=     4.4639
       N       E                     dE             d eps       ncg     rms          rms(c)
DAV:   1    -0.687371931407E+03   -0.20981E+00   -0.55995E+00 15552   0.383E+00    0.839E-01
RMM:   2    -0.687400102224E+03   -0.28171E-01   -0.12749E-01 14854   0.682E-01    0.245E+00
RMM:   3    -0.687399700229E+03    0.40199E-03   -0.20655E-02 15574   0.263E-01    0.212E+00
RMM:   4    -0.687390121930E+03    0.95783E-02   -0.60486E-03 14885   0.143E-01    0.851E-01
RMM:   5    -0.687399522592E+03   -0.94007E-02   -0.20120E-03 14760   0.823E-02    0.164E+00
RMM:   6    -0.687390994645E+03    0.85279E-02   -0.11840E-03 13843   0.578E-02    0.111E+00
RMM:   7    -0.687394236520E+03   -0.32419E-02   -0.16204E-03 15297   0.598E-02    0.125E+00
RMM:   8    -0.687391898001E+03    0.23385E-02   -0.10949E-03 14451   0.543E-02    0.934E-01
RMM:   9    -0.687392112757E+03   -0.21476E-03   -0.25176E-04 10303   0.302E-02    0.919E-01
RMM:  10    -0.687392552326E+03   -0.43957E-03   -0.81791E-05  8737   0.192E-02    0.868E-01
RMM:  11    -0.687392963559E+03   -0.41123E-03   -0.36011E-05  8520   0.107E-02    0.810E-01
RMM:  12    -0.687393558303E+03   -0.59474E-03   -0.38673E-05  8503   0.984E-03    0.773E-01
RMM:  13    -0.687393909543E+03   -0.35124E-03   -0.20313E-05  8094   0.765E-03    0.756E-01
RMM:  14    -0.687394093476E+03   -0.18393E-03   -0.82771E-06  7295   0.564E-03    0.741E-01
RMM:  15    -0.687394328022E+03   -0.23455E-03   -0.62364E-06  5902   0.415E-03    0.713E-01
RMM:  16    -0.687394558393E+03   -0.23037E-03   -0.56710E-06  6267   0.424E-03    0.687E-01
RMM:  17    -0.687394909599E+03   -0.35121E-03   -0.10673E-05  7239   0.493E-03    0.645E-01
RMM:  18    -0.687395413335E+03   -0.50374E-03   -0.27970E-05  8015   0.709E-03    0.560E-01
RMM:  19    -0.687395580995E+03   -0.16766E-03   -0.42135E-05  8175   0.836E-03    0.456E-01
RMM:  20    -0.687395443948E+03    0.13705E-03   -0.36402E-05  8067   0.829E-03    0.372E-01
RMM:  21    -0.687395323078E+03    0.12087E-03   -0.18033E-05  7751   0.707E-03    0.324E-01
RMM:  22    -0.687395263068E+03    0.60010E-04   -0.14786E-05  7450   0.628E-03
  14 F= -.68739526E+03 E0= -.68683078E+03  d E =-.223564E+00  mag=     4.4651
       N       E                     dE             d eps       ncg     rms          rms(c)
DAV:   1    -0.687395466137E+03   -0.14306E-03   -0.65555E-03 14896   0.131E-01    0.238E-01
RMM:   2    -0.687395676815E+03   -0.21068E-03   -0.19839E-04  9024   0.259E-02    0.199E-01
RMM:   3    -0.687401580970E+03   -0.59042E-02   -0.56121E-04 12546   0.326E-02    0.100E+00
RMM:   4    -0.687395586981E+03    0.59940E-02   -0.37362E-04 11456   0.388E-02    0.221E-01
RMM:   5    -0.687395608980E+03   -0.21999E-04   -0.19002E-04  9346   0.260E-02    0.170E-01
RMM:   6    -0.687395559785E+03    0.49195E-04   -0.98491E-05  8199   0.196E-02    0.126E-01
RMM:   7    -0.687395516431E+03    0.43354E-04   -0.29088E-05  7965   0.126E-02    0.424E-02
RMM:   8    -0.687395542083E+03   -0.25652E-04   -0.43355E-06  6190   0.463E-03
  15 F= -.68739554E+03 E0= -.68683092E+03  d E =-.223843E+00  mag=     4.4644
       N       E                     dE             d eps       ncg     rms          rms(c)
DAV:   1    -0.687361353643E+03    0.34163E-01   -0.27317E+00 15440   0.261E+00    0.457E-01
RMM:   2    -0.687380969853E+03   -0.19616E-01   -0.63126E-02 14851   0.474E-01    0.189E+00
RMM:   3    -0.687371052000E+03    0.99179E-02   -0.10120E-02 15614   0.183E-01    0.105E+00
RMM:   4    -0.687378879154E+03   -0.78272E-02   -0.27270E-03 14877   0.952E-02    0.154E+00
RMM:   5    -0.687369595095E+03    0.92841E-02   -0.98892E-04 13940   0.629E-02    0.807E-01
RMM:   6    -0.687368923220E+03    0.67187E-03   -0.57449E-04 13038   0.414E-02    0.739E-01
RMM:   7    -0.687369665725E+03   -0.74250E-03   -0.40203E-04 11645   0.327E-02    0.717E-01
RMM:   8    -0.687368533738E+03    0.11320E-02   -0.32959E-04 11089   0.306E-02    0.504E-01
RMM:   9    -0.687368296096E+03    0.23764E-03   -0.11866E-04  8789   0.214E-02    0.395E-01
RMM:  10    -0.687368122515E+03    0.17358E-03   -0.43866E-05  8562   0.133E-02    0.338E-01
RMM:  11    -0.687368010615E+03    0.11190E-03   -0.15761E-05  8033   0.743E-03    0.291E-01
RMM:  12    -0.687367841581E+03    0.16903E-03   -0.19026E-05  8337   0.754E-03    0.225E-01
RMM:  13    -0.687367704268E+03    0.13731E-03   -0.14221E-05  8111   0.700E-03    0.161E-01
RMM:  14    -0.687367668893E+03    0.35375E-04   -0.72826E-06  7304   0.537E-03
  16 F= -.68736767E+03 E0= -.68680507E+03  d E =0.278732E-01  mag=     4.4533
       N       E                     dE             d eps       ncg     rms          rms(c)
DAV:   1    -0.687415652757E+03   -0.47948E-01   -0.99965E-01 15440   0.158E+00    0.256E-01
RMM:   2    -0.687425760578E+03   -0.10108E-01   -0.23303E-02 14848   0.289E-01    0.132E+00
RMM:   3    -0.687418234644E+03    0.75259E-02   -0.36228E-03 14923   0.114E-01    0.386E-01
RMM:   4    -0.687420794052E+03   -0.25594E-02   -0.89667E-04 13987   0.561E-02    0.755E-01
RMM:   5    -0.687419556424E+03    0.12376E-02   -0.31426E-04 10652   0.342E-02    0.576E-01
RMM:   6    -0.687418936078E+03    0.62035E-03   -0.27804E-04 10444   0.288E-02    0.403E-01
RMM:   7    -0.687418441059E+03    0.49502E-03   -0.22498E-04  9653   0.275E-02    0.165E-01
RMM:   8    -0.687418514692E+03   -0.73633E-04   -0.90178E-05  8600   0.203E-02
  17 F= -.68741851E+03 E0= -.68685473E+03  d E =-.229726E-01  mag=     4.4510
       N       E                     dE             d eps       ncg     rms          rms(c)
DAV:   1    -0.687422195996E+03   -0.37549E-02   -0.16930E-01 15760   0.615E-01    0.239E-01
RMM:   2    -0.687440351642E+03   -0.18156E-01   -0.47713E-03 14855   0.129E-01    0.164E+00
RMM:   3    -0.687423987723E+03    0.16364E-01   -0.16598E-03 14531   0.811E-02    0.623E-01
RMM:   4    -0.687423749895E+03    0.23783E-03   -0.44888E-04 12320   0.435E-02    0.459E-01
RMM:   5    -0.687423155382E+03    0.59451E-03   -0.12616E-04  8730   0.230E-02    0.341E-01
RMM:   6    -0.687422689948E+03    0.46543E-03   -0.14315E-04  8681   0.210E-02    0.143E-01
RMM:   7    -0.687422726175E+03   -0.36227E-04   -0.92346E-05  8467   0.197E-02    0.956E-02
RMM:   8    -0.687422722760E+03    0.34143E-05   -0.35643E-05  8294   0.123E-02
  18 F= -.68742272E+03 E0= -.68685955E+03  d E =-.420807E-02  mag=     4.4511
       N       E                     dE             d eps       ncg     rms          rms(c)
DAV:   1    -0.687422776165E+03   -0.49990E-04   -0.18816E-03 14384   0.668E-02    0.664E-02
RMM:   2    -0.687426287463E+03   -0.35113E-02   -0.30812E-04 10740   0.251E-02    0.743E-01
RMM:   3    -0.687422675838E+03    0.36116E-02   -0.18331E-04  8635   0.295E-02    0.636E-02
RMM:   4    -0.687422826514E+03   -0.15068E-03   -0.41348E-05  7993   0.137E-02    0.507E-02
RMM:   5    -0.687422842465E+03   -0.15951E-04   -0.11636E-05  7179   0.751E-03    0.345E-02
RMM:   6    -0.687422855351E+03   -0.12885E-04   -0.28432E-06  5717   0.420E-03    0.104E-02
RMM:   7    -0.687422881290E+03   -0.25939E-04   -0.74274E-07  2984   0.287E-03    0.209E-02
RMM:   8    -0.687422892162E+03   -0.10873E-04   -0.31697E-07  2477   0.263E-03
  19 F= -.68742289E+03 E0= -.68685969E+03  d E =-.437747E-02  mag=     4.4514
       N       E                     dE             d eps       ncg     rms          rms(c)
DAV:   1    -0.687426836797E+03   -0.39555E-02   -0.13279E-01 15616   0.446E-01    0.122E-01
RMM:   2    -0.687427586464E+03   -0.74967E-03   -0.23853E-03 14698   0.100E-01    0.323E-01
RMM:   3    -0.687427133553E+03    0.45291E-03   -0.62359E-04 12920   0.409E-02    0.203E-01
RMM:   4    -0.687427097914E+03    0.35640E-04   -0.12897E-04  8873   0.212E-02    0.140E-01
RMM:   5    -0.687427208588E+03   -0.11067E-03   -0.13126E-04  8612   0.206E-02    0.234E-01
RMM:   6    -0.687426970754E+03    0.23783E-03   -0.93938E-05  8358   0.183E-02    0.108E-01
RMM:   7    -0.687426948005E+03    0.22749E-04   -0.77562E-05  8314   0.149E-02    0.653E-02
RMM:   8    -0.687426957880E+03   -0.98748E-05   -0.31637E-05  7780   0.112E-02
  20 F= -.68742696E+03 E0= -.68686402E+03  d E =-.406572E-02  mag=     4.4520
       N       E                     dE             d eps       ncg     rms          rms(c)
DAV:   1    -0.687427887927E+03   -0.93992E-03   -0.98846E-02 15616   0.385E-01    0.114E-01
RMM:   2    -0.687428978579E+03   -0.10907E-02   -0.18302E-03 14648   0.871E-02    0.376E-01
RMM:   3    -0.687428258594E+03    0.71998E-03   -0.53019E-04 12599   0.376E-02    0.238E-01
RMM:   4    -0.687428050489E+03    0.20810E-03   -0.11301E-04  8714   0.207E-02    0.925E-02
RMM:   5    -0.687428165399E+03   -0.11491E-03   -0.97381E-05  8464   0.180E-02    0.196E-01
RMM:   6    -0.687428000353E+03    0.16505E-03   -0.48848E-05  8167   0.144E-02    0.983E-02
RMM:   7    -0.687427970222E+03    0.30131E-04   -0.59302E-05  8208   0.121E-02    0.771E-02
RMM:   8    -0.687427961499E+03    0.87227E-05   -0.21887E-05  7607   0.989E-03
  21 F= -.68742796E+03 E0= -.68686524E+03  d E =-.506934E-02  mag=     4.4530
       N       E                     dE             d eps       ncg     rms          rms(c)
DAV:   1    -0.687430506673E+03   -0.25365E-02   -0.67397E-02 15616   0.318E-01    0.970E-02
RMM:   2    -0.687431826218E+03   -0.13195E-02   -0.13105E-03 14327   0.715E-02    0.433E-01
RMM:   3    -0.687430738888E+03    0.10873E-02   -0.39064E-04 11498   0.335E-02    0.188E-01
RMM:   4    -0.687430626437E+03    0.11245E-03   -0.96176E-05  8573   0.197E-02    0.748E-02
RMM:   5    -0.687430699569E+03   -0.73133E-04   -0.53876E-05  8168   0.138E-02    0.129E-01
RMM:   6    -0.687430666350E+03    0.33220E-04   -0.40949E-05  7856   0.122E-02    0.111E-01
RMM:   7    -0.687430597900E+03    0.68450E-04   -0.35217E-05  7997   0.109E-02    0.502E-02
RMM:   8    -0.687430605191E+03   -0.72915E-05   -0.17823E-05  7250   0.803E-03
  22 F= -.68743061E+03 E0= -.68686801E+03  d E =-.264369E-02  mag=     4.4540
       N       E                     dE             d eps       ncg     rms          rms(c)
DAV:   1    -0.687431914531E+03   -0.13166E-02   -0.18339E-01 15680   0.524E-01    0.142E-01
RMM:   2    -0.687432922435E+03   -0.10079E-02   -0.33270E-03 14764   0.115E-01    0.366E-01
RMM:   3    -0.687432602745E+03    0.31969E-03   -0.97908E-04 14186   0.494E-02    0.280E-01
RMM:   4    -0.687432297373E+03    0.30537E-03   -0.20819E-04  9492   0.252E-02    0.174E-01
RMM:   5    -0.687432396128E+03   -0.98755E-04   -0.13151E-04  8749   0.216E-02    0.209E-01
RMM:   6    -0.687432232657E+03    0.16347E-03   -0.11480E-04  8515   0.199E-02    0.141E-01
RMM:   7    -0.687432151251E+03    0.81406E-04   -0.10904E-04  8418   0.175E-02    0.714E-02
RMM:   8    -0.687432163816E+03   -0.12565E-04   -0.43784E-05  7976   0.132E-02
  23 F= -.68743216E+03 E0= -.68686978E+03  d E =-.420232E-02  mag=     4.4548
       N       E                     dE             d eps       ncg     rms          rms(c)
DAV:   1    -0.687433116248E+03   -0.96500E-03   -0.19597E-02 15632   0.191E-01    0.598E-02
RMM:   2    -0.687433685747E+03   -0.56950E-03   -0.46529E-04 12383   0.406E-02    0.323E-01
RMM:   3    -0.687433163375E+03    0.52237E-03   -0.10965E-04  8302   0.197E-02    0.120E-01
RMM:   4    -0.687433208267E+03   -0.44893E-04   -0.35176E-05  7998   0.128E-02    0.147E-01
RMM:   5    -0.687433148370E+03    0.59897E-04   -0.19858E-05  7396   0.841E-03    0.990E-02
RMM:   6    -0.687433091216E+03    0.57154E-04   -0.17798E-05  7571   0.791E-03    0.631E-02
RMM:   7    -0.687433095665E+03   -0.44496E-05   -0.77820E-06  7072   0.606E-03    0.613E-02
RMM:   8    -0.687433082912E+03    0.12753E-04   -0.54090E-06  6111   0.439E-03
  24 F= -.68743308E+03 E0= -.68687073E+03  d E =-.919096E-03  mag=     4.4562
       N       E                     dE             d eps       ncg     rms          rms(c)
DAV:   1    -0.687433423772E+03   -0.32811E-03   -0.33002E-02 15536   0.246E-01    0.699E-02
RMM:   2    -0.687433545877E+03   -0.12211E-03   -0.68875E-04 13579   0.515E-02    0.182E-01
RMM:   3    -0.687433486464E+03    0.59414E-04   -0.16246E-04  8801   0.216E-02    0.116E-01
RMM:   4    -0.687433807600E+03   -0.32114E-03   -0.50893E-05  8058   0.141E-02    0.274E-01
RMM:   5    -0.687433452605E+03    0.35499E-03   -0.46474E-05  8038   0.127E-02    0.114E-01
RMM:   6    -0.687433418636E+03    0.33969E-04   -0.28471E-05  7654   0.995E-03    0.723E-02
RMM:   7    -0.687433410304E+03    0.83319E-05   -0.19423E-05  7714   0.840E-03    0.538E-02
RMM:   8    -0.687433410350E+03   -0.46020E-07   -0.11036E-05  6955   0.598E-03
  25 F= -.68743341E+03 E0= -.68687117E+03  d E =-.124653E-02  mag=     4.4579
       N       E                     dE             d eps       ncg     rms          rms(c)
DAV:   1    -0.687433961405E+03   -0.55110E-03   -0.26877E-02 15472   0.213E-01    0.646E-02
RMM:   2    -0.687434050028E+03   -0.88623E-04   -0.55919E-04 12855   0.464E-02    0.125E-01
RMM:   3    -0.687434015909E+03    0.34118E-04   -0.13261E-04  8402   0.197E-02    0.757E-02
RMM:   4    -0.687434278663E+03   -0.26275E-03   -0.46766E-05  7969   0.136E-02    0.231E-01
RMM:   5    -0.687434005690E+03    0.27297E-03   -0.36420E-05  8023   0.111E-02    0.954E-02
RMM:   6    -0.687433982754E+03    0.22936E-04   -0.22737E-05  7556   0.912E-03    0.677E-02
RMM:   7    -0.687433966307E+03    0.16447E-04   -0.15069E-05  7441   0.790E-03    0.431E-02
RMM:   8    -0.687433970021E+03   -0.37141E-05   -0.40825E-06  6278   0.453E-03
  26 F= -.68743397E+03 E0= -.68687165E+03  d E =-.559670E-03  mag=     4.4596
       N       E                     dE             d eps       ncg     rms          rms(c)
DAV:   1    -0.687433991205E+03   -0.24898E-04   -0.13203E-03 14496   0.478E-02    0.296E-02
RMM:   2    -0.687434048142E+03   -0.56937E-04   -0.45413E-05  7974   0.118E-02    0.890E-02
RMM:   3    -0.687434007192E+03    0.40950E-04   -0.20023E-05  7853   0.959E-03    0.472E-02
RMM:   4    -0.687434005952E+03    0.12403E-05   -0.51299E-06  5989   0.448E-03    0.496E-02
RMM:   5    -0.687433993506E+03    0.12446E-04   -0.24389E-06  4691   0.365E-03    0.258E-02
RMM:   6    -0.687433996896E+03   -0.33896E-05   -0.86155E-07  3341   0.309E-03    0.294E-02
RMM:   7    -0.687433995672E+03    0.12236E-05   -0.38658E-07  2481   0.289E-03    0.153E-02
RMM:   8    -0.687434000480E+03   -0.48082E-05   -0.13696E-07  1664   0.269E-03
  27 F= -.68743400E+03 E0= -.68687166E+03  d E =-.590130E-03  mag=     4.4615
       N       E                     dE             d eps       ncg     rms          rms(c)
DAV:   1    -0.687434328243E+03   -0.33257E-03   -0.65251E-03 15504   0.110E-01    0.261E-02
RMM:   2    -0.687434428985E+03   -0.10074E-03   -0.13362E-04  8127   0.237E-02    0.129E-01
RMM:   3    -0.687434398149E+03    0.30836E-04   -0.24483E-05  7848   0.111E-02    0.971E-02
RMM:   4    -0.687434367831E+03    0.30319E-04   -0.82038E-06  7046   0.554E-03    0.665E-02
RMM:   5    -0.687434357580E+03    0.10250E-04   -0.47201E-06  6485   0.456E-03    0.355E-02
RMM:   6    -0.687434370745E+03   -0.13165E-04   -0.29036E-06  5914   0.406E-03    0.472E-02
RMM:   7    -0.687434371660E+03   -0.91473E-06   -0.25938E-07  2381   0.278E-03    0.420E-02
RMM:   8    -0.687434377118E+03   -0.54573E-05   -0.92068E-07  2896   0.303E-03
  28 F= -.68743438E+03 E0= -.68687192E+03  d E =-.376637E-03  mag=     4.4635
       N       E                     dE             d eps       ncg     rms          rms(c)
DAV:   1    -0.687434471159E+03   -0.99498E-04   -0.64145E-03 15440   0.109E-01    0.331E-02
RMM:   2    -0.687434554987E+03   -0.83828E-04   -0.13381E-04  8165   0.235E-02    0.118E-01
RMM:   3    -0.687434631515E+03   -0.76529E-04   -0.27621E-05  7860   0.111E-02    0.157E-01
RMM:   4    -0.687434638272E+03   -0.67569E-05   -0.81877E-06  7072   0.602E-03    0.163E-01
RMM:   5    -0.687434618128E+03    0.20144E-04   -0.46871E-06  6343   0.452E-03    0.150E-01
RMM:   6    -0.687434543010E+03    0.75118E-04   -0.83447E-06  6951   0.481E-03    0.972E-02
RMM:   7    -0.687434524693E+03    0.18317E-04   -0.62538E-06  6659   0.529E-03    0.474E-02
RMM:   8    -0.687434530214E+03   -0.55214E-05   -0.19450E-06  4653   0.354E-03
  29 F= -.68743453E+03 E0= -.68687201E+03  d E =-.529734E-03  mag=     4.4648
       N       E                     dE             d eps       ncg     rms          rms(c)
DAV:   1    -0.687434723520E+03   -0.19883E-03   -0.23041E-03 15024   0.558E-02    0.412E-02
RMM:   2    -0.687434753357E+03   -0.29837E-04   -0.35449E-05  7854   0.125E-02    0.586E-02
RMM:   3    -0.687434804406E+03   -0.51049E-04   -0.12295E-05  7536   0.686E-03    0.107E-01
RMM:   4    -0.687434756280E+03    0.48126E-04   -0.62069E-06  6713   0.543E-03    0.374E-02
RMM:   5    -0.687434772307E+03   -0.16027E-04   -0.64417E-06  6600   0.475E-03    0.422E-02
RMM:   6    -0.687434784876E+03   -0.12569E-04   -0.62116E-06  6641   0.524E-03    0.358E-02
RMM:   7    -0.687434785956E+03   -0.10800E-05   -0.13667E-06  4493   0.351E-03    0.995E-03
RMM:   8    -0.687434790323E+03   -0.43675E-05   -0.19797E-08  1291   0.217E-03
  30 F= -.68743479E+03 E0= -.68687217E+03  d E =-.260109E-03  mag=     4.4663
       N       E                     dE             d eps       ncg     rms          rms(c)
DAV:   1    -0.687435121553E+03   -0.33560E-03   -0.20567E-02 15568   0.166E-01    0.459E-02
RMM:   2    -0.687435613211E+03   -0.49166E-03   -0.35463E-04 10818   0.383E-02    0.278E-01
RMM:   3    -0.687435263948E+03    0.34926E-03   -0.84463E-05  8223   0.174E-02    0.144E-01
RMM:   4    -0.687435258163E+03    0.57853E-05   -0.25539E-05  7712   0.100E-02    0.140E-01
RMM:   5    -0.687435196159E+03    0.62004E-04   -0.16230E-05  7368   0.778E-03    0.853E-02
RMM:   6    -0.687435199835E+03   -0.36762E-05   -0.13959E-05  7494   0.730E-03    0.625E-02
RMM:   7    -0.687435206872E+03   -0.70368E-05   -0.43334E-06  6318   0.476E-03    0.569E-02
RMM:   8    -0.687435202620E+03    0.42518E-05   -0.12534E-06  3487   0.298E-03
  31 F= -.68743520E+03 E0= -.68687243E+03  d E =-.672405E-03  mag=     4.4677
       N       E                     dE             d eps       ncg     rms          rms(c)
DAV:   1    -0.687434697235E+03    0.50964E-03   -0.82230E-02 15328   0.332E-01    0.921E-02
RMM:   2    -0.687435786478E+03   -0.10892E-02   -0.13154E-03 14334   0.747E-02    0.419E-01
RMM:   3    -0.687435218862E+03    0.56762E-03   -0.36759E-04 10942   0.304E-02    0.296E-01
RMM:   4    -0.687435533710E+03   -0.31485E-03   -0.69298E-05  8436   0.169E-02    0.356E-01
RMM:   5    -0.687435109063E+03    0.42465E-03   -0.50129E-05  8267   0.133E-02    0.258E-01
RMM:   6    -0.687434960248E+03    0.14882E-03   -0.95118E-05  8254   0.164E-02    0.158E-01
RMM:   7    -0.687434838758E+03    0.12149E-03   -0.51974E-05  8104   0.138E-02    0.508E-02
RMM:   8    -0.687434857238E+03   -0.18480E-04   -0.14761E-05  7311   0.820E-03
  32 F= -.68743486E+03 E0= -.68687170E+03  d E =-.327023E-03  mag=     4.4688
       N       E                     dE             d eps       ncg     rms          rms(c)
DAV:   1    -0.687435297813E+03   -0.45905E-03   -0.45216E-02 15552   0.246E-01    0.799E-02
RMM:   2    -0.687437981647E+03   -0.26838E-02   -0.90746E-04 13942   0.607E-02    0.652E-01
RMM:   3    -0.687435490579E+03    0.24911E-02   -0.20328E-04  9533   0.284E-02    0.216E-01
RMM:   4    -0.687435616005E+03   -0.12543E-03   -0.72404E-05  8200   0.171E-02    0.239E-01
RMM:   5    -0.687435461511E+03    0.15449E-03   -0.33099E-05  7878   0.118E-02    0.168E-01
RMM:   6    -0.687435407781E+03    0.53730E-04   -0.42323E-05  7917   0.113E-02    0.106E-01
RMM:   7    -0.687435392855E+03    0.14926E-04   -0.15531E-05  7290   0.865E-03    0.693E-02
RMM:   8    -0.687435392680E+03    0.17504E-06   -0.10711E-05  6827   0.556E-03
  33 F= -.68743539E+03 E0= -.68687245E+03  d E =-.862465E-03  mag=     4.4692
       N       E                     dE             d eps       ncg     rms          rms(c)
DAV:   1    -0.687435601773E+03   -0.20892E-03   -0.36296E-03 14992   0.889E-02    0.350E-02
RMM:   2    -0.687435989223E+03   -0.38745E-03   -0.13028E-04  8243   0.214E-02    0.237E-01
RMM:   3    -0.687435630144E+03    0.35908E-03   -0.42433E-05  7964   0.149E-02    0.906E-02
RMM:   4    -0.687435615872E+03    0.14272E-04   -0.10863E-05  7563   0.708E-03    0.169E-02
RMM:   5    -0.687435621084E+03   -0.52127E-05   -0.21779E-06  5267   0.373E-03    0.230E-02
RMM:   6    -0.687435622540E+03   -0.14559E-05   -0.21879E-07  2135   0.256E-03    0.174E-02
RMM:   7    -0.687435631166E+03   -0.86255E-05   -0.37375E-07  2252   0.278E-03    0.206E-02
RMM:   8    -0.687435637181E+03   -0.60153E-05   -0.14241E-06  3348   0.310E-03
  34 F= -.68743564E+03 E0= -.68687272E+03  d E =-.244502E-03  mag=     4.4696
       N       E                     dE             d eps       ncg     rms          rms(c)
DAV:   1    -0.687435678400E+03   -0.47235E-04   -0.15187E-03 14592   0.573E-02    0.142E-02
RMM:   2    -0.687435729717E+03   -0.51317E-04   -0.37339E-05  7829   0.120E-02    0.858E-02
RMM:   3    -0.687435687130E+03    0.42587E-04   -0.89470E-06  7690   0.699E-03    0.297E-02
RMM:   4    -0.687435686694E+03    0.43578E-06   -0.15720E-06  4295   0.334E-03    0.119E-02
RMM:   5    -0.687435687977E+03   -0.12833E-05   -0.10700E-07  1770   0.265E-03    0.867E-03
RMM:   6    -0.687435695881E+03   -0.79032E-05   -0.87085E-08  1594   0.261E-03    0.226E-02
RMM:   7    -0.687435695896E+03   -0.15869E-07   -0.42204E-08  1591   0.261E-03    0.102E-02
RMM:   8    -0.687435699100E+03   -0.32034E-05   -0.10365E-07  1471   0.269E-03
  35 F= -.68743570E+03 E0= -.68687276E+03  d E =-.306420E-03  mag=     4.4700
