 ----------------------------------------------------
    OOO  PPPP  EEEEE N   N M   M PPPP
   O   O P   P E     NN  N MM MM P   P
   O   O PPPP  EEEEE N N N M M M PPPP   -- VERSION
   O   O P     E     N  NN M   M P
    OOO  P     EEEEE N   N M   M P
 ----------------------------------------------------
 running   16 mpi-ranks, with    4 threads/rank
 distrk:  each k-point on   16 cores,    1 groups
 distr:  one band on    1 cores,   16 groups
 vasp.6.2.1 16May21 (build Jul 28 2021 23:24:15) complex                        
  
 POSCAR found type information on POSCAR IrO 
 POSCAR found :  2 types and     104 ions
 scaLAPACK will be used
 -----------------------------------------------------------------------------
|                                                                             |
|           W    W    AA    RRRRR   N    N  II  N    N   GGGG   !!!           |
|           W    W   A  A   R    R  NN   N  II  NN   N  G    G  !!!           |
|           W    W  A    A  R    R  N N  N  II  N N  N  G       !!!           |
|           W WW W  AAAAAA  RRRRR   N  N N  II  N  N N  G  GGG   !            |
|           WW  WW  A    A  R   R   N   NN  II  N   NN  G    G                |
|           W    W  A    A  R    R  N    N  II  N    N   GGGG   !!!           |
|                                                                             |
|     The real-space projection scheme for the treatment of the non-local     |
|     pseudopotentials has been switched on but on file POTCAR I have not     |
|     found any entries, signalling me that you have never performed a        |
|     real-space optimization of all non-local projectors! BE WARNED that     |
|     a calculation using the real-space projection scheme together with      |
|     non-local projectors which were not real-space optimized (according     |
|     to the plane-wave cutoff used in this calculation) might give more      |
|     or less inaccurate results. I hope you know what you are doing.         |
|                                                                             |
 -----------------------------------------------------------------------------

 LDA part: xc-table for Pade appr. of Perdew
 POSCAR, INCAR and KPOINTS ok, starting setup
 FFT: planning ...
 WAVECAR not read
 WARNING: random wavefunctions but no delay for mixing, default for NELMDL
 entering main loop
       N       E                     dE             d eps       ncg     rms          rms(c)
DAV:   1     0.773040662261E+04    0.77304E+04   -0.30782E+05 13648   0.125E+03
DAV:   2     0.588851164182E+03   -0.71416E+04   -0.64457E+04 14544   0.369E+02
DAV:   3    -0.784935559732E+03   -0.13738E+04   -0.13130E+04 16752   0.163E+02
DAV:   4    -0.859412611007E+03   -0.74477E+02   -0.72620E+02 18304   0.427E+01
DAV:   5    -0.861102537373E+03   -0.16899E+01   -0.16696E+01 17312   0.601E+00    0.191E+02
RMM:   6    -0.880151481658E+03   -0.19049E+02   -0.70395E+02 13460   0.427E+01    0.266E+02
RMM:   7    -0.679787390966E+03    0.20036E+03   -0.15069E+02 14108   0.211E+01    0.103E+02
RMM:   8    -0.125098745576E+04   -0.57120E+03   -0.23097E+02 14626   0.178E+01    0.335E+02
RMM:   9    -0.939806273728E+03    0.31118E+03   -0.60740E+01 13537   0.134E+01    0.205E+02
RMM:  10    -0.657902108603E+03    0.28190E+03   -0.35566E+01 13445   0.836E+00    0.631E+01
RMM:  11    -0.645551149728E+03    0.12351E+02   -0.30287E+01 13627   0.789E+00    0.432E+01
RMM:  12    -0.635138387942E+03    0.10413E+02   -0.10105E+01 13510   0.513E+00    0.413E+01
RMM:  13    -0.639942737598E+03   -0.48043E+01   -0.51768E+00 14088   0.353E+00    0.330E+01
RMM:  14    -0.644854109123E+03   -0.49114E+01   -0.29528E+00 13799   0.256E+00    0.278E+01
RMM:  15    -0.657383145075E+03   -0.12529E+02   -0.75452E+00 15392   0.346E+00    0.240E+01
RMM:  16    -0.665119573917E+03   -0.77364E+01   -0.41825E+00 14665   0.295E+00    0.179E+01
RMM:  17    -0.672603397777E+03   -0.74838E+01   -0.53828E+00 15660   0.299E+00    0.147E+01
RMM:  18    -0.674289794599E+03   -0.16864E+01   -0.17622E+00 14345   0.183E+00    0.135E+01
RMM:  19    -0.675558550819E+03   -0.12688E+01   -0.11349E+00 14193   0.139E+00    0.143E+01
RMM:  20    -0.676188489822E+03   -0.62994E+00   -0.88786E-01 13831   0.145E+00    0.122E+01
RMM:  21    -0.677943613236E+03   -0.17551E+01   -0.14768E+00 15902   0.162E+00    0.134E+01
RMM:  22    -0.677990251820E+03   -0.46639E-01   -0.57765E-01 14075   0.108E+00    0.132E+01
RMM:  23    -0.678965645638E+03   -0.97539E+00   -0.28764E-01 13673   0.795E-01    0.134E+01
RMM:  24    -0.679952774201E+03   -0.98713E+00   -0.34931E-01 14553   0.758E-01    0.133E+01
RMM:  25    -0.681346536996E+03   -0.13938E+01   -0.43763E-01 15409   0.883E-01    0.911E+00
RMM:  26    -0.685943166082E+03   -0.45966E+01   -0.11428E+00 17790   0.129E+00    0.665E+00
RMM:  27    -0.689220897790E+03   -0.32777E+01   -0.69522E-01 15937   0.955E-01    0.672E+00
RMM:  28    -0.690619419046E+03   -0.13985E+01   -0.23300E-01 14627   0.627E-01    0.492E+00
RMM:  29    -0.692466370660E+03   -0.18470E+01   -0.25967E-01 15655   0.667E-01    0.344E+00
RMM:  30    -0.693772551596E+03   -0.13062E+01   -0.11895E-01 13987   0.493E-01    0.337E+00
RMM:  31    -0.694595529189E+03   -0.82298E+00   -0.60848E-02 13657   0.369E-01    0.278E+00
RMM:  32    -0.695368866184E+03   -0.77334E+00   -0.83370E-02 14672   0.375E-01    0.203E+00
RMM:  33    -0.695437263694E+03   -0.68398E-01   -0.41498E-02 13836   0.278E-01    0.181E+00
RMM:  34    -0.695581210755E+03   -0.14395E+00   -0.28345E-02 14044   0.217E-01    0.164E+00
RMM:  35    -0.695763836338E+03   -0.18263E+00   -0.41105E-02 15163   0.238E-01    0.163E+00
RMM:  36    -0.695878173516E+03   -0.11434E+00   -0.24367E-02 14492   0.183E-01    0.131E+00
RMM:  37    -0.696185335988E+03   -0.30716E+00   -0.18449E-02 14724   0.155E-01    0.981E-01
RMM:  38    -0.696449901765E+03   -0.26457E+00   -0.10531E-02 14285   0.120E-01    0.909E-01
RMM:  39    -0.696557458305E+03   -0.10756E+00   -0.30850E-03 13029   0.767E-02    0.865E-01
RMM:  40    -0.696660218006E+03   -0.10276E+00   -0.21079E-03 13311   0.646E-02    0.700E-01
RMM:  41    -0.696749496253E+03   -0.89278E-01   -0.11157E-03 12761   0.483E-02    0.624E-01
RMM:  42    -0.696818839681E+03   -0.69343E-01   -0.43017E-04 10870   0.333E-02    0.509E-01
RMM:  43    -0.696864802332E+03   -0.45963E-01   -0.26804E-04  9723   0.256E-02    0.403E-01
RMM:  44    -0.696891672442E+03   -0.26870E-01   -0.19206E-04  8772   0.217E-02    0.320E-01
RMM:  45    -0.696916225418E+03   -0.24553E-01   -0.22006E-04  8828   0.223E-02    0.228E-01
RMM:  46    -0.696931892513E+03   -0.15667E-01   -0.12365E-04  8265   0.190E-02    0.127E-01
RMM:  47    -0.696936705407E+03   -0.48129E-02   -0.63599E-05  8184   0.144E-02    0.764E-02
RMM:  48    -0.696938192855E+03   -0.14874E-02   -0.27577E-05  7983   0.948E-03    0.612E-02
RMM:  49    -0.696939166886E+03   -0.97403E-03   -0.15381E-05  7407   0.654E-03    0.527E-02
RMM:  50    -0.696939769824E+03   -0.60294E-03   -0.78034E-06  6495   0.480E-03    0.465E-02
RMM:  51    -0.696939492952E+03    0.27687E-03   -0.21595E-05  7565   0.633E-03    0.382E-02
RMM:  52    -0.696940396587E+03   -0.90364E-03   -0.22711E-05  7265   0.640E-03    0.245E-02
RMM:  53    -0.696940806335E+03   -0.40975E-03   -0.74635E-06  5593   0.449E-03    0.159E-02
RMM:  54    -0.696941109986E+03   -0.30365E-03   -0.29295E-06  4604   0.349E-03    0.105E-02
RMM:  55    -0.696941316428E+03   -0.20644E-03   -0.16798E-06  3584   0.300E-03    0.874E-03
RMM:  56    -0.696941469829E+03   -0.15340E-03   -0.17267E-06  3727   0.306E-03    0.671E-03
RMM:  57    -0.696941624571E+03   -0.15474E-03   -0.15579E-06  3397   0.294E-03    0.454E-03
RMM:  58    -0.696941744729E+03   -0.12016E-03   -0.11972E-06  3112   0.286E-03    0.381E-03
RMM:  59    -0.696941826695E+03   -0.81966E-04   -0.61370E-07  2730   0.277E-03
   1 F= -.69694183E+03 E0= -.69633924E+03  d E =-.696942E+03  mag=    10.5455
 curvature:   0.00 expect dE= 0.000E+00 dE for cont linesearch  0.000E+00
 trial: gam= 0.00000 g(F)=  0.942E+01 g(S)=  0.000E+00 ort = 0.000E+00 (trialstep = 0.100E+01)
 search vector abs. value=  0.942E+01
 bond charge predicted
       N       E                     dE             d eps       ncg     rms          rms(c)
DAV:   1    -0.690913672052E+03    0.60281E+01   -0.20625E+03 13760   0.619E+01    0.258E+01
RMM:   2    -0.769394222797E+03   -0.78481E+02   -0.10234E+02 13440   0.185E+01    0.188E+02
RMM:   3    -0.779050061014E+03   -0.96558E+01   -0.32445E+01 15229   0.716E+00    0.189E+02
RMM:   4    -0.749154796675E+03    0.29895E+02   -0.47435E+00 15582   0.293E+00    0.142E+02
RMM:   5    -0.721635770509E+03    0.27519E+02   -0.43505E+00 13979   0.299E+00    0.106E+02
RMM:   6    -0.697561939437E+03    0.24074E+02   -0.19271E+00 13892   0.221E+00    0.673E+01
RMM:   7    -0.697289350774E+03    0.27259E+00   -0.23760E+00 14242   0.227E+00    0.521E+01
RMM:   8    -0.696424569088E+03    0.86478E+00   -0.28503E+00 14874   0.210E+00    0.495E+01
RMM:   9    -0.695487811038E+03    0.93676E+00   -0.13788E+00 14110   0.171E+00    0.394E+01
RMM:  10    -0.695464679122E+03    0.23132E-01   -0.11117E+00 14403   0.146E+00    0.338E+01
RMM:  11    -0.695395191720E+03    0.69487E-01   -0.36286E-01 13998   0.958E-01    0.329E+01
RMM:  12    -0.695060048039E+03    0.33514E+00   -0.48224E-01 14332   0.995E-01    0.322E+01
RMM:  13    -0.694508489182E+03    0.55156E+00   -0.32803E-01 14048   0.858E-01    0.319E+01
RMM:  14    -0.694230820435E+03    0.27767E+00   -0.11666E-01 14497   0.463E-01    0.321E+01
RMM:  15    -0.693802600481E+03    0.42822E+00   -0.12148E-01 14276   0.475E-01    0.338E+01
RMM:  16    -0.693488029747E+03    0.31457E+00   -0.17730E-01 15239   0.560E-01    0.362E+01
RMM:  17    -0.693533528384E+03   -0.45499E-01   -0.99256E-02 14158   0.442E-01    0.388E+01
RMM:  18    -0.693797441083E+03   -0.26391E+00   -0.82178E-02 14211   0.377E-01    0.413E+01
RMM:  19    -0.694078946447E+03   -0.28151E+00   -0.43953E-02 14780   0.270E-01    0.428E+01
RMM:  20    -0.694598373766E+03   -0.51943E+00   -0.68810E-02 15631   0.307E-01    0.451E+01
RMM:  21    -0.695148456414E+03   -0.55008E+00   -0.75917E-02 16430   0.334E-01    0.483E+01
RMM:  22    -0.695597501146E+03   -0.44904E+00   -0.60603E-02 16280   0.314E-01    0.515E+01
RMM:  23    -0.695740606662E+03   -0.14311E+00   -0.13060E-02 15989   0.147E-01    0.527E+01
RMM:  24    -0.695112567711E+03    0.62804E+00   -0.12331E-01 19337   0.468E-01    0.465E+01
RMM:  25    -0.694608741586E+03    0.50383E+00   -0.11042E-01 19465   0.433E-01    0.416E+01
RMM:  26    -0.694021505911E+03    0.58724E+00   -0.22999E-01 22268   0.614E-01    0.345E+01
RMM:  27    -0.693720241815E+03    0.30126E+00   -0.41025E-01 23249   0.808E-01    0.252E+01
RMM:  28    -0.693577210091E+03    0.14303E+00   -0.58817E-01 23508   0.971E-01    0.138E+01
RMM:  29    -0.693760186726E+03   -0.18298E+00   -0.34205E-01 22891   0.737E-01    0.735E+00
RMM:  30    -0.693981633737E+03   -0.22145E+00   -0.27993E-02 16620   0.224E-01    0.615E+00
RMM:  31    -0.694263634590E+03   -0.28200E+00   -0.29612E-02 16202   0.241E-01    0.488E+00
RMM:  32    -0.694343272258E+03   -0.79638E-01   -0.61769E-03 13534   0.127E-01    0.377E+00
RMM:  33    -0.694464082612E+03   -0.12081E+00   -0.12152E-02 15109   0.152E-01    0.285E+00
RMM:  34    -0.694554581455E+03   -0.90499E-01   -0.18835E-02 16608   0.176E-01    0.266E+00
RMM:  35    -0.694651759126E+03   -0.97178E-01   -0.48702E-03 13682   0.102E-01    0.180E+00
RMM:  36    -0.694701010468E+03   -0.49251E-01   -0.19293E-02 17206   0.173E-01    0.175E+00
RMM:  37    -0.694737268190E+03   -0.36258E-01   -0.42562E-03 14762   0.890E-02    0.221E+00
RMM:  38    -0.694777773007E+03   -0.40505E-01   -0.74359E-04 12693   0.472E-02    0.191E+00
RMM:  39    -0.694820224852E+03   -0.42452E-01   -0.10123E-03 13091   0.443E-02    0.141E+00
RMM:  40    -0.694849830002E+03   -0.29605E-01   -0.42948E-04 10951   0.290E-02    0.129E+00
RMM:  41    -0.694871163077E+03   -0.21333E-01   -0.18608E-04  8585   0.212E-02    0.138E+00
RMM:  42    -0.694909386370E+03   -0.38223E-01   -0.21702E-04  8660   0.232E-02    0.145E+00
RMM:  43    -0.694944530194E+03   -0.35144E-01   -0.20415E-04  8663   0.224E-02    0.151E+00
RMM:  44    -0.694963172534E+03   -0.18642E-01   -0.14591E-04  8406   0.194E-02    0.140E+00
RMM:  45    -0.694985977582E+03   -0.22805E-01   -0.33974E-04  9892   0.237E-02    0.119E+00
RMM:  46    -0.695009223158E+03   -0.23246E-01   -0.52423E-04 11579   0.296E-02    0.921E-01
RMM:  47    -0.695020381302E+03   -0.11158E-01   -0.40439E-03 17466   0.808E-02    0.799E-02
RMM:  48    -0.695027571755E+03   -0.71905E-02   -0.87581E-05  8268   0.167E-02    0.692E-02
RMM:  49    -0.695034390362E+03   -0.68186E-02   -0.59112E-05  8326   0.979E-03    0.537E-02
RMM:  50    -0.695041822343E+03   -0.74320E-02   -0.62608E-05  8156   0.915E-03    0.435E-02
RMM:  51    -0.695046574369E+03   -0.47520E-02   -0.66896E-05  7726   0.830E-03    0.382E-02
RMM:  52    -0.695045319692E+03    0.12547E-02   -0.16240E-05  7003   0.714E-03    0.240E-02
RMM:  53    -0.695047852441E+03   -0.25327E-02   -0.21656E-05  6153   0.484E-03    0.196E-02
RMM:  54    -0.695048600155E+03   -0.74771E-03   -0.18689E-05  6011   0.461E-03    0.161E-02
RMM:  55    -0.695048953375E+03   -0.35322E-03   -0.13049E-05  5746   0.452E-03    0.123E-02
RMM:  56    -0.695049113626E+03   -0.16025E-03   -0.63060E-06  4788   0.371E-03    0.102E-02
RMM:  57    -0.695049170092E+03   -0.56466E-04   -0.21125E-06  3928   0.329E-03
   2 F= -.69504917E+03 E0= -.69443548E+03  d E =0.189266E+01  mag=     6.8785
 trial-energy change:    1.892657  1 .order    1.884134   -9.419856   13.188123
 step:   0.4167(harm=  0.4167)  dis= 0.06504  next Energy=  -698.904268 (dE=-0.196E+01)
 bond charge predicted
       N       E                     dE             d eps       ncg     rms          rms(c)
DAV:   1    -0.697847450485E+03   -0.27983E+01   -0.68066E+02 13792   0.353E+01    0.209E+01
RMM:   2    -0.759023342699E+03   -0.61176E+02   -0.23630E+01 13442   0.811E+00    0.919E+01
RMM:   3    -0.714052919435E+03    0.44970E+02   -0.50249E+00 14587   0.377E+00    0.556E+01
RMM:   4    -0.711701934194E+03    0.23510E+01   -0.10812E+00 15805   0.151E+00    0.543E+01
RMM:   5    -0.714032729894E+03   -0.23308E+01   -0.22468E-01 13817   0.707E-01    0.584E+01
RMM:   6    -0.713233553338E+03    0.79918E+00   -0.17190E-01 13726   0.522E-01    0.565E+01
RMM:   7    -0.701404469308E+03    0.11829E+02   -0.58781E+00 21616   0.275E+00    0.295E+01
RMM:   8    -0.696250900070E+03    0.51536E+01   -0.46160E+00 21129   0.246E+00    0.157E+01
RMM:   9    -0.696172172784E+03    0.78727E-01   -0.65886E-01 17284   0.111E+00    0.135E+01
RMM:  10    -0.696741011869E+03   -0.56884E+00   -0.42190E-01 15776   0.842E-01    0.130E+01
RMM:  11    -0.697347691743E+03   -0.60668E+00   -0.27047E-01 14798   0.655E-01    0.135E+01
RMM:  12    -0.697524717552E+03   -0.17703E+00   -0.70361E-02 14089   0.355E-01    0.127E+01
RMM:  13    -0.697939244847E+03   -0.41453E+00   -0.15146E-01 15417   0.467E-01    0.104E+01
RMM:  14    -0.698291492340E+03   -0.35225E+00   -0.14350E-01 15825   0.469E-01    0.800E+00
RMM:  15    -0.698441998715E+03   -0.15051E+00   -0.64013E-02 14499   0.359E-01    0.679E+00
RMM:  16    -0.698581568652E+03   -0.13957E+00   -0.81163E-02 15727   0.377E-01    0.485E+00
RMM:  17    -0.698667854286E+03   -0.86286E-01   -0.85119E-02 16225   0.381E-01    0.399E+00
RMM:  18    -0.698547927083E+03    0.11993E+00   -0.39929E-02 14292   0.263E-01    0.311E+00
RMM:  19    -0.698513704672E+03    0.34222E-01   -0.28467E-02 14575   0.231E-01    0.284E+00
RMM:  20    -0.698494007335E+03    0.19697E-01   -0.12968E-02 13980   0.163E-01    0.254E+00
RMM:  21    -0.698450357680E+03    0.43650E-01   -0.98272E-03 14096   0.141E-01    0.201E+00
RMM:  22    -0.698454369960E+03   -0.40123E-02   -0.48806E-03 13598   0.111E-01    0.180E+00
RMM:  23    -0.698467652149E+03   -0.13282E-01   -0.29222E-03 13699   0.820E-02    0.169E+00
RMM:  24    -0.698497584905E+03   -0.29933E-01   -0.45532E-03 14919   0.956E-02    0.149E+00
RMM:  25    -0.698524384416E+03   -0.26800E-01   -0.33220E-03 14515   0.829E-02    0.122E+00
RMM:  26    -0.698534902069E+03   -0.10518E-01   -0.12099E-03 13073   0.554E-02    0.104E+00
RMM:  27    -0.698554441996E+03   -0.19540E-01   -0.14368E-03 13728   0.567E-02    0.924E-01
RMM:  28    -0.698577745169E+03   -0.23303E-01   -0.12513E-03 13274   0.481E-02    0.801E-01
RMM:  29    -0.698597263011E+03   -0.19518E-01   -0.10362E-03 12642   0.435E-02    0.647E-01
RMM:  30    -0.698632118175E+03   -0.34855E-01   -0.26793E-03 14552   0.614E-02    0.557E-01
RMM:  31    -0.698663675370E+03   -0.31557E-01   -0.18915E-03 13736   0.511E-02    0.508E-01
RMM:  32    -0.698684351761E+03   -0.20676E-01   -0.10248E-03 12547   0.405E-02    0.452E-01
RMM:  33    -0.698709780750E+03   -0.25429E-01   -0.10056E-03 12436   0.390E-02    0.414E-01
RMM:  34    -0.698741255272E+03   -0.31475E-01   -0.93314E-04 11978   0.353E-02    0.351E-01
RMM:  35    -0.698765506606E+03   -0.24251E-01   -0.48386E-04 10371   0.264E-02    0.249E-01
RMM:  36    -0.698781765719E+03   -0.16259E-01   -0.27711E-04  9422   0.221E-02    0.152E-01
RMM:  37    -0.698799867219E+03   -0.18102E-01   -0.26041E-04  9235   0.210E-02    0.781E-02
RMM:  38    -0.698813247902E+03   -0.13381E-01   -0.12540E-04  8326   0.159E-02    0.722E-02
RMM:  39    -0.698822810956E+03   -0.95631E-02   -0.64232E-05  8042   0.122E-02    0.724E-02
RMM:  40    -0.698831229867E+03   -0.84189E-02   -0.38632E-05  7808   0.988E-03    0.739E-02
RMM:  41    -0.698838549714E+03   -0.73198E-02   -0.28128E-05  7356   0.795E-03    0.714E-02
RMM:  42    -0.698846477374E+03   -0.79277E-02   -0.32303E-05  7553   0.739E-03    0.683E-02
RMM:  43    -0.698853411895E+03   -0.69345E-02   -0.28559E-05  6969   0.680E-03    0.597E-02
RMM:  44    -0.698860952521E+03   -0.75406E-02   -0.42241E-05  7057   0.716E-03    0.473E-02
RMM:  45    -0.698866561097E+03   -0.56086E-02   -0.49040E-05  7110   0.725E-03    0.350E-02
RMM:  46    -0.698869089024E+03   -0.25279E-02   -0.30543E-05  6734   0.649E-03    0.252E-02
RMM:  47    -0.698870602981E+03   -0.15140E-02   -0.24186E-05  7045   0.632E-03    0.141E-02
RMM:  48    -0.698871285644E+03   -0.68266E-03   -0.12644E-05  5099   0.480E-03    0.976E-03
RMM:  49    -0.698871708105E+03   -0.42246E-03   -0.72388E-06  4581   0.402E-03    0.659E-03
RMM:  50    -0.698871950941E+03   -0.24284E-03   -0.41740E-06  3862   0.349E-03    0.499E-03
RMM:  51    -0.698872127032E+03   -0.17609E-03   -0.26768E-06  3444   0.321E-03    0.385E-03
RMM:  52    -0.698872237479E+03   -0.11045E-03   -0.15317E-06  3019   0.301E-03    0.243E-03
RMM:  53    -0.698872359124E+03   -0.12165E-03   -0.13894E-06  2859   0.293E-03    0.206E-03
RMM:  54    -0.698872431226E+03   -0.72102E-04   -0.10374E-06  2715   0.290E-03
   3 F= -.69887243E+03 E0= -.69826131E+03  d E =-.193060E+01  mag=     9.7307
 curvature:  -0.21 expect dE=-0.625E+00 dE for cont linesearch -0.317E-02
 trial: gam= 0.27842 g(F)=  0.300E+01 g(S)=  0.000E+00 ort = 0.378E+00 (trialstep = 0.883E+00)
 search vector abs. value=  0.394E+01
 bond charge predicted
       N       E                     dE             d eps       ncg     rms          rms(c)
DAV:   1    -0.696216011648E+03    0.26563E+01   -0.72749E+02 13520   0.415E+01    0.881E+00
RMM:   2    -0.703600846952E+03   -0.73848E+01   -0.19351E+01 13440   0.875E+00    0.411E+01
RMM:   3    -0.698218389718E+03    0.53825E+01   -0.36725E+00 14142   0.352E+00    0.861E+00
RMM:   4    -0.698802062356E+03   -0.58367E+00   -0.10087E+00 14422   0.180E+00    0.145E+01
RMM:   5    -0.698078915675E+03    0.72315E+00   -0.32887E-01 13531   0.110E+00    0.868E+00
RMM:   6    -0.697989797513E+03    0.89118E-01   -0.22561E-01 13467   0.818E-01    0.685E+00
RMM:   7    -0.697831723394E+03    0.15807E+00   -0.14873E-01 13550   0.668E-01    0.419E+00
RMM:   8    -0.697862396416E+03   -0.30673E-01   -0.94122E-02 13679   0.489E-01    0.476E+00
RMM:   9    -0.697851345137E+03    0.11051E-01   -0.24332E-02 13532   0.292E-01    0.361E+00
RMM:  10    -0.697792139628E+03    0.59206E-01   -0.15420E-02 14247   0.165E-01    0.182E+00
RMM:  11    -0.697788616327E+03    0.35233E-02   -0.41182E-03 14160   0.883E-02    0.157E+00
RMM:  12    -0.697787070318E+03    0.15460E-02   -0.10345E-03 12503   0.421E-02    0.149E+00
RMM:  13    -0.697771761303E+03    0.15309E-01   -0.26639E-03 14257   0.712E-02    0.102E+00
RMM:  14    -0.697775246996E+03   -0.34857E-02   -0.87756E-04 12540   0.469E-02    0.799E-01
RMM:  15    -0.697777725551E+03   -0.24786E-02   -0.50677E-04 11681   0.338E-02    0.657E-01
RMM:  16    -0.697783433581E+03   -0.57080E-02   -0.95708E-04 12242   0.426E-02    0.415E-01
RMM:  17    -0.697800205731E+03   -0.16772E-01   -0.84033E-04 12161   0.384E-02    0.305E-01
RMM:  18    -0.697820581711E+03   -0.20376E-01   -0.89932E-04 12031   0.365E-02    0.278E-01
RMM:  19    -0.697875481645E+03   -0.54900E-01   -0.48436E-03 15115   0.695E-02    0.299E-01
RMM:  20    -0.697910297652E+03   -0.34816E-01   -0.18078E-03 13356   0.452E-02    0.271E-01
RMM:  21    -0.697942717797E+03   -0.32420E-01   -0.12883E-03 12063   0.363E-02    0.199E-01
RMM:  22    -0.697960304003E+03   -0.17586E-01   -0.26409E-04  9441   0.202E-02    0.161E-01
RMM:  23    -0.697997140515E+03   -0.36837E-01   -0.83923E-04 11039   0.293E-02    0.111E-01
RMM:  24    -0.698028974322E+03   -0.31834E-01   -0.53312E-04 10437   0.246E-02    0.951E-02
RMM:  25    -0.698044418391E+03   -0.15444E-01   -0.14760E-04  8704   0.154E-02    0.882E-02
RMM:  26    -0.698055447985E+03   -0.11030E-01   -0.53424E-05  8009   0.104E-02    0.856E-02
RMM:  27    -0.698065800258E+03   -0.10352E-01   -0.40028E-05  7585   0.862E-03    0.890E-02
RMM:  28    -0.698074532125E+03   -0.87319E-02   -0.25087E-05  7620   0.795E-03    0.822E-02
RMM:  29    -0.698080648543E+03   -0.61164E-02   -0.13313E-05  7199   0.593E-03    0.626E-02
RMM:  30    -0.698085605997E+03   -0.49575E-02   -0.10508E-05  7188   0.521E-03    0.402E-02
RMM:  31    -0.698091329414E+03   -0.57234E-02   -0.20481E-05  7291   0.578E-03    0.269E-02
RMM:  32    -0.698095071966E+03   -0.37426E-02   -0.17372E-05  6920   0.527E-03    0.283E-02
RMM:  33    -0.698097902375E+03   -0.28304E-02   -0.15302E-05  6443   0.502E-03    0.303E-02
RMM:  34    -0.698099915583E+03   -0.20132E-02   -0.12804E-05  5429   0.432E-03    0.288E-02
RMM:  35    -0.698102140723E+03   -0.22251E-02   -0.20487E-05  6022   0.485E-03    0.262E-02
RMM:  36    -0.698103735401E+03   -0.15947E-02   -0.21612E-05  5522   0.474E-03    0.153E-02
RMM:  37    -0.698104399814E+03   -0.66441E-03   -0.11333E-05  4935   0.438E-03    0.135E-02
RMM:  38    -0.698104627932E+03   -0.22812E-03   -0.56700E-06  4116   0.375E-03    0.913E-03
RMM:  39    -0.698104789587E+03   -0.16166E-03   -0.36671E-06  3659   0.329E-03    0.855E-03
RMM:  40    -0.698104899435E+03   -0.10985E-03   -0.25514E-06  3419   0.314E-03    0.588E-03
RMM:  41    -0.698104967114E+03   -0.67679E-04   -0.18235E-06  3141   0.300E-03
   4 F= -.69810497E+03 E0= -.69747936E+03  d E =0.767464E+00  mag=     7.6997
 trial-energy change:    0.767464  1 .order    0.176890   -2.743888    3.097667
 step:   0.2956(harm=  0.4149)  dis= 0.01951  next Energy=  -699.309424 (dE=-0.437E+00)
 bond charge predicted
       N       E                     dE             d eps       ncg     rms          rms(c)
DAV:   1    -0.698411790945E+03   -0.30689E+00   -0.32201E+02 13616   0.276E+01    0.562E+00
RMM:   2    -0.701548628098E+03   -0.31368E+01   -0.72359E+00 13440   0.524E+00    0.220E+01
RMM:   3    -0.699348493601E+03    0.22001E+01   -0.14809E+00 14543   0.214E+00    0.726E+00
RMM:   4    -0.699734606246E+03   -0.38611E+00   -0.38842E-01 13740   0.112E+00    0.110E+01
RMM:   5    -0.699189994790E+03    0.54461E+00   -0.15923E-01 13465   0.760E-01    0.689E+00
RMM:   6    -0.698895764465E+03    0.29423E+00   -0.12817E-01 13600   0.562E-01    0.477E+00
RMM:   7    -0.698638474906E+03    0.25729E+00   -0.12276E-01 14134   0.527E-01    0.198E+00
RMM:   8    -0.698681642134E+03   -0.43167E-01   -0.40913E-02 13717   0.318E-01    0.133E+00
RMM:   9    -0.698747847933E+03   -0.66206E-01   -0.10302E-02 13852   0.163E-01    0.796E-01
RMM:  10    -0.698861998533E+03   -0.11415E+00   -0.19446E-02 14131   0.167E-01    0.642E-01
RMM:  11    -0.698901769863E+03   -0.39771E-01   -0.87553E-03 13840   0.125E-01    0.536E-01
RMM:  12    -0.698899097675E+03    0.26722E-02   -0.13419E-03 12746   0.647E-02    0.312E-01
RMM:  13    -0.698911852222E+03   -0.12755E-01   -0.80528E-04 12085   0.393E-02    0.264E-01
RMM:  14    -0.698940456215E+03   -0.28604E-01   -0.15965E-03 13063   0.438E-02    0.232E-01
RMM:  15    -0.698979831544E+03   -0.39375E-01   -0.29304E-03 14101   0.554E-02    0.239E-01
RMM:  16    -0.699014056017E+03   -0.34224E-01   -0.19522E-03 13295   0.461E-02    0.207E-01
RMM:  17    -0.699035578705E+03   -0.21523E-01   -0.62285E-04 11208   0.302E-02    0.176E-01
RMM:  18    -0.699056215670E+03   -0.20637E-01   -0.57115E-04 10616   0.280E-02    0.166E-01
RMM:  19    -0.699077157759E+03   -0.20942E-01   -0.49702E-04 10334   0.244E-02    0.139E-01
RMM:  20    -0.699106195500E+03   -0.29038E-01   -0.76299E-04 10926   0.263E-02    0.116E-01
RMM:  21    -0.699119885346E+03   -0.13690E-01   -0.18803E-04  9007   0.165E-02    0.845E-02
RMM:  22    -0.699128912725E+03   -0.90274E-02   -0.89129E-05  8208   0.122E-02    0.737E-02
RMM:  23    -0.699135884762E+03   -0.69720E-02   -0.62089E-05  7897   0.104E-02    0.554E-02
RMM:  24    -0.699142500669E+03   -0.66159E-02   -0.32803E-05  7498   0.822E-03    0.389E-02
RMM:  25    -0.699148590864E+03   -0.60902E-02   -0.20071E-05  7047   0.622E-03    0.343E-02
RMM:  26    -0.699152196241E+03   -0.36054E-02   -0.11076E-05  6224   0.501E-03    0.317E-02
RMM:  27    -0.699158447942E+03   -0.62517E-02   -0.15035E-05  7132   0.514E-03    0.278E-02
RMM:  28    -0.699161969883E+03   -0.35219E-02   -0.11422E-05  6106   0.467E-03    0.310E-02
RMM:  29    -0.699163996996E+03   -0.20271E-02   -0.10214E-05  5819   0.442E-03    0.267E-02
RMM:  30    -0.699166408844E+03   -0.24118E-02   -0.21734E-05  6514   0.520E-03    0.216E-02
RMM:  31    -0.699167412399E+03   -0.10036E-02   -0.10808E-05  5098   0.414E-03    0.148E-02
RMM:  32    -0.699168352521E+03   -0.94012E-03   -0.12792E-05  5474   0.430E-03    0.109E-02
RMM:  33    -0.699168875414E+03   -0.52289E-03   -0.63979E-06  4156   0.364E-03    0.919E-03
RMM:  34    -0.699169212323E+03   -0.33691E-03   -0.40893E-06  3836   0.343E-03    0.775E-03
RMM:  35    -0.699169604869E+03   -0.39255E-03   -0.42386E-06  3934   0.332E-03    0.654E-03
RMM:  36    -0.699170020774E+03   -0.41590E-03   -0.44729E-06  3993   0.334E-03    0.551E-03
RMM:  37    -0.699170364678E+03   -0.34390E-03   -0.47640E-06  3928   0.333E-03    0.340E-03
RMM:  38    -0.699170433625E+03   -0.68947E-04   -0.18646E-06  3218   0.313E-03
   5 F= -.69917043E+03 E0= -.69855338E+03  d E =-.298002E+00  mag=     9.1561
 curvature:  -0.25 expect dE=-0.108E+01 dE for cont linesearch -0.717E-03
 trial: gam= 1.41510 g(F)=  0.438E+01 g(S)=  0.000E+00 ort = 0.107E+00 (trialstep = 0.240E+00)
 search vector abs. value=  0.126E+02
 bond charge predicted
       N       E                     dE             d eps       ncg     rms          rms(c)
DAV:   1    -0.698448630623E+03    0.72173E+00   -0.17523E+02 13664   0.202E+01    0.422E+00
RMM:   2    -0.699103268807E+03   -0.65464E+00   -0.40707E+00 13440   0.391E+00    0.772E+00
RMM:   3    -0.699363741764E+03   -0.26047E+00   -0.73833E-01 13804   0.154E+00    0.955E+00
RMM:   4    -0.698947567891E+03    0.41617E+00   -0.20788E-01 13849   0.852E-01    0.338E+00
RMM:   5    -0.698895602283E+03    0.51966E-01   -0.82638E-02 13955   0.501E-01    0.269E+00
RMM:   6    -0.698835038602E+03    0.60564E-01   -0.46363E-02 13500   0.366E-01    0.176E+00
RMM:   7    -0.698792621138E+03    0.42417E-01   -0.26801E-02 13531   0.280E-01    0.138E+00
RMM:   8    -0.698790949111E+03    0.16720E-02   -0.11242E-02 13509   0.189E-01    0.659E-01
RMM:   9    -0.698791057218E+03   -0.10811E-03   -0.37200E-03 13859   0.102E-01    0.245E-01
RMM:  10    -0.698794787985E+03   -0.37308E-02   -0.11960E-03 13327   0.472E-02    0.208E-01
RMM:  11    -0.698800596349E+03   -0.58084E-02   -0.39321E-04 10788   0.293E-02    0.167E-01
RMM:  12    -0.698810405847E+03   -0.98095E-02   -0.58468E-04 11142   0.309E-02    0.175E-01
RMM:  13    -0.698819446491E+03   -0.90406E-02   -0.44844E-04 10205   0.276E-02    0.158E-01
RMM:  14    -0.698829166019E+03   -0.97195E-02   -0.27364E-04  9525   0.206E-02    0.118E-01
RMM:  15    -0.698843030149E+03   -0.13864E-01   -0.38450E-04  9746   0.197E-02    0.116E-01
RMM:  16    -0.698859270000E+03   -0.16240E-01   -0.54826E-04 10213   0.226E-02    0.118E-01
RMM:  17    -0.698877939097E+03   -0.18669E-01   -0.89382E-04 10911   0.260E-02    0.850E-02
RMM:  18    -0.698886410555E+03   -0.84715E-02   -0.18675E-04  8774   0.145E-02    0.718E-02
RMM:  19    -0.698893254428E+03   -0.68439E-02   -0.83638E-05  7825   0.108E-02    0.423E-02
RMM:  20    -0.698900664017E+03   -0.74096E-02   -0.55683E-05  7861   0.893E-03    0.384E-02
RMM:  21    -0.698906886246E+03   -0.62222E-02   -0.35582E-05  7267   0.766E-03    0.279E-02
RMM:  22    -0.698913930224E+03   -0.70440E-02   -0.33363E-05  7449   0.692E-03    0.232E-02
RMM:  23    -0.698916525019E+03   -0.25948E-02   -0.13916E-05  6136   0.542E-03    0.219E-02
RMM:  24    -0.698919473284E+03   -0.29483E-02   -0.13383E-05  5904   0.460E-03    0.202E-02
RMM:  25    -0.698921203763E+03   -0.17305E-02   -0.92442E-06  5359   0.438E-03    0.177E-02
RMM:  26    -0.698922605485E+03   -0.14017E-02   -0.64614E-06  5470   0.406E-03    0.122E-02
RMM:  27    -0.698923701159E+03   -0.10957E-02   -0.49525E-06  4822   0.356E-03    0.104E-02
RMM:  28    -0.698924623489E+03   -0.92233E-03   -0.40483E-06  4243   0.328E-03    0.103E-02
RMM:  29    -0.698926020233E+03   -0.13967E-02   -0.93335E-06  5185   0.382E-03    0.993E-03
RMM:  30    -0.698927007767E+03   -0.98753E-03   -0.81406E-06  4609   0.361E-03    0.772E-03
RMM:  31    -0.698927542081E+03   -0.53431E-03   -0.51467E-06  4267   0.347E-03    0.687E-03
RMM:  32    -0.698928011170E+03   -0.46909E-03   -0.54471E-06  4200   0.338E-03    0.569E-03
RMM:  33    -0.698928275621E+03   -0.26445E-03   -0.36373E-06  3830   0.320E-03    0.436E-03
RMM:  34    -0.698928485614E+03   -0.20999E-03   -0.38650E-06  3823   0.316E-03    0.382E-03
RMM:  35    -0.698928535325E+03   -0.49710E-04   -0.16236E-06  3262   0.302E-03
   6 F= -.69892854E+03 E0= -.69830772E+03  d E =0.241898E+00  mag=     8.2885
 trial-energy change:    0.241898  1 .order   -0.070524   -1.087271    0.946223
 step:   0.0794(harm=  0.1284)  dis= 0.01219  next Energy=  -699.338897 (dE=-0.168E+00)
 bond charge predicted
       N       E                     dE             d eps       ncg     rms          rms(c)
DAV:   1    -0.699127104355E+03   -0.19862E+00   -0.78646E+01 13744   0.136E+01    0.272E+00
RMM:   2    -0.699405227930E+03   -0.27812E+00   -0.16910E+00 13440   0.253E+00    0.486E+00
RMM:   3    -0.699484818555E+03   -0.79591E-01   -0.32769E-01 13977   0.101E+00    0.578E+00
RMM:   4    -0.699344070949E+03    0.14075E+00   -0.86737E-02 13965   0.537E-01    0.202E+00
RMM:   5    -0.699336077518E+03    0.79934E-02   -0.32548E-02 13698   0.320E-01    0.204E+00
RMM:   6    -0.699304249873E+03    0.31828E-01   -0.22396E-02 13641   0.248E-01    0.131E+00
RMM:   7    -0.699259865839E+03    0.44384E-01   -0.14088E-02 13677   0.195E-01    0.614E-01
RMM:   8    -0.699250401544E+03    0.94643E-02   -0.53040E-03 13464   0.128E-01    0.431E-01
RMM:   9    -0.699250202788E+03    0.19876E-03   -0.14692E-03 13102   0.699E-02    0.279E-01
RMM:  10    -0.699252285923E+03   -0.20831E-02   -0.57691E-04 11390   0.324E-02    0.231E-01
RMM:  11    -0.699256481957E+03   -0.41960E-02   -0.29619E-04  9430   0.244E-02    0.137E-01
RMM:  12    -0.699262314377E+03   -0.58324E-02   -0.44589E-04 10038   0.265E-02    0.116E-01
RMM:  13    -0.699266196280E+03   -0.38819E-02   -0.18770E-04  8802   0.198E-02    0.856E-02
RMM:  14    -0.699271181110E+03   -0.49848E-02   -0.13050E-04  8370   0.146E-02    0.857E-02
RMM:  15    -0.699279821725E+03   -0.86406E-02   -0.26229E-04  9296   0.156E-02    0.820E-02
RMM:  16    -0.699288208575E+03   -0.83868E-02   -0.24404E-04  9003   0.159E-02    0.625E-02
RMM:  17    -0.699299123065E+03   -0.10914E-01   -0.37162E-04  9722   0.182E-02    0.738E-02
RMM:  18    -0.699303970093E+03   -0.48470E-02   -0.78062E-05  7675   0.111E-02    0.741E-02
RMM:  19    -0.699309766778E+03   -0.57967E-02   -0.63716E-05  7571   0.929E-03    0.553E-02
RMM:  20    -0.699316325338E+03   -0.65586E-02   -0.77632E-05  7806   0.930E-03    0.339E-02
RMM:  21    -0.699318945898E+03   -0.26206E-02   -0.29825E-05  6870   0.718E-03    0.240E-02
RMM:  22    -0.699321243157E+03   -0.22973E-02   -0.20054E-05  6035   0.573E-03    0.174E-02
RMM:  23    -0.699322844169E+03   -0.16010E-02   -0.11201E-05  5120   0.461E-03    0.186E-02
RMM:  24    -0.699324506065E+03   -0.16619E-02   -0.10300E-05  4962   0.424E-03    0.155E-02
RMM:  25    -0.699326152634E+03   -0.16466E-02   -0.14219E-05  6047   0.459E-03    0.181E-02
RMM:  26    -0.699326595780E+03   -0.44315E-03   -0.49753E-06  4464   0.392E-03    0.127E-02
RMM:  27    -0.699327069056E+03   -0.47328E-03   -0.25101E-06  3640   0.312E-03    0.105E-02
RMM:  28    -0.699327572223E+03   -0.50317E-03   -0.21912E-06  3577   0.310E-03    0.791E-03
RMM:  29    -0.699328528219E+03   -0.95600E-03   -0.62004E-06  4676   0.352E-03    0.692E-03
RMM:  30    -0.699329133245E+03   -0.60503E-03   -0.45922E-06  4063   0.323E-03    0.638E-03
RMM:  31    -0.699329421493E+03   -0.28825E-03   -0.25300E-06  3518   0.300E-03    0.574E-03
RMM:  32    -0.699329807284E+03   -0.38579E-03   -0.33273E-06  3565   0.305E-03    0.553E-03
RMM:  33    -0.699330122957E+03   -0.31567E-03   -0.38430E-06  3766   0.310E-03    0.386E-03
RMM:  34    -0.699330304095E+03   -0.18114E-03   -0.26950E-06  3476   0.305E-03    0.261E-03
RMM:  35    -0.699330393144E+03   -0.89049E-04   -0.21757E-06  3313   0.300E-03
   7 F= -.69933039E+03 E0= -.69871177E+03  d E =-.159960E+00  mag=     8.8838
 curvature:  -0.14 expect dE=-0.814E+00 dE for cont linesearch -0.542E-01
 ZBRENT: interpolating
 opt :   0.0536  next Energy=  -699.358416 (dE=-0.188E+00)
 bond charge predicted
       N       E                     dE             d eps       ncg     rms          rms(c)
DAV:   1    -0.699351005351E+03   -0.20701E-01   -0.20189E+00 13808   0.217E+00    0.448E-01
RMM:   2    -0.699356852849E+03   -0.58475E-02   -0.42658E-02 13440   0.402E-01    0.652E-01
RMM:   3    -0.699362130765E+03   -0.52779E-02   -0.82953E-03 13838   0.161E-01    0.115E+00
RMM:   4    -0.699356156588E+03    0.59742E-02   -0.21665E-03 13653   0.859E-02    0.349E-01
RMM:   5    -0.699356223940E+03   -0.67352E-04   -0.90443E-04 12714   0.518E-02    0.420E-01
RMM:   6    -0.699354736787E+03    0.14872E-02   -0.64120E-04 12241   0.423E-02    0.211E-01
RMM:   7    -0.699353518463E+03    0.12183E-02   -0.32990E-04  9927   0.317E-02    0.963E-02
RMM:   8    -0.699353296879E+03    0.22158E-03   -0.13846E-04  8256   0.224E-02    0.838E-02
RMM:   9    -0.699353256104E+03    0.40775E-04   -0.37258E-05  7730   0.133E-02
   8 F= -.69935326E+03 E0= -.69873504E+03  d E =-.182822E+00  mag=     8.9072
 curvature:  -0.07 expect dE=-0.328E+00 dE for cont linesearch -0.157E-02
 trial: gam= 0.45105 g(F)=  0.441E+01 g(S)=  0.000E+00 ort = 0.514E+00 (trialstep = 0.203E+00)
 search vector abs. value=  0.743E+01
 bond charge predicted
       N       E                     dE             d eps       ncg     rms          rms(c)
DAV:   1    -0.699022139770E+03    0.33116E+00   -0.76540E+01 13760   0.137E+01    0.259E+00
RMM:   2    -0.699339595836E+03   -0.31746E+00   -0.16723E+00 13440   0.244E+00    0.780E+00
RMM:   3    -0.699259294607E+03    0.80301E-01   -0.28095E-01 14197   0.968E-01    0.488E+00
RMM:   4    -0.699527143729E+03   -0.26785E+00   -0.78967E-02 13509   0.508E-01    0.840E+00
RMM:   5    -0.699227751031E+03    0.29939E+00   -0.28529E-02 13516   0.334E-01    0.347E+00
RMM:   6    -0.699219481102E+03    0.82699E-02   -0.15579E-02 14064   0.190E-01    0.327E+00
RMM:   7    -0.699229505021E+03   -0.10024E-01   -0.69164E-03 13500   0.138E-01    0.345E+00
RMM:   8    -0.699215868856E+03    0.13636E-01   -0.89392E-03 14361   0.153E-01    0.225E+00
RMM:   9    -0.699206952762E+03    0.89161E-02   -0.31273E-03 13167   0.888E-02    0.131E+00
RMM:  10    -0.699208777651E+03   -0.18249E-02   -0.81867E-04 12370   0.435E-02    0.137E+00
RMM:  11    -0.699212202188E+03   -0.34245E-02   -0.68833E-04 12321   0.388E-02    0.117E+00
RMM:  12    -0.699213778608E+03   -0.15764E-02   -0.92213E-04 13009   0.456E-02    0.774E-01
RMM:  13    -0.699214315231E+03   -0.53662E-03   -0.34578E-04 10507   0.303E-02    0.491E-01
RMM:  14    -0.699214736066E+03   -0.42083E-03   -0.17047E-04  8406   0.222E-02    0.370E-01
RMM:  15    -0.699215390177E+03   -0.65411E-03   -0.12854E-04  8227   0.191E-02    0.240E-01
RMM:  16    -0.699216251349E+03   -0.86117E-03   -0.11269E-04  8260   0.173E-02    0.852E-02
RMM:  17    -0.699216721307E+03   -0.46996E-03   -0.64284E-05  8064   0.140E-02    0.319E-02
RMM:  18    -0.699216827037E+03   -0.10573E-03   -0.21680E-05  7456   0.895E-03    0.199E-02
RMM:  19    -0.699217005128E+03   -0.17809E-03   -0.94711E-06  6464   0.512E-03    0.133E-02
RMM:  20    -0.699217140335E+03   -0.13521E-03   -0.32189E-06  5111   0.382E-03    0.914E-03
RMM:  21    -0.699217329009E+03   -0.18867E-03   -0.63236E-07  3250   0.276E-03    0.641E-03
RMM:  22    -0.699217474735E+03   -0.14573E-03   -0.20558E-07  2676   0.262E-03    0.400E-03
RMM:  23    -0.699217581422E+03   -0.10669E-03   -0.79682E-08  2292   0.259E-03    0.353E-03
RMM:  24    -0.699217678575E+03   -0.97153E-04   -0.57063E-08  2217   0.261E-03
   9 F= -.69921768E+03 E0= -.69859779E+03  d E =0.135578E+00  mag=     8.9291
 trial-energy change:    0.135578  1 .order   -0.229040   -0.940582    0.482502
 step:   0.1340(harm=  0.1340)  dis= 0.01529  next Energy=  -699.664093 (dE=-0.311E+00)
 bond charge predicted
       N       E                     dE             d eps       ncg     rms          rms(c)
DAV:   1    -0.699378573051E+03   -0.16099E+00   -0.88058E+00 13968   0.465E+00    0.871E-01
RMM:   2    -0.699408263308E+03   -0.29690E-01   -0.18362E-01 13440   0.818E-01    0.239E+00
RMM:   3    -0.699403721063E+03    0.45422E-02   -0.30795E-02 14236   0.321E-01    0.157E+00
RMM:   4    -0.699428432225E+03   -0.24711E-01   -0.94453E-03 13488   0.172E-01    0.254E+00
RMM:   5    -0.699399821540E+03    0.28611E-01   -0.29281E-03 13522   0.106E-01    0.938E-01
RMM:   6    -0.699399922248E+03   -0.10071E-03   -0.14839E-03 13205   0.577E-02    0.102E+00
RMM:   7    -0.699401618036E+03   -0.16958E-02   -0.75686E-04 12506   0.453E-02    0.115E+00
RMM:   8    -0.699399756949E+03    0.18611E-02   -0.10379E-03 13373   0.532E-02    0.718E-01
RMM:   9    -0.699399209049E+03    0.54790E-03   -0.34560E-04 10495   0.306E-02    0.473E-01
RMM:  10    -0.699399453156E+03   -0.24411E-03   -0.76267E-05  8122   0.178E-02    0.499E-01
RMM:  11    -0.699399686781E+03   -0.23362E-03   -0.42765E-05  7942   0.111E-02    0.445E-01
RMM:  12    -0.699399983104E+03   -0.29632E-03   -0.10828E-04  8138   0.150E-02    0.294E-01
RMM:  13    -0.699400100707E+03   -0.11760E-03   -0.35592E-05  7907   0.115E-02    0.230E-01
RMM:  14    -0.699400181307E+03   -0.80601E-04   -0.18621E-05  7317   0.711E-03
  10 F= -.69940018E+03 E0= -.69878072E+03  d E =-.469252E-01  mag=     8.9294
 curvature:  -0.11 expect dE=-0.366E+00 dE for cont linesearch -0.776E-01
 ZBRENT: interpolating
 opt :   0.0894  next Energy=  -699.451942 (dE=-0.987E-01)
 bond charge predicted
       N       E                     dE             d eps       ncg     rms          rms(c)
DAV:   1    -0.699468944717E+03   -0.68844E-01   -0.37258E+00 14048   0.303E+00    0.650E-01
RMM:   2    -0.699479640322E+03   -0.10696E-01   -0.78949E-02 13440   0.536E-01    0.145E+00
RMM:   3    -0.699481133448E+03   -0.14931E-02   -0.13594E-02 14252   0.212E-01    0.126E+00
RMM:   4    -0.699480441247E+03    0.69220E-03   -0.40566E-03 13440   0.118E-01    0.801E-01
RMM:   5    -0.699480304109E+03    0.13714E-03   -0.14632E-03 13040   0.695E-02    0.103E+00
RMM:   6    -0.699477578263E+03    0.27258E-02   -0.63589E-04 11869   0.437E-02    0.774E-01
RMM:   7    -0.699477307642E+03    0.27062E-03   -0.10949E-03 13033   0.476E-02    0.737E-01
RMM:   8    -0.699477531938E+03   -0.22430E-03   -0.40159E-04 10861   0.323E-02    0.714E-01
RMM:   9    -0.699477620232E+03   -0.88294E-04   -0.92481E-05  8068   0.201E-02
  11 F= -.69947762E+03 E0= -.69885817E+03  d E =-.124364E+00  mag=     8.9291
 curvature:  -0.07 expect dE=-0.177E+00 dE for cont linesearch -0.135E-01
 ZBRENT: interpolating
 opt :   0.0523  next Energy=  -699.503940 (dE=-0.151E+00)
 bond charge predicted
       N       E                     dE             d eps       ncg     rms          rms(c)
DAV:   1    -0.699489066995E+03   -0.11535E-01   -0.25617E+00 13920   0.251E+00    0.105E+00
RMM:   2    -0.699495783911E+03   -0.67169E-02   -0.59466E-02 13440   0.456E-01    0.149E+00
RMM:   3    -0.699497748238E+03   -0.19643E-02   -0.10868E-02 14377   0.185E-01    0.142E+00
RMM:   4    -0.699530709620E+03   -0.32961E-01   -0.71970E-03 13493   0.139E-01    0.242E+00
RMM:   5    -0.699497686782E+03    0.33023E-01   -0.57151E-03 13831   0.125E-01    0.156E+00
RMM:   6    -0.699494182845E+03    0.35039E-02   -0.13509E-03 12825   0.628E-02    0.141E+00
RMM:   7    -0.699494368736E+03   -0.18589E-03   -0.95347E-04 12723   0.486E-02    0.167E+00
RMM:   8    -0.699492545966E+03    0.18228E-02   -0.12802E-03 13815   0.541E-02    0.185E+00
RMM:   9    -0.699491363498E+03    0.11825E-02   -0.23058E-03 14483   0.657E-02    0.225E+00
RMM:  10    -0.699491732057E+03   -0.36856E-03   -0.14033E-03 13638   0.545E-02    0.287E+00
RMM:  11    -0.699492060205E+03   -0.32815E-03   -0.17737E-03 13589   0.608E-02    0.194E+00
RMM:  12    -0.699494389491E+03   -0.23293E-02   -0.64375E-03 17330   0.107E-01    0.754E-01
RMM:  13    -0.699495645152E+03   -0.12557E-02   -0.17772E-03 14086   0.590E-02    0.955E-02
RMM:  14    -0.699496043819E+03   -0.39867E-03   -0.28096E-04  9252   0.296E-02    0.116E-01
RMM:  15    -0.699496009319E+03    0.34499E-04   -0.58121E-05  8042   0.167E-02
  12 F= -.69949601E+03 E0= -.69887742E+03  d E =-.142753E+00  mag=     8.9534
 curvature:  -0.14 expect dE=-0.151E+00 dE for cont linesearch -0.603E-02
 ZBRENT: interpolating
 opt :   0.0643  next Energy=  -699.499398 (dE=-0.146E+00)
 bond charge predicted
       N       E                     dE             d eps       ncg     rms          rms(c)
DAV:   1    -0.699497264624E+03   -0.12208E-02   -0.26737E-01 14000   0.812E-01    0.196E-01
RMM:   2    -0.699499017503E+03   -0.17529E-02   -0.58269E-03 13435   0.145E-01    0.614E-01
RMM:   3    -0.699498646952E+03    0.37055E-03   -0.97573E-04 13075   0.575E-02    0.453E-01
RMM:   4    -0.699499281903E+03   -0.63495E-03   -0.43357E-04 10907   0.357E-02    0.515E-01
RMM:   5    -0.699498232018E+03    0.10499E-02   -0.14860E-04  8062   0.244E-02    0.222E-01
RMM:   6    -0.699498258675E+03   -0.26657E-04   -0.60439E-05  7696   0.151E-02    0.213E-01
RMM:   7    -0.699498388294E+03   -0.12962E-03   -0.20608E-05  7036   0.903E-03    0.243E-01
RMM:   8    -0.699498358701E+03    0.29593E-04   -0.32309E-05  7312   0.951E-03
  13 F= -.69949836E+03 E0= -.69887971E+03  d E =-.145103E+00  mag=     8.9561
 curvature:  -0.08 expect dE=-0.111E+00 dE for cont linesearch -0.608E-03
 trial: gam= 0.35127 g(F)=  0.141E+01 g(S)=  0.000E+00 ort =-0.239E+00 (trialstep = 0.175E+00)
 search vector abs. value=  0.216E+01
 bond charge predicted
       N       E                     dE             d eps       ncg     rms          rms(c)
DAV:   1    -0.699558768735E+03   -0.60380E-01   -0.16359E+01 13776   0.639E+00    0.116E+00
RMM:   2    -0.699684158722E+03   -0.12539E+00   -0.36640E-01 13440   0.117E+00    0.528E+00
RMM:   3    -0.699633125277E+03    0.51033E-01   -0.65637E-02 14507   0.470E-01    0.344E+00
RMM:   4    -0.699672070819E+03   -0.38946E-01   -0.17649E-02 13479   0.253E-01    0.409E+00
RMM:   5    -0.699604179146E+03    0.67892E-01   -0.73766E-03 13527   0.167E-01    0.213E+00
RMM:   6    -0.699597692621E+03    0.64865E-02   -0.38841E-03 13527   0.992E-02    0.181E+00
RMM:   7    -0.699599270682E+03   -0.15781E-02   -0.17125E-03 13060   0.686E-02    0.189E+00
RMM:   8    -0.699589931215E+03    0.93395E-02   -0.24308E-03 14213   0.756E-02    0.100E+00
RMM:   9    -0.699588711810E+03    0.12194E-02   -0.70337E-04 12165   0.454E-02    0.657E-01
RMM:  10    -0.699589750776E+03   -0.10390E-02   -0.20060E-04  8845   0.240E-02    0.654E-01
RMM:  11    -0.699591112802E+03   -0.13620E-02   -0.21246E-04  8735   0.225E-02    0.541E-01
RMM:  12    -0.699591923245E+03   -0.81044E-03   -0.19811E-04  8621   0.229E-02    0.369E-01
RMM:  13    -0.699592603929E+03   -0.68068E-03   -0.99143E-05  8141   0.188E-02    0.238E-01
RMM:  14    -0.699593151074E+03   -0.54715E-03   -0.57852E-05  8056   0.121E-02    0.169E-01
RMM:  15    -0.699593791551E+03   -0.64048E-03   -0.45602E-05  7782   0.108E-02    0.885E-02
RMM:  16    -0.699594292058E+03   -0.50051E-03   -0.31279E-05  7605   0.891E-03    0.329E-02
RMM:  17    -0.699594576873E+03   -0.28481E-03   -0.15120E-05  6801   0.641E-03    0.173E-02
RMM:  18    -0.699594806357E+03   -0.22948E-03   -0.79189E-06  5947   0.469E-03    0.132E-02
RMM:  19    -0.699594990492E+03   -0.18414E-03   -0.29190E-06  4332   0.356E-03    0.948E-03
RMM:  20    -0.699595120468E+03   -0.12998E-03   -0.96307E-07  3125   0.292E-03    0.756E-03
RMM:  21    -0.699595252612E+03   -0.13214E-03   -0.39566E-07  2597   0.278E-03    0.548E-03
RMM:  22    -0.699595463326E+03   -0.21071E-03   -0.47112E-07  2565   0.277E-03    0.462E-03
RMM:  23    -0.699595691633E+03   -0.22831E-03   -0.87015E-07  2769   0.285E-03    0.421E-03
RMM:  24    -0.699595905525E+03   -0.21389E-03   -0.13515E-06  3049   0.294E-03    0.410E-03
RMM:  25    -0.699596119960E+03   -0.21444E-03   -0.18399E-06  3262   0.301E-03    0.479E-03
RMM:  26    -0.699596249811E+03   -0.12985E-03   -0.10344E-06  2811   0.292E-03    0.419E-03
RMM:  27    -0.699596425841E+03   -0.17603E-03   -0.17050E-06  2948   0.297E-03    0.353E-03
RMM:  28    -0.699596482688E+03   -0.56846E-04   -0.11266E-06  2719   0.297E-03
  14 F= -.69959648E+03 E0= -.69897900E+03  d E =-.981240E-01  mag=     9.0365
 trial-energy change:   -0.098124  1 .order   -0.084711   -0.231760    0.062338
 step:   0.1448(harm=  0.1380)  dis= 0.00793  next Energy=  -699.601801 (dE=-0.103E+00)
 bond charge predicted
       N       E                     dE             d eps       ncg     rms          rms(c)
DAV:   1    -0.699600960481E+03   -0.45346E-02   -0.48855E-01 13904   0.110E+00    0.194E-01
RMM:   2    -0.699604608051E+03   -0.36476E-02   -0.10804E-02 13440   0.201E-01    0.913E-01
RMM:   3    -0.699602968803E+03    0.16392E-02   -0.19112E-03 14136   0.807E-02    0.565E-01
RMM:   4    -0.699604196838E+03   -0.12280E-02   -0.51661E-04 12282   0.433E-02    0.691E-01
RMM:   5    -0.699602192318E+03    0.20045E-02   -0.23402E-04  8790   0.294E-02    0.342E-01
RMM:   6    -0.699601999490E+03    0.19283E-03   -0.10260E-04  8120   0.198E-02    0.293E-01
RMM:   7    -0.699602025537E+03   -0.26047E-04   -0.46489E-05  7853   0.129E-02    0.311E-01
RMM:   8    -0.699601736061E+03    0.28948E-03   -0.59514E-05  7718   0.131E-02    0.159E-01
RMM:   9    -0.699601700344E+03    0.35717E-04   -0.25065E-05  7209   0.973E-03
  15 F= -.69960170E+03 E0= -.69898399E+03  d E =-.103342E+00  mag=     9.0339
 curvature:  -0.11 expect dE=-0.113E+00 dE for cont linesearch -0.168E-04
 trial: gam= 0.74223 g(F)=  0.104E+01 g(S)=  0.000E+00 ort =-0.183E-01 (trialstep = 0.166E+00)
 search vector abs. value=  0.220E+01
 bond charge predicted
       N       E                     dE             d eps       ncg     rms          rms(c)
DAV:   1    -0.699583827271E+03    0.17909E-01   -0.14662E+01 13744   0.601E+00    0.107E+00
RMM:   2    -0.699685416074E+03   -0.10159E+00   -0.32899E-01 13440   0.112E+00    0.437E+00
RMM:   3    -0.699628767416E+03    0.56649E-01   -0.61407E-02 14479   0.446E-01    0.198E+00
RMM:   4    -0.699665683551E+03   -0.36916E-01   -0.13691E-02 13619   0.226E-01    0.315E+00
RMM:   5    -0.699628334215E+03    0.37349E-01   -0.65146E-03 13530   0.153E-01    0.181E+00
RMM:   6    -0.699620531155E+03    0.78031E-02   -0.36126E-03 13444   0.103E-01    0.127E+00
RMM:   7    -0.699616166492E+03    0.43647E-02   -0.34579E-03 13570   0.858E-02    0.752E-01
RMM:   8    -0.699615283282E+03    0.88321E-03   -0.13933E-03 12771   0.608E-02    0.556E-01
RMM:   9    -0.699614819023E+03    0.46426E-03   -0.49856E-04 11236   0.358E-02    0.344E-01
RMM:  10    -0.699615257798E+03   -0.43877E-03   -0.17099E-04  8602   0.212E-02    0.284E-01
RMM:  11    -0.699615796262E+03   -0.53846E-03   -0.25308E-04  8749   0.239E-02    0.203E-01
RMM:  12    -0.699615984544E+03   -0.18828E-03   -0.10004E-04  8117   0.184E-02    0.114E-01
RMM:  13    -0.699616127749E+03   -0.14321E-03   -0.31052E-05  7831   0.115E-02    0.748E-02
RMM:  14    -0.699616348124E+03   -0.22037E-03   -0.15163E-05  7181   0.644E-03    0.538E-02
RMM:  15    -0.699616591481E+03   -0.24336E-03   -0.99387E-06  6734   0.535E-03    0.361E-02
RMM:  16    -0.699616863190E+03   -0.27171E-03   -0.86087E-06  6151   0.453E-03    0.152E-02
RMM:  17    -0.699616975117E+03   -0.11193E-03   -0.33509E-06  4815   0.365E-03    0.100E-02
RMM:  18    -0.699617102824E+03   -0.12771E-03   -0.14855E-06  3390   0.306E-03    0.874E-03
RMM:  19    -0.699617188032E+03   -0.85208E-04   -0.74469E-07  2851   0.294E-03
  16 F= -.69961719E+03 E0= -.69900005E+03  d E =-.154877E-01  mag=     9.0746
 trial-energy change:   -0.015488  1 .order   -0.015655   -0.169919    0.138610
 step:   0.0912(harm=  0.0912)  dis= 0.00502  next Energy=  -699.648491 (dE=-0.468E-01)
 bond charge predicted
       N       E                     dE             d eps       ncg     rms          rms(c)
DAV:   1    -0.699642514310E+03   -0.25411E-01   -0.29594E+00 13856   0.270E+00    0.484E-01
RMM:   2    -0.699660456494E+03   -0.17942E-01   -0.66316E-02 13440   0.501E-01    0.185E+00
RMM:   3    -0.699651889533E+03    0.85670E-02   -0.12442E-02 14567   0.199E-01    0.916E-01
RMM:   4    -0.699660639357E+03   -0.87498E-02   -0.28415E-03 13499   0.102E-01    0.151E+00
RMM:   5    -0.699651663565E+03    0.89758E-02   -0.13572E-03 13057   0.695E-02    0.766E-01
RMM:   6    -0.699650678241E+03    0.98532E-03   -0.65200E-04 12388   0.439E-02    0.564E-01
RMM:   7    -0.699650307497E+03    0.37074E-03   -0.59104E-04 11976   0.366E-02    0.414E-01
RMM:   8    -0.699650148616E+03    0.15888E-03   -0.29855E-04  9737   0.289E-02    0.310E-01
RMM:   9    -0.699649974387E+03    0.17423E-03   -0.11779E-04  8153   0.201E-02    0.179E-01
RMM:  10    -0.699650051659E+03   -0.77272E-04   -0.40967E-05  7788   0.122E-02
  17 F= -.69965005E+03 E0= -.69903274E+03  d E =-.483513E-01  mag=     9.0719
 curvature:  -0.10 expect dE=-0.140E+00 dE for cont linesearch -0.127E-06
 trial: gam= 1.17645 g(F)=  0.143E+01 g(S)=  0.000E+00 ort =-0.169E-02 (trialstep = 0.742E-01)
 search vector abs. value=  0.447E+01
 bond charge predicted
       N       E                     dE             d eps       ncg     rms          rms(c)
DAV:   1    -0.699675043250E+03   -0.25069E-01   -0.59920E+00 13840   0.381E+00    0.735E-01
RMM:   2    -0.699697735846E+03   -0.22693E-01   -0.13734E-01 13440   0.712E-01    0.204E+00
RMM:   3    -0.699692318896E+03    0.54170E-02   -0.25231E-02 14498   0.283E-01    0.118E+00
RMM:   4    -0.699697248099E+03   -0.49292E-02   -0.60182E-03 14594   0.133E-01    0.138E+00
RMM:   5    -0.699690876069E+03    0.63720E-02   -0.25852E-03 13305   0.864E-02    0.907E-01
RMM:   6    -0.699690072275E+03    0.80379E-03   -0.12915E-03 12958   0.637E-02    0.693E-01
RMM:   7    -0.699690117838E+03   -0.45563E-04   -0.16061E-03 13401   0.608E-02    0.481E-01
RMM:   8    -0.699689441544E+03    0.67629E-03   -0.66880E-04 12142   0.436E-02    0.300E-01
RMM:   9    -0.699689422852E+03    0.18693E-04   -0.18253E-04  8626   0.240E-02
  18 F= -.69968942E+03 E0= -.69907231E+03  d E =-.393712E-01  mag=     9.0658
 trial-energy change:   -0.039371  1 .order   -0.033560   -0.105925    0.038805
 step:   0.0574(harm=  0.0543)  dis= 0.00498  next Energy=  -699.693740 (dE=-0.437E-01)
 bond charge predicted
       N       E                     dE             d eps       ncg     rms          rms(c)
DAV:   1    -0.699693395747E+03   -0.39542E-02   -0.30623E-01 14080   0.861E-01    0.238E-01
RMM:   2    -0.699695810373E+03   -0.24146E-02   -0.73474E-03 13440   0.163E-01    0.713E-01
RMM:   3    -0.699695868041E+03   -0.57669E-04   -0.13485E-03 13284   0.735E-02    0.590E-01
RMM:   4    -0.699694087983E+03    0.17801E-02   -0.38001E-04 10338   0.368E-02    0.135E-01
RMM:   5    -0.699694177591E+03   -0.89608E-04   -0.11679E-04  7852   0.207E-02    0.154E-01
RMM:   6    -0.699694254361E+03   -0.76770E-04   -0.90525E-05  7533   0.172E-02    0.125E-01
RMM:   7    -0.699694340355E+03   -0.85995E-04   -0.12029E-04  7620   0.179E-02    0.759E-02
RMM:   8    -0.699694355443E+03   -0.15088E-04   -0.36563E-05  7134   0.129E-02
  19 F= -.69969436E+03 E0= -.69907718E+03  d E =-.443038E-01  mag=     9.0618
 curvature:  -0.08 expect dE=-0.927E-01 dE for cont linesearch -0.239E-04
 trial: gam= 0.42491 g(F)=  0.112E+01 g(S)=  0.000E+00 ort =-0.359E-01 (trialstep = 0.709E-01)
 search vector abs. value=  0.189E+01
 bond charge predicted
       N       E                     dE             d eps       ncg     rms          rms(c)
DAV:   1    -0.699740009506E+03   -0.45669E-01   -0.23693E+00 13872   0.246E+00    0.418E-01
RMM:   2    -0.699747172976E+03   -0.71635E-02   -0.51704E-02 13440   0.444E-01    0.121E+00
RMM:   3    -0.699745184212E+03    0.19888E-02   -0.92216E-03 14451   0.177E-01    0.540E-01
RMM:   4    -0.699754423753E+03   -0.92395E-02   -0.24300E-03 13474   0.901E-02    0.150E+00
RMM:   5    -0.699745348624E+03    0.90751E-02   -0.81783E-04 12729   0.588E-02    0.693E-01
RMM:   6    -0.699744335548E+03    0.10131E-02   -0.48405E-04 11358   0.341E-02    0.530E-01
RMM:   7    -0.699743553715E+03    0.78183E-03   -0.35021E-04 10645   0.324E-02    0.416E-01
RMM:   8    -0.699743265964E+03    0.28775E-03   -0.18591E-04  8513   0.248E-02    0.347E-01
RMM:   9    -0.699743110363E+03    0.15560E-03   -0.86316E-05  8002   0.176E-02    0.212E-01
RMM:  10    -0.699743268523E+03   -0.15816E-03   -0.27061E-05  7600   0.103E-02    0.184E-01
RMM:  11    -0.699743512444E+03   -0.24392E-03   -0.19862E-05  7565   0.721E-03    0.163E-01
RMM:  12    -0.699743796159E+03   -0.28371E-03   -0.29065E-05  7653   0.807E-03    0.970E-02
RMM:  13    -0.699743965806E+03   -0.16965E-03   -0.11122E-05  6986   0.634E-03    0.554E-02
RMM:  14    -0.699744128645E+03   -0.16284E-03   -0.58786E-06  5779   0.433E-03    0.385E-02
RMM:  15    -0.699744321086E+03   -0.19244E-03   -0.32406E-06  4247   0.340E-03    0.249E-02
RMM:  16    -0.699744605535E+03   -0.28445E-03   -0.44585E-06  4661   0.356E-03    0.130E-02
RMM:  17    -0.699744811447E+03   -0.20591E-03   -0.32425E-06  4166   0.335E-03    0.932E-03
RMM:  18    -0.699744967531E+03   -0.15608E-03   -0.23787E-06  3739   0.319E-03    0.107E-02
RMM:  19    -0.699745091220E+03   -0.12369E-03   -0.11423E-06  2945   0.292E-03    0.106E-02
RMM:  20    -0.699745192690E+03   -0.10147E-03   -0.64952E-07  2539   0.282E-03    0.971E-03
RMM:  21    -0.699745525548E+03   -0.33286E-03   -0.35915E-06  3682   0.309E-03    0.618E-03
RMM:  22    -0.699745745839E+03   -0.22029E-03   -0.26912E-06  3562   0.306E-03    0.538E-03
RMM:  23    -0.699745878761E+03   -0.13292E-03   -0.18462E-06  3309   0.301E-03    0.490E-03
RMM:  24    -0.699745967973E+03   -0.89211E-04   -0.13462E-06  2909   0.291E-03
  20 F= -.69974597E+03 E0= -.69912838E+03  d E =-.516125E-01  mag=     9.0077
 trial-energy change:   -0.051613  1 .order   -0.052973   -0.078084   -0.027862
 step:   0.1262(harm=  0.1102)  dis= 0.00741  next Energy=  -699.756198 (dE=-0.618E-01)
 bond charge predicted
       N       E                     dE             d eps       ncg     rms          rms(c)
DAV:   1    -0.699752455456E+03   -0.65767E-02   -0.14446E+00 13920   0.192E+00    0.328E-01
RMM:   2    -0.699757135743E+03   -0.46803E-02   -0.31596E-02 13440   0.347E-01    0.996E-01
RMM:   3    -0.699755688590E+03    0.14472E-02   -0.56391E-03 14419   0.139E-01    0.443E-01
RMM:   4    -0.699761411861E+03   -0.57233E-02   -0.14947E-03 13403   0.709E-02    0.118E+00
RMM:   5    -0.699755835408E+03    0.55765E-02   -0.51391E-04 12126   0.464E-02    0.564E-01
RMM:   6    -0.699755243938E+03    0.59147E-03   -0.27911E-04  9481   0.270E-02    0.451E-01
RMM:   7    -0.699754598063E+03    0.64587E-03   -0.22659E-04  8827   0.267E-02    0.334E-01
RMM:   8    -0.699754326341E+03    0.27172E-03   -0.11839E-04  8052   0.202E-02    0.264E-01
RMM:   9    -0.699754225948E+03    0.10039E-03   -0.48026E-05  7886   0.135E-02    0.171E-01
RMM:  10    -0.699754293816E+03   -0.67868E-04   -0.15155E-05  7219   0.775E-03
  21 F= -.69975429E+03 E0= -.69913650E+03  d E =-.599384E-01  mag=     8.9933
 curvature:  -0.08 expect dE=-0.873E-01 dE for cont linesearch -0.427E-04
 trial: gam= 0.96185 g(F)=  0.111E+01 g(S)=  0.000E+00 ort =-0.320E-01 (trialstep = 0.555E-01)
 search vector abs. value=  0.280E+01
 bond charge predicted
       N       E                     dE             d eps       ncg     rms          rms(c)
DAV:   1    -0.699794288073E+03   -0.40062E-01   -0.21329E+00 13808   0.231E+00    0.432E-01
RMM:   2    -0.699798307571E+03   -0.40195E-02   -0.44876E-02 13440   0.413E-01    0.495E-01
RMM:   3    -0.699803785513E+03   -0.54779E-02   -0.77279E-03 13822   0.165E-01    0.107E+00
RMM:   4    -0.699799828025E+03    0.39575E-02   -0.19959E-03 15304   0.780E-02    0.595E-01
RMM:   5    -0.699799912506E+03   -0.84480E-04   -0.76545E-04 12669   0.468E-02    0.683E-01
RMM:   6    -0.699798153740E+03    0.17588E-02   -0.57798E-04 12067   0.442E-02    0.219E-01
RMM:   7    -0.699798239331E+03   -0.85591E-04   -0.41383E-04 11072   0.330E-02    0.181E-01
RMM:   8    -0.699798196733E+03    0.42598E-04   -0.13695E-04  8122   0.245E-02
  22 F= -.69979820E+03 E0= -.69918036E+03  d E =-.439029E-01  mag=     8.9795
 trial-energy change:   -0.043903  1 .order   -0.044092   -0.059634   -0.028550
 step:   0.1064(harm=  0.1064)  dis= 0.00939  next Energy=  -699.811497 (dE=-0.572E-01)
 bond charge predicted
       N       E                     dE             d eps       ncg     rms          rms(c)
DAV:   1    -0.699798144884E+03    0.94446E-04   -0.17945E+00 13888   0.212E+00    0.386E-01
RMM:   2    -0.699801739106E+03   -0.35942E-02   -0.37881E-02 13440   0.380E-01    0.489E-01
RMM:   3    -0.699806283442E+03   -0.45443E-02   -0.66603E-03 13786   0.153E-01    0.101E+00
RMM:   4    -0.699802479842E+03    0.38036E-02   -0.17141E-03 14961   0.734E-02    0.509E-01
RMM:   5    -0.699803092182E+03   -0.61234E-03   -0.67450E-04 12529   0.437E-02    0.693E-01
RMM:   6    -0.699801206291E+03    0.18859E-02   -0.39864E-04 11040   0.382E-02    0.207E-01
RMM:   7    -0.699801380783E+03   -0.17449E-03   -0.33121E-04 10208   0.296E-02    0.185E-01
RMM:   8    -0.699801426608E+03   -0.45824E-04   -0.11123E-04  8052   0.221E-02
  23 F= -.69980143E+03 E0= -.69918344E+03  d E =-.471328E-01  mag=     8.9627
 curvature:  -0.14 expect dE=-0.304E+00 dE for cont linesearch -0.427E-02
 ZBRENT: interpolating
 opt :   0.0879  next Energy=  -699.804146 (dE=-0.499E-01)
 bond charge predicted
       N       E                     dE             d eps       ncg     rms          rms(c)
DAV:   1    -0.699804181549E+03   -0.28008E-02   -0.23813E-01 14032   0.773E-01    0.141E-01
RMM:   2    -0.699808371028E+03   -0.41895E-02   -0.51116E-03 13438   0.139E-01    0.811E-01
RMM:   3    -0.699805510368E+03    0.28607E-02   -0.82455E-04 13066   0.584E-02    0.139E-01
RMM:   4    -0.699806081720E+03   -0.57135E-03   -0.23747E-04  8623   0.284E-02    0.215E-01
RMM:   5    -0.699806244463E+03   -0.16274E-03   -0.93716E-05  7592   0.214E-02    0.196E-01
RMM:   6    -0.699806659766E+03   -0.41530E-03   -0.60274E-05  7467   0.130E-02    0.159E-01
RMM:   7    -0.699806957668E+03   -0.29790E-03   -0.48313E-05  7353   0.129E-02    0.887E-02
RMM:   8    -0.699807073968E+03   -0.11630E-03   -0.19218E-05  6803   0.900E-03    0.429E-02
RMM:   9    -0.699807154886E+03   -0.80918E-04   -0.48023E-06  5658   0.450E-03
  24 F= -.69980715E+03 E0= -.69918902E+03  d E =-.528611E-01  mag=     8.9496
 curvature:  -0.09 expect dE=-0.156E+00 dE for cont linesearch -0.360E-04
 trial: gam= 1.55428 g(F)=  0.177E+01 g(S)=  0.000E+00 ort =-0.338E-01 (trialstep = 0.206E-01)
 search vector abs. value=  0.842E+01
 bond charge predicted
       N       E                     dE             d eps       ncg     rms          rms(c)
DAV:   1    -0.699833972943E+03   -0.26899E-01   -0.88222E-01 13872   0.144E+00    0.257E-01
RMM:   2    -0.699837018973E+03   -0.30460E-02   -0.18075E-02 13440   0.251E-01    0.831E-01
RMM:   3    -0.699835604933E+03    0.14140E-02   -0.29852E-03 13976   0.100E-01    0.310E-01
RMM:   4    -0.699838272543E+03   -0.26676E-02   -0.85251E-04 12932   0.522E-02    0.792E-01
RMM:   5    -0.699835620174E+03    0.26524E-02   -0.32360E-04 10273   0.357E-02    0.408E-01
RMM:   6    -0.699835125396E+03    0.49478E-03   -0.15386E-04  8361   0.222E-02    0.287E-01
RMM:   7    -0.699834936694E+03    0.18870E-03   -0.12484E-04  8149   0.189E-02    0.224E-01
RMM:   8    -0.699834916762E+03    0.19932E-04   -0.59053E-05  7659   0.141E-02
  25 F= -.69983492E+03 E0= -.69921685E+03  d E =-.277619E-01  mag=     8.9333
 trial-energy change:   -0.027762  1 .order   -0.028580   -0.035320   -0.021839
 step:   0.0539(harm=  0.0539)  dis= 0.00582  next Energy=  -699.853422 (dE=-0.463E-01)
 bond charge predicted
       N       E                     dE             d eps       ncg     rms          rms(c)
DAV:   1    -0.699846942858E+03   -0.12006E-01   -0.23151E+00 13776   0.234E+00    0.455E-01
RMM:   2    -0.699850628786E+03   -0.36859E-02   -0.47176E-02 13440   0.407E-01    0.794E-01
RMM:   3    -0.699851216676E+03   -0.58789E-03   -0.79614E-03 14318   0.160E-01    0.399E-01
RMM:   4    -0.699865527659E+03   -0.14311E-01   -0.27927E-03 13412   0.875E-02    0.181E+00
RMM:   5    -0.699850949849E+03    0.14578E-01   -0.89043E-04 12617   0.625E-02    0.589E-01
RMM:   6    -0.699849904800E+03    0.10450E-02   -0.44518E-04 10637   0.321E-02    0.447E-01
RMM:   7    -0.699849408859E+03    0.49594E-03   -0.26996E-04  9610   0.283E-02    0.407E-01
RMM:   8    -0.699849068722E+03    0.34014E-03   -0.16508E-04  8364   0.231E-02    0.292E-01
RMM:   9    -0.699849136495E+03   -0.67772E-04   -0.74827E-05  8031   0.158E-02
  26 F= -.69984914E+03 E0= -.69923099E+03  d E =-.419816E-01  mag=     8.9068
 curvature:  -0.13 expect dE=-0.200E+00 dE for cont linesearch -0.440E-04
 trial: gam= 0.33095 g(F)=  0.151E+01 g(S)=  0.000E+00 ort =-0.529E-01 (trialstep = 0.273E-01)
 search vector abs. value=  0.240E+01
 bond charge predicted
       N       E                     dE             d eps       ncg     rms          rms(c)
DAV:   1    -0.699881576330E+03   -0.32508E-01   -0.44640E-01 13920   0.105E+00    0.325E-01
RMM:   2    -0.699882647966E+03   -0.10716E-02   -0.98739E-03 13440   0.188E-01    0.398E-01
RMM:   3    -0.699883402180E+03   -0.75421E-03   -0.16032E-03 13490   0.743E-02    0.483E-01
RMM:   4    -0.699882984248E+03    0.41793E-03   -0.43624E-04 10103   0.347E-02    0.364E-01
RMM:   5    -0.699884499195E+03   -0.15149E-02   -0.32988E-04 10238   0.311E-02    0.568E-01
RMM:   6    -0.699883613722E+03    0.88547E-03   -0.37394E-04 10633   0.349E-02    0.300E-01
RMM:   7    -0.699883994828E+03   -0.38111E-03   -0.35124E-04 10150   0.321E-02    0.211E-01
RMM:   8    -0.699883907779E+03    0.87049E-04   -0.97037E-05  7756   0.200E-02
  27 F= -.69988391E+03 E0= -.69926568E+03  d E =-.347713E-01  mag=     8.8850
 trial-energy change:   -0.034771  1 .order   -0.033007   -0.040645   -0.025369
 step:   0.0477(harm=  0.0725)  dis= 0.00240  next Energy=  -699.894171 (dE=-0.450E-01)
 bond charge predicted
       N       E                     dE             d eps       ncg     rms          rms(c)
DAV:   1    -0.699898139794E+03   -0.14145E-01   -0.25186E-01 13920   0.787E-01    0.167E-01
RMM:   2    -0.699898726226E+03   -0.58643E-03   -0.56529E-03 13440   0.142E-01    0.254E-01
RMM:   3    -0.699898861097E+03   -0.13487E-03   -0.91028E-04 12890   0.553E-02    0.135E-01
RMM:   4    -0.699899548947E+03   -0.68785E-03   -0.29274E-04  9284   0.293E-02    0.335E-01
RMM:   5    -0.699899424074E+03    0.12487E-03   -0.16266E-04  8131   0.239E-02    0.314E-01
RMM:   6    -0.699899174929E+03    0.24915E-03   -0.52408E-05  7694   0.152E-02    0.149E-01
RMM:   7    -0.699899325730E+03   -0.15080E-03   -0.31730E-05  7153   0.920E-03    0.853E-02
RMM:   8    -0.699899607156E+03   -0.28143E-03   -0.16942E-05  6772   0.811E-03    0.704E-02
RMM:   9    -0.699899832345E+03   -0.22519E-03   -0.69570E-06  6280   0.525E-03    0.403E-02
RMM:  10    -0.699900008024E+03   -0.17568E-03   -0.18378E-06  3531   0.311E-03    0.284E-02
RMM:  11    -0.699900385417E+03   -0.37739E-03   -0.30331E-06  3733   0.319E-03    0.258E-02
RMM:  12    -0.699901115469E+03   -0.73005E-03   -0.10584E-05  5416   0.411E-03    0.157E-02
RMM:  13    -0.699901542002E+03   -0.42653E-03   -0.53895E-06  4271   0.357E-03    0.114E-02
RMM:  14    -0.699901876018E+03   -0.33402E-03   -0.43994E-06  4246   0.350E-03    0.130E-02
RMM:  15    -0.699902129847E+03   -0.25383E-03   -0.24415E-06  3185   0.308E-03    0.152E-02
RMM:  16    -0.699902668772E+03   -0.53892E-03   -0.68365E-06  4381   0.348E-03    0.168E-02
RMM:  17    -0.699902993194E+03   -0.32442E-03   -0.34766E-06  3638   0.320E-03    0.133E-02
RMM:  18    -0.699903331793E+03   -0.33860E-03   -0.42872E-06  3877   0.329E-03    0.967E-03
RMM:  19    -0.699903652126E+03   -0.32033E-03   -0.52209E-06  4129   0.336E-03    0.899E-03
RMM:  20    -0.699903914577E+03   -0.26245E-03   -0.48249E-06  4065   0.338E-03    0.695E-03
RMM:  21    -0.699904029887E+03   -0.11531E-03   -0.25216E-06  3490   0.322E-03    0.449E-03
RMM:  22    -0.699904108659E+03   -0.78772E-04   -0.16376E-06  2976   0.298E-03
  28 F= -.69990411E+03 E0= -.69928583E+03  d E =-.549722E-01  mag=     8.8079
 curvature:  -0.04 expect dE=-0.317E-01 dE for cont linesearch -0.502E-02
 ZBRENT: increasing intervall
 opt :   0.0886  next Energy=  -699.910470 (dE=-0.613E-01)
 bond charge predicted
       N       E                     dE             d eps       ncg     rms          rms(c)
DAV:   1    -0.699909615333E+03   -0.55854E-02   -0.10055E+00 13824   0.157E+00    0.322E-01
RMM:   2    -0.699912399898E+03   -0.27846E-02   -0.21643E-02 13440   0.280E-01    0.779E-01
RMM:   3    -0.699912286877E+03    0.11302E-03   -0.36777E-03 14213   0.109E-01    0.509E-01
RMM:   4    -0.699916234155E+03   -0.39473E-02   -0.12509E-03 12947   0.624E-02    0.101E+00
RMM:   5    -0.699911951954E+03    0.42822E-02   -0.39845E-04 10805   0.380E-02    0.360E-01
RMM:   6    -0.699911886808E+03    0.65146E-04   -0.16569E-04  8563   0.208E-02    0.403E-01
RMM:   7    -0.699911701228E+03    0.18558E-03   -0.14353E-04  8128   0.208E-02    0.377E-01
RMM:   8    -0.699911340272E+03    0.36096E-03   -0.98686E-05  7917   0.190E-02    0.267E-01
RMM:   9    -0.699911257777E+03    0.82494E-04   -0.40112E-05  7565   0.120E-02
  29 F= -.69991126E+03 E0= -.69929291E+03  d E =-.621213E-01  mag=     8.7996
 curvature:  -0.05 expect dE=-0.925E-01 dE for cont linesearch -0.519E-03
 trial: gam= 1.19554 g(F)=  0.179E+01 g(S)=  0.000E+00 ort =-0.155E+00 (trialstep = 0.195E-01)
 search vector abs. value=  0.484E+01
 bond charge predicted
       N       E                     dE             d eps       ncg     rms          rms(c)
DAV:   1    -0.699932086556E+03   -0.20746E-01   -0.45766E-01 13712   0.107E+00    0.374E-01
RMM:   2    -0.699933312803E+03   -0.12262E-02   -0.10149E-02 13440   0.193E-01    0.343E-01
RMM:   3    -0.699939792635E+03   -0.64798E-02   -0.23166E-03 13377   0.854E-02    0.121E+00
RMM:   4    -0.699934670732E+03    0.51219E-02   -0.55090E-04 11728   0.476E-02    0.649E-01
RMM:   5    -0.699934507361E+03    0.16337E-03   -0.28173E-04  9592   0.290E-02    0.535E-01
RMM:   6    -0.699933478907E+03    0.10285E-02   -0.53785E-04 11151   0.361E-02    0.233E-01
RMM:   7    -0.699933326134E+03    0.15277E-03   -0.16592E-04  8249   0.235E-02    0.136E-01
RMM:   8    -0.699933305865E+03    0.20269E-04   -0.55384E-05  7701   0.157E-02
  30 F= -.69993331E+03 E0= -.69931496E+03  d E =-.220481E-01  mag=     8.7925
 trial-energy change:   -0.022048  1 .order   -0.021583   -0.031390   -0.011776
 step:   0.0292(harm=  0.0313)  dis= 0.00153  next Energy=  -699.936277 (dE=-0.250E-01)
 bond charge predicted
       N       E                     dE             d eps       ncg     rms          rms(c)
DAV:   1    -0.699935992734E+03   -0.26666E-02   -0.11206E-01 14016   0.527E-01    0.131E-01
RMM:   2    -0.699937186947E+03   -0.11942E-02   -0.24973E-03 13440   0.956E-02    0.408E-01
RMM:   3    -0.699936824320E+03    0.36263E-03   -0.50126E-04 11817   0.424E-02    0.362E-01
RMM:   4    -0.699936472396E+03    0.35192E-03   -0.13374E-04  7979   0.229E-02    0.220E-01
RMM:   5    -0.699936411515E+03    0.60880E-04   -0.36679E-05  7543   0.135E-02    0.187E-01
RMM:   6    -0.699936389736E+03    0.21779E-04   -0.38105E-05  7440   0.974E-03    0.128E-01
RMM:   7    -0.699936415148E+03   -0.25412E-04   -0.27036E-05  7191   0.102E-02    0.812E-02
RMM:   8    -0.699936429636E+03   -0.14488E-04   -0.12840E-05  6550   0.721E-03
  31 F= -.69993643E+03 E0= -.69931799E+03  d E =-.251719E-01  mag=     8.7865
 curvature:  -0.05 expect dE=-0.246E-01 dE for cont linesearch -0.190E-05
 trial: gam= 0.01161 g(F)=  0.539E+00 g(S)=  0.000E+00 ort = 0.142E-01 (trialstep = 0.215E-01)
 search vector abs. value=  0.540E+00
 bond charge predicted
       N       E                     dE             d eps       ncg     rms          rms(c)
DAV:   1    -0.699945757560E+03   -0.93424E-02   -0.63534E-02 14080   0.406E-01    0.700E-02
RMM:   2    -0.699946423974E+03   -0.66641E-03   -0.15084E-03 13418   0.753E-02    0.366E-01
RMM:   3    -0.699946024779E+03    0.39920E-03   -0.25171E-04  8659   0.302E-02    0.151E-01
RMM:   4    -0.699946115333E+03   -0.90555E-04   -0.57612E-05  7534   0.179E-02    0.197E-01
RMM:   5    -0.699946120833E+03   -0.54997E-05   -0.19646E-05  7256   0.869E-03    0.158E-01
RMM:   6    -0.699946161553E+03   -0.40720E-04   -0.19277E-05  7025   0.789E-03    0.131E-01
RMM:   7    -0.699946211059E+03   -0.49506E-04   -0.19519E-05  7073   0.818E-03    0.525E-02
RMM:   8    -0.699946256651E+03   -0.45592E-04   -0.59119E-06  6342   0.503E-03
  32 F= -.69994626E+03 E0= -.69932779E+03  d E =-.982702E-02  mag=     8.7813
 trial-energy change:   -0.009827  1 .order   -0.009490   -0.011577   -0.007403
 step:   0.0596(harm=  0.0596)  dis= 0.00282  next Energy=  -699.952486 (dE=-0.161E-01)
 bond charge predicted
       N       E                     dE             d eps       ncg     rms          rms(c)
DAV:   1    -0.699952902658E+03   -0.66916E-02   -0.19972E-01 13936   0.720E-01    0.127E-01
RMM:   2    -0.699953504322E+03   -0.60166E-03   -0.46025E-03 13440   0.132E-01    0.344E-01
RMM:   3    -0.699953536559E+03   -0.32238E-04   -0.80815E-04 13138   0.518E-02    0.265E-01
RMM:   4    -0.699953671991E+03   -0.13543E-03   -0.20525E-04  8550   0.289E-02    0.209E-01
RMM:   5    -0.699953540514E+03    0.13148E-03   -0.67877E-05  7752   0.176E-02    0.200E-01
RMM:   6    -0.699953548047E+03   -0.75330E-05   -0.21218E-05  7346   0.847E-03    0.178E-01
RMM:   7    -0.699953617717E+03   -0.69670E-04   -0.26962E-05  7337   0.852E-03    0.147E-01
RMM:   8    -0.699953655371E+03   -0.37654E-04   -0.23932E-05  7010   0.947E-03
  33 F= -.69995366E+03 E0= -.69933533E+03  d E =-.172257E-01  mag=     8.7781
 curvature:  -0.03 expect dE=-0.575E-02 dE for cont linesearch -0.524E-04
 trial: gam= 0.30234 g(F)=  0.193E+00 g(S)=  0.000E+00 ort = 0.308E-01 (trialstep = 0.291E-01)
 search vector abs. value=  0.261E+00
 bond charge predicted
       N       E                     dE             d eps       ncg     rms          rms(c)
DAV:   1    -0.699958308440E+03   -0.46907E-02   -0.53416E-02 14144   0.364E-01    0.101E-01
RMM:   2    -0.699958643480E+03   -0.33504E-03   -0.12805E-03 13418   0.706E-02    0.230E-01
RMM:   3    -0.699958501913E+03    0.14157E-03   -0.24817E-04  8405   0.285E-02    0.125E-01
RMM:   4    -0.699958604032E+03   -0.10212E-03   -0.89412E-05  7684   0.201E-02    0.178E-01
RMM:   5    -0.699958496484E+03    0.10755E-03   -0.42300E-05  7391   0.140E-02    0.102E-01
RMM:   6    -0.699958482013E+03    0.14470E-04   -0.19741E-05  7100   0.843E-03    0.758E-02
RMM:   7    -0.699958481870E+03    0.14360E-06   -0.80584E-06  6402   0.582E-03    0.643E-02
RMM:   8    -0.699958470722E+03    0.11148E-04   -0.62580E-06  6064   0.472E-03
  34 F= -.69995847E+03 E0= -.69934009E+03  d E =-.481535E-02  mag=     8.7742
 trial-energy change:   -0.004815  1 .order   -0.004763   -0.005884   -0.003643
 step:   0.0764(harm=  0.0764)  dis= 0.00171  next Energy=  -699.961379 (dE=-0.772E-02)
 bond charge predicted
       N       E                     dE             d eps       ncg     rms          rms(c)
DAV:   1    -0.699960824008E+03   -0.23421E-02   -0.14114E-01 13920   0.592E-01    0.122E-01
RMM:   2    -0.699961257878E+03   -0.43387E-03   -0.31925E-03 13440   0.113E-01    0.224E-01
RMM:   3    -0.699961304119E+03   -0.46241E-04   -0.62342E-04 12857   0.450E-02    0.182E-01
RMM:   4    -0.699961202349E+03    0.10177E-03   -0.13642E-04  8031   0.226E-02    0.122E-01
RMM:   5    -0.699961153108E+03    0.49241E-04   -0.57547E-05  7763   0.170E-02    0.947E-02
RMM:   6    -0.699961124845E+03    0.28263E-04   -0.42798E-05  7598   0.119E-02    0.721E-02
RMM:   7    -0.699961094278E+03    0.30566E-04   -0.27154E-05  7283   0.102E-02    0.534E-02
RMM:   8    -0.699961079248E+03    0.15031E-04   -0.12392E-05  6628   0.697E-03
  35 F= -.69996108E+03 E0= -.69934272E+03  d E =-.742388E-02  mag=     8.7689
 curvature:  -0.05 expect dE=-0.119E-01 dE for cont linesearch -0.308E-04
 trial: gam= 1.34278 g(F)=  0.241E+00 g(S)=  0.000E+00 ort =-0.128E-01 (trialstep = 0.148E-01)
 search vector abs. value=  0.677E+00
 bond charge predicted
       N       E                     dE             d eps       ncg     rms          rms(c)
DAV:   1    -0.699963885924E+03   -0.27916E-02   -0.34761E-02 14112   0.286E-01    0.570E-02
RMM:   2    -0.699963978719E+03   -0.92794E-04   -0.77054E-04 13236   0.546E-02    0.105E-01
RMM:   3    -0.699964008361E+03   -0.29643E-04   -0.15226E-04  7829   0.227E-02    0.999E-02
RMM:   4    -0.699963977830E+03    0.30531E-04   -0.38847E-05  7384   0.150E-02    0.501E-02
RMM:   5    -0.699963984727E+03   -0.68969E-05   -0.13804E-05  7145   0.662E-03    0.425E-02
RMM:   6    -0.699963993217E+03   -0.84899E-05   -0.73845E-06  6404   0.557E-03    0.388E-02
RMM:   7    -0.699964002936E+03   -0.97190E-05   -0.53928E-06  6301   0.455E-03    0.202E-02
RMM:   8    -0.699964013873E+03   -0.10937E-04   -0.35082E-06  4983   0.377E-03
  36 F= -.69996401E+03 E0= -.69934573E+03  d E =-.293462E-02  mag=     8.7643
 trial-energy change:   -0.002935  1 .order   -0.002893   -0.003330   -0.002457
 step:   0.0566(harm=  0.0566)  dis= 0.00154  next Energy=  -699.967428 (dE=-0.635E-02)
 bond charge predicted
       N       E                     dE             d eps       ncg     rms          rms(c)
DAV:   1    -0.699967280256E+03   -0.32773E-02   -0.27513E-01 13776   0.803E-01    0.150E-01
RMM:   2    -0.699968178375E+03   -0.89812E-03   -0.60265E-03 13440   0.152E-01    0.349E-01
RMM:   3    -0.699968078171E+03    0.10020E-03   -0.12195E-03 13996   0.624E-02    0.220E-01
RMM:   4    -0.699968177395E+03   -0.99225E-04   -0.28822E-04  9106   0.299E-02    0.252E-01
RMM:   5    -0.699967924154E+03    0.25324E-03   -0.10552E-04  8012   0.226E-02    0.124E-01
RMM:   6    -0.699967943806E+03   -0.19651E-04   -0.66910E-05  7875   0.153E-02    0.114E-01
RMM:   7    -0.699967901828E+03    0.41978E-04   -0.53334E-05  7650   0.137E-02    0.589E-02
RMM:   8    -0.699967895845E+03    0.59826E-05   -0.34861E-05  7391   0.106E-02
  37 F= -.69996790E+03 E0= -.69934964E+03  d E =-.681660E-02  mag=     8.7595
 curvature:  -0.09 expect dE=-0.144E-01 dE for cont linesearch -0.479E-04
 trial: gam= 0.45271 g(F)=  0.168E+00 g(S)=  0.000E+00 ort = 0.195E-01 (trialstep = 0.232E-01)
 search vector abs. value=  0.324E+00
 bond charge predicted
       N       E                     dE             d eps       ncg     rms          rms(c)
DAV:   1    -0.699971704325E+03   -0.38025E-02   -0.41339E-02 14016   0.318E-01    0.608E-02
RMM:   2    -0.699971810185E+03   -0.10586E-03   -0.88816E-04 13282   0.589E-02    0.861E-02
RMM:   3    -0.699971963301E+03   -0.15312E-03   -0.18738E-04  8000   0.245E-02    0.185E-01
RMM:   4    -0.699971820663E+03    0.14264E-03   -0.45209E-05  7498   0.165E-02    0.582E-02
RMM:   5    -0.699971823066E+03   -0.24031E-05   -0.14466E-05  7155   0.691E-03    0.607E-02
RMM:   6    -0.699971826217E+03   -0.31507E-05   -0.68727E-06  6311   0.555E-03    0.348E-02
RMM:   7    -0.699971838100E+03   -0.11883E-04   -0.49965E-06  5879   0.419E-03    0.242E-02
RMM:   8    -0.699971846309E+03   -0.82094E-05   -0.19348E-06  4552   0.364E-03
  38 F= -.69997185E+03 E0= -.69935363E+03  d E =-.395046E-02  mag=     8.7557
 ZBRENT: can't locate minimum, use default step
 trial-energy change:   -0.003950  1 .order   -0.003928   -0.004100   -0.003756
 step:   0.0928(harm=  0.2764)  dis= 0.00225  next Energy=  -699.992319 (dE=-0.244E-01)
 bond charge predicted
       N       E                     dE             d eps       ncg     rms          rms(c)
DAV:   1    -0.699980454725E+03   -0.86166E-02   -0.37276E-01 13632   0.952E-01    0.161E-01
RMM:   2    -0.699981326388E+03   -0.87166E-03   -0.78617E-03 13440   0.175E-01    0.288E-01
RMM:   3    -0.699981503927E+03   -0.17754E-03   -0.14716E-03 14015   0.709E-02    0.199E-01
RMM:   4    -0.699982115357E+03   -0.61143E-03   -0.43583E-04 11338   0.354E-02    0.414E-01
RMM:   5    -0.699981452020E+03    0.66334E-03   -0.10928E-04  8045   0.225E-02    0.206E-01
RMM:   6    -0.699981323447E+03    0.12857E-03   -0.68006E-05  7970   0.150E-02    0.116E-01
RMM:   7    -0.699981302421E+03    0.21027E-04   -0.48306E-05  7729   0.125E-02    0.736E-02
RMM:   8    -0.699981303290E+03   -0.86905E-06   -0.22559E-05  7410   0.985E-03
  39 F= -.69998130E+03 E0= -.69936316E+03  d E =-.134074E-01  mag=     8.7516
 curvature:  -0.12 expect dE=-0.263E-01 dE for cont linesearch -0.460E-02
 ZBRENT: increasing intervall
 opt :   0.2320  next Energy=  -699.989760 (dE=-0.219E-01)
 bond charge predicted
       N       E                     dE             d eps       ncg     rms          rms(c)
DAV:   1    -0.699985130304E+03   -0.38279E-02   -0.14915E+00 13440   0.190E+00    0.318E-01
RMM:   2    -0.699988611997E+03   -0.34817E-02   -0.31505E-02 13440   0.351E-01    0.551E-01
RMM:   3    -0.699989152964E+03   -0.54097E-03   -0.59484E-03 14437   0.142E-01    0.349E-01
RMM:   4    -0.699992367116E+03   -0.32142E-02   -0.17680E-03 14095   0.699E-02    0.903E-01
RMM:   5    -0.699989296653E+03    0.30705E-02   -0.42354E-04 11620   0.415E-02    0.440E-01
[...]
 bond charge predicted
       N       E                     dE             d eps       ncg     rms          rms(c)
DAV:   1    -0.700270878818E+03   -0.40638E-03   -0.20529E-04 11520   0.236E-02    0.449E-03
RMM:   2    -0.700270888249E+03   -0.94304E-05   -0.61463E-06  6345   0.514E-03    0.207E-02
RMM:   3    -0.700270885933E+03    0.23156E-05   -0.68415E-08  1515   0.247E-03    0.694E-03
RMM:   4    -0.700270887302E+03   -0.13687E-05   -0.37393E-09   887   0.242E-03    0.562E-03
RMM:   5    -0.700270891435E+03   -0.41330E-05   -0.13713E-09   861   0.239E-03    0.604E-03
RMM:   6    -0.700270899105E+03   -0.76708E-05   -0.34307E-09   927   0.244E-03    0.484E-03
RMM:   7    -0.700270904805E+03   -0.56993E-05   -0.17936E-08  1061   0.249E-03    0.183E-03
RMM:   8    -0.700270908174E+03   -0.33690E-05   -0.15906E-08   956   0.250E-03
 115 F= -.70027091E+03 E0= -.69965445E+03  d E =-.603117E-03  mag=     8.3187
 curvature:  -0.00 expect dE=-0.382E-03 dE for cont linesearch -0.364E-03
 ZBRENT: increasing intervall
 opt :   0.0060  next Energy=  -700.271652 (dE=-0.135E-02)
 bond charge predicted
       N       E                     dE             d eps       ncg     rms          rms(c)
DAV:   1    -0.700271652655E+03   -0.74785E-03   -0.81115E-04 13120   0.466E-02    0.733E-03
RMM:   2    -0.700271659027E+03   -0.63725E-05   -0.18658E-05  7018   0.827E-03    0.138E-02
RMM:   3    -0.700271659620E+03   -0.59260E-06   -0.17502E-06  4617   0.374E-03    0.810E-03
RMM:   4    -0.700271665522E+03   -0.59018E-05   -0.17247E-07  1606   0.239E-03    0.219E-02
RMM:   5    -0.700271664596E+03    0.92528E-06   -0.11045E-08  1155   0.220E-03    0.697E-03
RMM:   6    -0.700271669389E+03   -0.47921E-05   -0.12050E-08  1043   0.218E-03    0.428E-03
RMM:   7    -0.700271673208E+03   -0.38193E-05   -0.13792E-08   964   0.222E-03    0.316E-03
RMM:   8    -0.700271675788E+03   -0.25805E-05   -0.15556E-08   952   0.223E-03
 116 F= -.70027168E+03 E0= -.69965521E+03  d E =-.137073E-02  mag=     8.3194
 curvature:  -0.00 expect dE=-0.663E-03 dE for cont linesearch -0.621E-03
 ZBRENT: increasing intervall
 opt :   0.0131  next Energy=  -700.272964 (dE=-0.266E-02)
 bond charge predicted
       N       E                     dE             d eps       ncg     rms          rms(c)
DAV:   1    -0.700272950058E+03   -0.12769E-02   -0.32042E-03 13488   0.924E-02    0.152E-02
RMM:   2    -0.700272961469E+03   -0.11412E-04   -0.72351E-05  7192   0.165E-02    0.328E-02
RMM:   3    -0.700272961735E+03   -0.26535E-06   -0.95454E-06  6994   0.731E-03    0.201E-02
RMM:   4    -0.700272969186E+03   -0.74516E-05   -0.18709E-06  4225   0.342E-03    0.362E-02
RMM:   5    -0.700272965494E+03    0.36921E-05   -0.35522E-07  2494   0.280E-03    0.173E-02
RMM:   6    -0.700272967357E+03   -0.18629E-05   -0.73696E-08  1551   0.261E-03    0.161E-02
RMM:   7    -0.700272971945E+03   -0.45875E-05   -0.12379E-07  1512   0.272E-03    0.123E-02
RMM:   8    -0.700272973848E+03   -0.19033E-05   -0.14678E-07  1400   0.277E-03
 117 F= -.70027297E+03 E0= -.69965649E+03  d E =-.266879E-02  mag=     8.3198
 curvature:  -0.01 expect dE=-0.101E-02 dE for cont linesearch -0.845E-03
 ZBRENT: increasing intervall
 opt :   0.0274  next Energy=  -700.274739 (dE=-0.443E-02)
 bond charge predicted
       N       E                     dE             d eps       ncg     rms          rms(c)
DAV:   1    -0.700274661526E+03   -0.16896E-02   -0.12831E-02 13920   0.185E-01    0.322E-02
RMM:   2    -0.700274702093E+03   -0.40567E-04   -0.28319E-04  8114   0.330E-02    0.808E-02
RMM:   3    -0.700274698954E+03    0.31390E-05   -0.40024E-05  7165   0.144E-02    0.531E-02
RMM:   4    -0.700274699613E+03   -0.65942E-06   -0.12113E-05  6946   0.710E-03    0.406E-02
RMM:   5    -0.700274697360E+03    0.22539E-05   -0.47032E-06  6218   0.486E-03    0.357E-02
RMM:   6    -0.700274697699E+03   -0.33985E-06   -0.29427E-07  2258   0.239E-03    0.350E-02
RMM:   7    -0.700274699871E+03   -0.21716E-05   -0.87037E-07  2824   0.289E-03    0.251E-02
RMM:   8    -0.700274700627E+03   -0.75570E-06   -0.54615E-07  2582   0.297E-03
 118 F= -.70027470E+03 E0= -.69965819E+03  d E =-.439557E-02  mag=     8.3200
 curvature:  -0.02 expect dE=-0.162E-02 dE for cont linesearch -0.435E-03
 ZBRENT: increasing intervall
 opt :   0.0560  next Energy=  -700.274668 (dE=-0.436E-02)
 bond charge predicted
       N       E                     dE             d eps       ncg     rms          rms(c)
DAV:   1    -0.700274489137E+03    0.21073E-03   -0.51520E-02 13840   0.370E-01    0.685E-02
RMM:   2    -0.700274598507E+03   -0.10937E-03   -0.11012E-03 13033   0.656E-02    0.124E-01
RMM:   3    -0.700274612796E+03   -0.14288E-04   -0.18567E-04  7826   0.253E-02    0.863E-02
RMM:   4    -0.700274603918E+03    0.88778E-05   -0.40351E-05  7294   0.143E-02    0.585E-02
RMM:   5    -0.700274607333E+03   -0.34154E-05   -0.11585E-05  6962   0.711E-03    0.806E-02
RMM:   6    -0.700274607393E+03   -0.59801E-07   -0.50230E-06  6004   0.426E-03    0.746E-02
RMM:   7    -0.700274599884E+03    0.75088E-05   -0.80908E-06  6553   0.482E-03    0.583E-02
RMM:   8    -0.700274594502E+03    0.53827E-05   -0.36412E-06  5679   0.412E-03
 119 F= -.70027459E+03 E0= -.69965801E+03  d E =-.428945E-02  mag=     8.3197
 curvature:   0.00 expect dE= 0.390E-03 dE for cont linesearch  0.372E-04
 ZBRENT: bracketing found
 ZBRENT: interpolating
 opt :   0.0413  next Energy=  -700.275254 (dE=-0.495E-02)
 bond charge predicted
       N       E                     dE             d eps       ncg     rms          rms(c)
DAV:   1    -0.700275205818E+03   -0.60593E-03   -0.13910E-02 13968   0.192E-01    0.442E-02
RMM:   2    -0.700275245175E+03   -0.39357E-04   -0.28793E-04  8132   0.336E-02    0.606E-02
RMM:   3    -0.700275306945E+03   -0.61771E-04   -0.49828E-05  7217   0.156E-02    0.115E-01
RMM:   4    -0.700275242278E+03    0.64667E-04   -0.11891E-05  7049   0.771E-03    0.390E-02
RMM:   5    -0.700275241075E+03    0.12031E-05   -0.35562E-06  5889   0.406E-03    0.135E-02
RMM:   6    -0.700275247631E+03   -0.65559E-05   -0.91975E-07  3107   0.289E-03    0.228E-02
RMM:   7    -0.700275249104E+03   -0.14727E-05   -0.20778E-06  4142   0.332E-03    0.193E-02
RMM:   8    -0.700275249604E+03   -0.50070E-06   -0.96869E-07  2755   0.295E-03
 120 F= -.70027525E+03 E0= -.69965870E+03  d E =-.494455E-02  mag=     8.3196
 curvature:  -0.02 expect dE=-0.292E-02 dE for cont linesearch -0.103E-06
 trial: gam= 0.68879 g(F)=  0.158E+00 g(S)=  0.000E+00 ort =-0.117E-02 (trialstep = 0.781E-02)
 search vector abs. value=  0.272E+00
 bond charge predicted
       N       E                     dE             d eps       ncg     rms          rms(c)
DAV:   1    -0.700276417561E+03   -0.11685E-02   -0.42799E-03 13296   0.104E-01    0.182E-02
RMM:   2    -0.700276456462E+03   -0.38901E-04   -0.89013E-05  7286   0.181E-02    0.893E-02
RMM:   3    -0.700276425920E+03    0.30542E-04   -0.13143E-05  7146   0.876E-03    0.316E-02
RMM:   4    -0.700276429759E+03   -0.38383E-05   -0.25325E-06  5116   0.373E-03    0.377E-02
RMM:   5    -0.700276424835E+03    0.49234E-05   -0.46743E-07  2738   0.301E-03    0.242E-02
RMM:   6    -0.700276422610E+03    0.22248E-05   -0.61023E-07  2497   0.300E-03    0.206E-02
RMM:   7    -0.700276419892E+03    0.27186E-05   -0.14617E-06  3283   0.309E-03    0.147E-02
RMM:   8    -0.700276419143E+03    0.74849E-06   -0.60886E-08  1276   0.260E-03
 121 F= -.70027642E+03 E0= -.69965986E+03  d E =-.116954E-02  mag=     8.3193
 ZBRENT: can't locate minimum, use default step
 trial-energy change:   -0.001170  1 .order   -0.001174   -0.001229   -0.001118
 step:   0.0312(harm=  0.0860)  dis= 0.00110  next Energy=  -700.282021 (dE=-0.677E-02)
 bond charge predicted
       N       E                     dE             d eps       ncg     rms          rms(c)
DAV:   1    -0.700279157374E+03   -0.27375E-02   -0.38140E-02 14080   0.311E-01    0.512E-02
RMM:   2    -0.700279229843E+03   -0.72469E-04   -0.75380E-04 12401   0.534E-02    0.112E-01
RMM:   3    -0.700279235250E+03   -0.54075E-05   -0.13258E-04  7494   0.218E-02    0.705E-02
RMM:   4    -0.700279295758E+03   -0.60508E-04   -0.34980E-05  7259   0.130E-02    0.139E-01
RMM:   5    -0.700279217784E+03    0.77974E-04   -0.13263E-05  6889   0.735E-03    0.486E-02
RMM:   6    -0.700279208320E+03    0.94646E-05   -0.53278E-06  6081   0.476E-03    0.614E-02
RMM:   7    -0.700279201380E+03    0.69400E-05   -0.50574E-06  6220   0.420E-03    0.606E-02
RMM:   8    -0.700279180185E+03    0.21195E-04   -0.45489E-06  6191   0.428E-03
 122 F= -.70027918E+03 E0= -.69966259E+03  d E =-.393058E-02  mag=     8.3182
 curvature:  -0.04 expect dE=-0.311E-02 dE for cont linesearch -0.127E-02
 ZBRENT: increasing intervall
 opt :   0.0781  next Energy=  -700.281432 (dE=-0.618E-02)
 bond charge predicted
       N       E                     dE             d eps       ncg     rms          rms(c)
DAV:   1    -0.700280638926E+03   -0.14375E-02   -0.15285E-01 14032   0.622E-01    0.116E-01
RMM:   2    -0.700280953259E+03   -0.31433E-03   -0.30236E-03 13431   0.107E-01    0.247E-01
RMM:   3    -0.700281011819E+03   -0.58560E-04   -0.55513E-04 11987   0.426E-02    0.226E-01
RMM:   4    -0.700280912330E+03    0.99489E-04   -0.11228E-04  7873   0.223E-02    0.145E-01
RMM:   5    -0.700281137921E+03   -0.22559E-03   -0.56998E-05  7582   0.148E-02    0.282E-01
RMM:   6    -0.700280872648E+03    0.26527E-03   -0.34520E-05  7328   0.110E-02    0.184E-01
RMM:   7    -0.700280844488E+03    0.28160E-04   -0.57500E-05  7351   0.120E-02    0.169E-01
RMM:   8    -0.700280764026E+03    0.80463E-04   -0.47870E-05  7318   0.122E-02
 123 F= -.70028076E+03 E0= -.69966401E+03  d E =-.551442E-02  mag=     8.3154
 curvature:  -0.07 expect dE=-0.405E-02 dE for cont linesearch -0.916E-04
 ZBRENT: bracketing found
 ZBRENT: interpolating
 opt :   0.0702  next Energy=  -700.280840 (dE=-0.559E-02)
 bond charge predicted
       N       E                     dE             d eps       ncg     rms          rms(c)
DAV:   1    -0.700280824824E+03    0.19665E-04   -0.44730E-03 13488   0.108E-01    0.156E-01
RMM:   2    -0.700280835353E+03   -0.10529E-04   -0.11959E-04  7379   0.205E-02    0.111E-01
RMM:   3    -0.700281551096E+03   -0.71574E-03   -0.19512E-04  8248   0.217E-02    0.399E-01
RMM:   4    -0.700281299871E+03    0.25123E-03   -0.12418E-04  7457   0.205E-02    0.259E-01
RMM:   5    -0.700280898038E+03    0.40183E-03   -0.67038E-05  7263   0.160E-02    0.734E-02
RMM:   6    -0.700280905066E+03   -0.70284E-05   -0.27156E-05  7119   0.990E-03    0.311E-02
RMM:   7    -0.700280919242E+03   -0.14176E-04   -0.72492E-06  6312   0.588E-03    0.176E-02
RMM:   8    -0.700280928492E+03   -0.92504E-05   -0.74442E-07  2979   0.274E-03
 124 F= -.70028093E+03 E0= -.69966420E+03  d E =-.567889E-02  mag=     8.3130
 curvature:  -0.06 expect dE=-0.310E-02 dE for cont linesearch -0.567E-06
 trial: gam= 0.19846 g(F)=  0.558E-01 g(S)=  0.000E+00 ort =-0.167E-02 (trialstep = 0.203E-01)
 search vector abs. value=  0.659E-01
 bond charge predicted
       N       E                     dE             d eps       ncg     rms          rms(c)
DAV:   1    -0.700281903880E+03   -0.98464E-03   -0.68573E-03 13520   0.133E-01    0.231E-02
RMM:   2    -0.700281973753E+03   -0.69873E-04   -0.15447E-04  7467   0.242E-02    0.109E-01
RMM:   3    -0.700281934947E+03    0.38805E-04   -0.23474E-05  7158   0.115E-02    0.390E-02
RMM:   4    -0.700281942055E+03   -0.71076E-05   -0.53754E-06  6640   0.489E-03    0.511E-02
RMM:   5    -0.700281946509E+03   -0.44537E-05   -0.16659E-06  4617   0.349E-03    0.413E-02
RMM:   6    -0.700281947914E+03   -0.14054E-05   -0.11875E-06  3641   0.308E-03    0.244E-02
RMM:   7    -0.700281954457E+03   -0.65425E-05   -0.75508E-07  3029   0.297E-03    0.127E-02
RMM:   8    -0.700281959184E+03   -0.47277E-05   -0.11821E-07  1544   0.275E-03
 125 F= -.70028196E+03 E0= -.69966524E+03  d E =-.103069E-02  mag=     8.3109
 trial-energy change:   -0.001031  1 .order   -0.000977   -0.001126   -0.000827
 step:   0.0762(harm=  0.0762)  dis= 0.00171  next Energy=  -700.283045 (dE=-0.212E-02)
 bond charge predicted
       N       E                     dE             d eps       ncg     rms          rms(c)
DAV:   1    -0.700282924248E+03   -0.96979E-03   -0.52025E-02 14016   0.367E-01    0.585E-02
RMM:   2    -0.700283054855E+03   -0.13061E-03   -0.11093E-03 13333   0.659E-02    0.151E-01
RMM:   3    -0.700283057191E+03   -0.23359E-05   -0.20365E-04  8148   0.261E-02    0.978E-02
RMM:   4    -0.700283125420E+03   -0.68229E-04   -0.52520E-05  7341   0.159E-02    0.157E-01
RMM:   5    -0.700283029284E+03    0.96135E-04   -0.16724E-05  7133   0.850E-03    0.599E-02
RMM:   6    -0.700283021483E+03    0.78011E-05   -0.58828E-06  6416   0.499E-03    0.764E-02
RMM:   7    -0.700283008717E+03    0.12766E-04   -0.78178E-06  6627   0.477E-03    0.726E-02
RMM:   8    -0.700282988278E+03    0.20440E-04   -0.49960E-06  6296   0.461E-03
 126 F= -.70028299E+03 E0= -.69966629E+03  d E =-.205979E-02  mag=     8.3083
 curvature:  -0.05 expect dE=-0.169E-02 dE for cont linesearch -0.273E-05
 trial: gam= 0.62595 g(F)=  0.373E-01 g(S)=  0.000E+00 ort =-0.199E-02 (trialstep = 0.315E-01)
 search vector abs. value=  0.606E-01
 bond charge predicted
       N       E                     dE             d eps       ncg     rms          rms(c)
DAV:   1    -0.700283521719E+03   -0.51300E-03   -0.14996E-02 14160   0.197E-01    0.606E-02
RMM:   2    -0.700283565220E+03   -0.43501E-04   -0.35484E-04  8882   0.371E-02    0.929E-02
RMM:   3    -0.700283563273E+03    0.19464E-05   -0.56802E-05  7199   0.169E-02    0.583E-02
RMM:   4    -0.700283628611E+03   -0.65338E-04   -0.21158E-05  7143   0.877E-03    0.121E-01
RMM:   5    -0.700283568866E+03    0.59745E-04   -0.14266E-05  6828   0.781E-03    0.480E-02
RMM:   6    -0.700283571677E+03   -0.28111E-05   -0.66585E-06  6217   0.517E-03    0.314E-02
RMM:   7    -0.700283576334E+03   -0.46565E-05   -0.19331E-06  4485   0.360E-03    0.149E-02
RMM:   8    -0.700283580488E+03   -0.41542E-05   -0.70736E-08  2112   0.258E-03
 127 F= -.70028358E+03 E0= -.69966683E+03  d E =-.592211E-03  mag=     8.3058
 trial-energy change:   -0.000592  1 .order   -0.000572   -0.001135   -0.000008
 step:   0.0317(harm=  0.0317)  dis= 0.00047  next Energy=  -700.283560 (dE=-0.572E-03)
 bond charge predicted
       N       E                     dE             d eps       ncg     rms          rms(c)
DAV:   1    -0.700283584139E+03   -0.78052E-05   -0.27444E-06  7824   0.397E-03    0.108E-02
RMM:   2    -0.700283596964E+03   -0.12825E-04   -0.18581E-06  4031   0.333E-03    0.311E-02
RMM:   3    -0.700283594696E+03    0.22688E-05   -0.61566E-07  3309   0.257E-03    0.385E-03
RMM:   4    -0.700283604050E+03   -0.93547E-05   -0.40451E-08  1254   0.203E-03    0.193E-02
RMM:   5    -0.700283605899E+03   -0.18487E-05   -0.26846E-09  1130   0.191E-03    0.799E-03
RMM:   6    -0.700283614520E+03   -0.86207E-05   -0.40366E-09  1060   0.184E-03    0.609E-03
RMM:   7    -0.700283624979E+03   -0.10460E-04   -0.45471E-09  1107   0.188E-03    0.331E-03
RMM:   8    -0.700283630680E+03   -0.57006E-05   -0.71702E-09  1067   0.188E-03
 128 F= -.70028363E+03 E0= -.69966689E+03  d E =-.642402E-03  mag=     8.3039
 curvature:  -0.03 expect dE=-0.204E-03 dE for cont linesearch -0.748E-07
 trial: gam= 0.15933 g(F)=  0.765E-02 g(S)=  0.000E+00 ort =-0.412E-03 (trialstep = 0.315E-01)
 search vector abs. value=  0.905E-02
 bond charge predicted
       N       E                     dE             d eps       ncg     rms          rms(c)
DAV:   1    -0.700283822234E+03   -0.19725E-03   -0.22073E-03 13392   0.743E-02    0.131E-02
RMM:   2    -0.700283835390E+03   -0.13155E-04   -0.51121E-05  7161   0.143E-02    0.298E-02
RMM:   3    -0.700283835819E+03   -0.42946E-06   -0.75858E-06  7057   0.655E-03    0.158E-02
RMM:   4    -0.700283850321E+03   -0.14502E-04   -0.10420E-06  3315   0.316E-03    0.440E-02
RMM:   5    -0.700283843559E+03    0.67621E-05   -0.16828E-07  2247   0.279E-03    0.114E-02
RMM:   6    -0.700283849760E+03   -0.62010E-05   -0.24439E-08  1280   0.261E-03    0.112E-02
RMM:   7    -0.700283860270E+03   -0.10509E-04   -0.70118E-08  1459   0.279E-03    0.111E-02
RMM:   8    -0.700283865537E+03   -0.52675E-05   -0.36854E-08  1270   0.278E-03
 129 F= -.70028387E+03 E0= -.69966715E+03  d E =-.234857E-03  mag=     8.3026
 trial-energy change:   -0.000235  1 .order   -0.000192   -0.000239   -0.000146
 step:   0.0810(harm=  0.0810)  dis= 0.00041  next Energy=  -700.283938 (dE=-0.307E-03)
 bond charge predicted
       N       E                     dE             d eps       ncg     rms          rms(c)
DAV:   1    -0.700283953568E+03   -0.93299E-04   -0.53624E-03 13632   0.116E-01    0.230E-02
RMM:   2    -0.700283974600E+03   -0.21031E-04   -0.12575E-04  7390   0.225E-02    0.516E-02
RMM:   3    -0.700283975828E+03   -0.12281E-05   -0.19619E-05  7142   0.102E-02    0.378E-02
RMM:   4    -0.700283980006E+03   -0.41783E-05   -0.67889E-06  6726   0.516E-03    0.385E-02
RMM:   5    -0.700283978383E+03    0.16227E-05   -0.17422E-06  4548   0.347E-03    0.289E-02
RMM:   6    -0.700283980593E+03   -0.22099E-05   -0.89954E-08  1975   0.263E-03    0.265E-02
RMM:   7    -0.700283987589E+03   -0.69960E-05   -0.39124E-07  2381   0.279E-03    0.274E-02
RMM:   8    -0.700283994852E+03   -0.72623E-05   -0.52094E-07  2433   0.281E-03
 130 F= -.70028399E+03 E0= -.69966729E+03  d E =-.364172E-03  mag=     8.3017
 curvature:  -0.05 expect dE=-0.104E-03 dE for cont linesearch -0.203E-05
 ZBRENT: interpolating
 opt :   0.0752  next Energy=  -700.283997 (dE=-0.366E-03)
 bond charge predicted
       N       E                     dE             d eps       ncg     rms          rms(c)
DAV:   1    -0.700283999515E+03   -0.11926E-04   -0.79919E-05  7776   0.151E-02    0.236E-02
RMM:   2    -0.700284004822E+03   -0.53066E-05   -0.73433E-06  6437   0.677E-03    0.163E-02
RMM:   3    -0.700284013330E+03   -0.85077E-05   -0.33390E-06  5758   0.412E-03    0.357E-02
RMM:   4    -0.700284025770E+03   -0.12440E-04   -0.16631E-06  4007   0.330E-03    0.582E-02
RMM:   5    -0.700284014250E+03    0.11520E-04   -0.10090E-07  1709   0.269E-03    0.267E-02
RMM:   6    -0.700284016181E+03   -0.19310E-05   -0.17992E-07  1553   0.269E-03    0.231E-02
RMM:   7    -0.700284016372E+03   -0.19096E-06   -0.80381E-10   900   0.246E-03    0.110E-02
RMM:   8    -0.700284017704E+03   -0.13324E-05    0.00000E+00   933   0.246E-03
 131 F= -.70028402E+03 E0= -.69966732E+03  d E =-.387024E-03  mag=     8.3010
 curvature:  -0.04 expect dE=-0.823E-04 dE for cont linesearch -0.366E-08
 trial: gam= 0.23257 g(F)=  0.193E-02 g(S)=  0.000E+00 ort =-0.279E-04 (trialstep = 0.403E-01)
 search vector abs. value=  0.241E-02
 bond charge predicted
       N       E                     dE             d eps       ncg     rms          rms(c)
DAV:   1    -0.700284076217E+03   -0.59845E-04   -0.86251E-04 13264   0.435E-02    0.990E-03
RMM:   2    -0.700284085480E+03   -0.92633E-05   -0.21031E-05  7133   0.930E-03    0.418E-02
RMM:   3    -0.700284081496E+03    0.39845E-05   -0.38373E-06  6725   0.476E-03    0.166E-02
RMM:   4    -0.700284081372E+03    0.12354E-06   -0.10159E-08  1270   0.224E-03    0.142E-02
RMM:   5    -0.700284084064E+03   -0.26916E-05   -0.10350E-08  1242   0.232E-03    0.104E-02
RMM:   6    -0.700284086061E+03   -0.19973E-05   -0.10715E-08  1087   0.238E-03    0.790E-03
RMM:   7    -0.700284088176E+03   -0.21154E-05   -0.89914E-09  1032   0.247E-03    0.594E-03
RMM:   8    -0.700284089318E+03   -0.11411E-05   -0.76565E-09   919   0.252E-03
 132 F= -.70028409E+03 E0= -.69966741E+03  d E =-.716134E-04  mag=     8.3005
 trial-energy change:   -0.000072  1 .order   -0.000059   -0.000077   -0.000041
 step:   0.0846(harm=  0.0846)  dis= 0.00018  next Energy=  -700.284099 (dE=-0.814E-04)
 reached required accuracy - stopping structural energy minimisation
 writing wavefunctions
