 ----------------------------------------------------
    OOO  PPPP  EEEEE N   N M   M PPPP
   O   O P   P E     NN  N MM MM P   P
   O   O PPPP  EEEEE N N N M M M PPPP   -- VERSION
   O   O P     E     N  NN M   M P
    OOO  P     EEEEE N   N M   M P
 ----------------------------------------------------
 running   16 mpi-ranks, with    4 threads/rank
 distrk:  each k-point on   16 cores,    1 groups
 distr:  one band on    1 cores,   16 groups
 vasp.6.2.1 16May21 (build Jul 28 2021 23:24:15) complex                        
  
 POSCAR found type information on POSCAR IrO 
 POSCAR found :  2 types and     100 ions
 scaLAPACK will be used
 -----------------------------------------------------------------------------
|                                                                             |
|           W    W    AA    RRRRR   N    N  II  N    N   GGGG   !!!           |
|           W    W   A  A   R    R  NN   N  II  NN   N  G    G  !!!           |
|           W    W  A    A  R    R  N N  N  II  N N  N  G       !!!           |
|           W WW W  AAAAAA  RRRRR   N  N N  II  N  N N  G  GGG   !            |
|           WW  WW  A    A  R   R   N   NN  II  N   NN  G    G                |
|           W    W  A    A  R    R  N    N  II  N    N   GGGG   !!!           |
|                                                                             |
|     The real-space projection scheme for the treatment of the non-local     |
|     pseudopotentials has been switched on but on file POTCAR I have not     |
|     found any entries, signalling me that you have never performed a        |
|     real-space optimization of all non-local projectors! BE WARNED that     |
|     a calculation using the real-space projection scheme together with      |
|     non-local projectors which were not real-space optimized (according     |
|     to the plane-wave cutoff used in this calculation) might give more      |
|     or less inaccurate results. I hope you know what you are doing.         |
|                                                                             |
 -----------------------------------------------------------------------------

 LDA part: xc-table for Pade appr. of Perdew
 POSCAR, INCAR and KPOINTS ok, starting setup
 FFT: planning ...
 WAVECAR not read
 WARNING: random wavefunctions but no delay for mixing, default for NELMDL
 entering main loop
       N       E                     dE             d eps       ncg     rms          rms(c)
DAV:   1     0.757117919795E+04    0.75712E+04   -0.29552E+05 15072   0.125E+03
DAV:   2     0.598688283820E+03   -0.69725E+04   -0.62823E+04 16064   0.371E+02
DAV:   3    -0.753104718884E+03   -0.13518E+04   -0.12987E+04 18560   0.165E+02
DAV:   4    -0.825476489851E+03   -0.72372E+02   -0.70565E+02 20240   0.429E+01
DAV:   5    -0.827124860341E+03   -0.16484E+01   -0.16289E+01 19296   0.606E+00    0.188E+02
RMM:   6    -0.720683384634E+03    0.10644E+03   -0.62578E+02 14890   0.401E+01    0.192E+02
RMM:   7    -0.128604322412E+04   -0.56536E+03   -0.31577E+02 16091   0.255E+01    0.375E+02
RMM:   8    -0.122499274740E+04    0.61050E+02   -0.86868E+01 18321   0.103E+01    0.372E+02
RMM:   9    -0.155704748997E+04   -0.33205E+03   -0.59844E+01 16207   0.788E+00    0.418E+02
RMM:  10    -0.177681305358E+04   -0.21977E+03   -0.75219E+01 16905   0.978E+00    0.449E+02
RMM:  11    -0.218672132212E+04   -0.40991E+03   -0.11488E+03 25312   0.405E+01    0.389E+02
RMM:  12    -0.312862166301E+04   -0.94190E+03   -0.10845E+03 25779   0.379E+01    0.439E+02
RMM:  13    -0.286611826736E+04    0.26250E+03   -0.29415E+02 22422   0.169E+01    0.357E+02
RMM:  14    -0.241691720674E+04    0.44920E+03   -0.20496E+02 21420   0.121E+01    0.350E+02
RMM:  15    -0.225478615753E+04    0.16213E+03   -0.11968E+02 20957   0.100E+01    0.358E+02
RMM:  16    -0.191427775276E+04    0.34051E+03   -0.10483E+02 20120   0.966E+00    0.342E+02
RMM:  17    -0.167515597650E+04    0.23912E+03   -0.77797E+01 20295   0.917E+00    0.333E+02
RMM:  18    -0.127475409830E+04    0.40040E+03   -0.15800E+02 22896   0.136E+01    0.314E+02
RMM:  19    -0.782597828366E+03    0.49216E+03   -0.25519E+02 23586   0.171E+01    0.227E+02
RMM:  20    -0.799064409706E+03   -0.16467E+02   -0.19944E+01 16819   0.527E+00    0.258E+02
RMM:  21    -0.820770093883E+03   -0.21706E+02   -0.49210E+00 16220   0.277E+00    0.252E+02
RMM:  22    -0.760472344830E+03    0.60298E+02   -0.70163E+00 17062   0.335E+00    0.214E+02
RMM:  23    -0.750767361032E+03    0.97050E+01   -0.59556E+00 16915   0.341E+00    0.206E+02
RMM:  24    -0.714776610072E+03    0.35991E+02   -0.63230E+00 17727   0.328E+00    0.189E+02
RMM:  25    -0.680693586201E+03    0.34083E+02   -0.14366E+01 20070   0.497E+00    0.166E+02
RMM:  26    -0.661830022612E+03    0.18864E+02   -0.49544E+00 17590   0.293E+00    0.152E+02
RMM:  27    -0.659594239214E+03    0.22358E+01   -0.77535E-01 17987   0.122E+00    0.150E+02
RMM:  28    -0.660086091199E+03   -0.49185E+00   -0.10857E-01 16711   0.465E-01    0.151E+02
RMM:  29    -0.660120651330E+03   -0.34560E-01   -0.11732E-01 15274   0.523E-01    0.151E+02
RMM:  30    -0.662421981896E+03   -0.23013E+01   -0.28580E-01 17020   0.789E-01    0.154E+02
RMM:  31    -0.667140384682E+03   -0.47184E+01   -0.80199E-01 19997   0.133E+00    0.161E+02
RMM:  32    -0.667843437808E+03   -0.70305E+00   -0.56622E-02 17373   0.356E-01    0.162E+02
RMM:  33    -0.656491639499E+03    0.11352E+02   -0.34962E+00 25622   0.256E+00    0.145E+02
RMM:  34    -0.650138639247E+03    0.63530E+01   -0.46014E+00 26012   0.293E+00    0.124E+02
RMM:  35    -0.646733187690E+03    0.34055E+01   -0.31119E+00 25568   0.246E+00    0.105E+02
RMM:  36    -0.643437143483E+03    0.32960E+01   -0.64231E+00 26125   0.343E+00    0.750E+01
RMM:  37    -0.643315856388E+03    0.12129E+00   -0.11125E-01 16910   0.543E-01    0.746E+01
RMM:  38    -0.644021565574E+03   -0.70571E+00   -0.12491E-01 17876   0.534E-01    0.762E+01
RMM:  39    -0.645673765328E+03   -0.16522E+01   -0.53940E-01 21765   0.104E+00    0.699E+01
RMM:  40    -0.656832711346E+03   -0.11159E+02   -0.12101E+01 26320   0.464E+00    0.291E+01
RMM:  41    -0.660494313834E+03   -0.36616E+01   -0.45400E+00 26066   0.272E+00    0.262E+01
RMM:  42    -0.659770948387E+03    0.72337E+00   -0.11265E-01 17923   0.472E-01    0.257E+01
RMM:  43    -0.660929966253E+03   -0.11590E+01   -0.41191E-01 21822   0.973E-01    0.252E+01
RMM:  44    -0.662448545255E+03   -0.15186E+01   -0.14257E+00 25346   0.152E+00    0.205E+01
RMM:  45    -0.668280383835E+03   -0.58318E+01   -0.38880E+00 25917   0.253E+00    0.433E+01
RMM:  46    -0.668235358034E+03    0.45026E-01   -0.20815E-01 20373   0.642E-01    0.464E+01
RMM:  47    -0.668845786430E+03   -0.61043E+00   -0.18152E-01 19763   0.641E-01    0.453E+01
RMM:  48    -0.668696856483E+03    0.14893E+00   -0.68583E-01 23898   0.102E+00    0.366E+01
RMM:  49    -0.669219631379E+03   -0.52277E+00   -0.12916E-01 18360   0.497E-01    0.399E+01
RMM:  50    -0.670106092141E+03   -0.88646E+00   -0.28649E-01 20798   0.735E-01    0.357E+01
RMM:  51    -0.671553177718E+03   -0.14471E+01   -0.52108E+00 26289   0.294E+00    0.149E+01
RMM:  52    -0.673234107289E+03   -0.16809E+01   -0.21947E-01 19996   0.685E-01    0.155E+01
RMM:  53    -0.674458583624E+03   -0.12245E+01   -0.23025E-01 20398   0.670E-01    0.163E+01
RMM:  54    -0.673156864910E+03    0.13017E+01   -0.73585E-02 17606   0.396E-01    0.155E+01
RMM:  55    -0.672999751496E+03    0.15711E+00   -0.18540E-01 19894   0.594E-01    0.133E+01
RMM:  56    -0.674580968000E+03   -0.15812E+01   -0.53490E-01 23832   0.966E-01    0.962E+00
RMM:  57    -0.674878897987E+03   -0.29793E+00   -0.20795E-01 19665   0.620E-01    0.974E+00
RMM:  58    -0.678714551384E+03   -0.38357E+01   -0.41182E-01 21190   0.800E-01    0.770E+00
RMM:  59    -0.680675733523E+03   -0.19612E+01   -0.36537E-01 20808   0.739E-01    0.746E+00
RMM:  60    -0.680907042863E+03   -0.23131E+00   -0.13560E-01 18451   0.465E-01    0.700E+00
RMM:  61    -0.681452341132E+03   -0.54530E+00   -0.25921E-01 20950   0.675E-01    0.571E+00
RMM:  62    -0.681963057432E+03   -0.51072E+00   -0.71743E-02 17440   0.380E-01    0.498E+00
RMM:  63    -0.682682306954E+03   -0.71925E+00   -0.13113E-01 18682   0.444E-01    0.401E+00
RMM:  64    -0.682750781320E+03   -0.68474E-01   -0.65547E-02 16806   0.321E-01    0.369E+00
RMM:  65    -0.682917328456E+03   -0.16655E+00   -0.40579E-02 16201   0.271E-01    0.325E+00
RMM:  66    -0.683656407344E+03   -0.73908E+00   -0.13993E-01 20244   0.479E-01    0.448E+00
RMM:  67    -0.683416197374E+03    0.24021E+00   -0.28966E-02 16344   0.257E-01    0.288E+00
RMM:  68    -0.683704476637E+03   -0.28828E+00   -0.23593E-02 16153   0.239E-01    0.247E+00
RMM:  69    -0.684179924674E+03   -0.47545E+00   -0.17264E-02 15684   0.203E-01    0.186E+00
RMM:  70    -0.684420629826E+03   -0.24071E+00   -0.13446E-02 15681   0.175E-01    0.131E+00
RMM:  71    -0.684557017158E+03   -0.13639E+00   -0.71540E-03 15208   0.131E-01    0.901E-01
RMM:  72    -0.684724357685E+03   -0.16734E+00   -0.75998E-03 15830   0.122E-01    0.612E-01
RMM:  73    -0.684865620157E+03   -0.14126E+00   -0.10668E-02 16750   0.122E-01    0.619E-01
RMM:  74    -0.684960618310E+03   -0.94998E-01   -0.45549E-03 15443   0.855E-02    0.521E-01
RMM:  75    -0.685061124233E+03   -0.10051E+00   -0.23699E-03 14560   0.646E-02    0.485E-01
RMM:  76    -0.685113999897E+03   -0.52876E-01   -0.17219E-03 15641   0.674E-02    0.549E-01
RMM:  77    -0.685237513694E+03   -0.12351E+00   -0.15684E-03 13968   0.524E-02    0.380E-01
RMM:  78    -0.685340692079E+03   -0.10318E+00   -0.10116E-03 12876   0.378E-02    0.309E-01
RMM:  79    -0.685485987035E+03   -0.14529E+00   -0.13551E-03 13241   0.397E-02    0.267E-01
RMM:  80    -0.685556949439E+03   -0.70962E-01   -0.49429E-04 11681   0.279E-02
 -----------------------------------------------------------------------------
|                                                                             |
|           W    W    AA    RRRRR   N    N  II  N    N   GGGG   !!!           |
|           W    W   A  A   R    R  NN   N  II  NN   N  G    G  !!!           |
|           W    W  A    A  R    R  N N  N  II  N N  N  G       !!!           |
|           W WW W  AAAAAA  RRRRR   N  N N  II  N  N N  G  GGG   !            |
|           WW  WW  A    A  R   R   N   NN  II  N   NN  G    G                |
|           W    W  A    A  R    R  N    N  II  N    N   GGGG   !!!           |
|                                                                             |
|     The electronic self-consistency was not achieved in the given           |
|     number of steps (NELM). The forces and other quantities evaluated       |
|     might not be reliable so examine the results carefully. If you find     |
|     spurious results, we suggest increasing NELM, if you were close to      |
|     convergence or switching to a different ALGO or adjusting the           |
|     density mixing parameters otherwise.                                    |
|                                                                             |
 -----------------------------------------------------------------------------

   1 F= -.68555695E+03 E0= -.68499269E+03  d E =-.685557E+03  mag=     5.0472
 curvature:   0.00 expect dE= 0.000E+00 dE for cont linesearch  0.000E+00
 trial: gam= 0.00000 g(F)=  0.752E+01 g(S)=  0.000E+00 ort = 0.000E+00 (trialstep = 0.100E+01)
 search vector abs. value=  0.752E+01
 bond charge predicted
       N       E                     dE             d eps       ncg     rms          rms(c)
DAV:   1    -0.678949994037E+03    0.65360E+01   -0.15892E+03 15600   0.531E+01    0.176E+01
RMM:   2    -0.708984346574E+03   -0.30034E+02   -0.83537E+01 15047   0.134E+01    0.587E+01
RMM:   3    -0.705095271476E+03    0.38891E+01   -0.18243E+01 15888   0.601E+00    0.515E+01
RMM:   4    -0.686970809686E+03    0.18124E+02   -0.40483E+00 15131   0.331E+00    0.185E+01
RMM:   5    -0.685379859522E+03    0.15910E+01   -0.15856E+00 15349   0.198E+00    0.115E+01
RMM:   6    -0.685897201955E+03   -0.51734E+00   -0.49543E-01 14986   0.119E+00    0.131E+01
RMM:   7    -0.685377279695E+03    0.51992E+00   -0.24107E-01 14946   0.863E-01    0.792E+00
RMM:   8    -0.685419899838E+03   -0.42620E-01   -0.24432E-01 15545   0.679E-01    0.623E+00
RMM:   9    -0.685576400060E+03   -0.15650E+00   -0.30241E-01 16608   0.727E-01    0.453E+00
RMM:  10    -0.685516674335E+03    0.59726E-01   -0.14696E-01 15719   0.538E-01    0.335E+00
RMM:  11    -0.685496652346E+03    0.20022E-01   -0.40397E-02 15161   0.320E-01    0.243E+00
RMM:  12    -0.685519953113E+03   -0.23301E-01   -0.16300E-02 15601   0.203E-01    0.163E+00
RMM:  13    -0.685565706796E+03   -0.45754E-01   -0.14458E-02 15666   0.159E-01    0.181E+00
RMM:  14    -0.685584037489E+03   -0.18331E-01   -0.87402E-03 15538   0.133E-01    0.125E+00
RMM:  15    -0.685597614919E+03   -0.13577E-01   -0.28987E-03 14634   0.814E-02    0.974E-01
RMM:  16    -0.685603942474E+03   -0.63276E-02   -0.11157E-03 13939   0.507E-02    0.826E-01
RMM:  17    -0.685613454707E+03   -0.95122E-02   -0.59593E-04 12552   0.382E-02    0.628E-01
RMM:  18    -0.685623284949E+03   -0.98302E-02   -0.48042E-04 12116   0.336E-02    0.445E-01
RMM:  19    -0.685633228019E+03   -0.99431E-02   -0.45630E-04 11467   0.296E-02    0.265E-01
RMM:  20    -0.685641125406E+03   -0.78974E-02   -0.25609E-04 10174   0.230E-02    0.186E-01
RMM:  21    -0.685647023480E+03   -0.58981E-02   -0.13427E-04  9192   0.188E-02    0.143E-01
RMM:  22    -0.685652882699E+03   -0.58592E-02   -0.10213E-04  9008   0.155E-02    0.118E-01
RMM:  23    -0.685656283990E+03   -0.34013E-02   -0.54394E-05  8527   0.120E-02    0.835E-02
RMM:  24    -0.685659775143E+03   -0.34912E-02   -0.56104E-05  8533   0.107E-02    0.386E-02
RMM:  25    -0.685662662529E+03   -0.28874E-02   -0.43782E-05  7787   0.842E-03    0.357E-02
RMM:  26    -0.685665034160E+03   -0.23716E-02   -0.33999E-05  7354   0.717E-03    0.353E-02
RMM:  27    -0.685667409127E+03   -0.23750E-02   -0.43941E-05  7697   0.727E-03    0.308E-02
RMM:  28    -0.685668346269E+03   -0.93714E-03   -0.29044E-05  6750   0.620E-03    0.202E-02
RMM:  29    -0.685668738606E+03   -0.39234E-03   -0.17052E-05  6371   0.543E-03    0.180E-02
RMM:  30    -0.685668983749E+03   -0.24514E-03   -0.15609E-05  5978   0.485E-03    0.172E-02
RMM:  31    -0.685669091646E+03   -0.10790E-03   -0.85206E-06  5307   0.438E-03    0.180E-02
RMM:  32    -0.685669072888E+03    0.18758E-04   -0.59075E-06  4888   0.375E-03
   2 F= -.68566907E+03 E0= -.68510808E+03  d E =-.112123E+00  mag=     5.0105
 trial-energy change:   -0.112123  1 .order   -0.801783   -7.522726    5.919159
 step:   0.4828(harm=  0.5596)  dis= 0.09813  next Energy=  -687.295254 (dE=-0.174E+01)
 bond charge predicted
       N       E                     dE             d eps       ncg     rms          rms(c)
DAV:   1    -0.685416503321E+03    0.25259E+00   -0.42332E+02 15344   0.267E+01    0.753E+00
RMM:   2    -0.686408494133E+03   -0.99199E+00   -0.89124E+00 14848   0.489E+00    0.928E+00
RMM:   3    -0.689255896847E+03   -0.28474E+01   -0.24326E+00 15385   0.229E+00    0.225E+01
RMM:   4    -0.686752048458E+03    0.25038E+01   -0.62429E-01 15220   0.130E+00    0.879E+00
RMM:   5    -0.686276032755E+03    0.47602E+00   -0.18173E-01 15087   0.770E-01    0.374E+00
RMM:   6    -0.686257376455E+03    0.18656E-01   -0.93200E-02 15276   0.477E-01    0.243E+00
RMM:   7    -0.686301946750E+03   -0.44570E-01   -0.77503E-02 15222   0.418E-01    0.251E+00
RMM:   8    -0.686312352040E+03   -0.10405E-01   -0.51383E-02 15431   0.337E-01    0.119E+00
RMM:   9    -0.686329649094E+03   -0.17297E-01   -0.22296E-02 15102   0.243E-01    0.899E-01
RMM:  10    -0.686331164217E+03   -0.15151E-02   -0.77539E-03 14949   0.159E-01    0.833E-01
RMM:  11    -0.686333024378E+03   -0.18602E-02   -0.25460E-03 15179   0.755E-02    0.402E-01
RMM:  12    -0.686335279454E+03   -0.22551E-02   -0.10084E-03 13534   0.483E-02    0.348E-01
RMM:  13    -0.686336111736E+03   -0.83228E-03   -0.54755E-04 12473   0.386E-02    0.180E-01
RMM:  14    -0.686337334991E+03   -0.12233E-02   -0.33164E-04 11027   0.276E-02    0.109E-01
RMM:  15    -0.686338358692E+03   -0.10237E-02   -0.10221E-04  8967   0.193E-02    0.713E-02
RMM:  16    -0.686339369538E+03   -0.10108E-02   -0.41280E-05  8560   0.118E-02    0.732E-02
RMM:  17    -0.686340378784E+03   -0.10092E-02   -0.23739E-05  8083   0.823E-03    0.628E-02
RMM:  18    -0.686341654853E+03   -0.12761E-02   -0.20698E-05  7962   0.725E-03    0.397E-02
RMM:  19    -0.686343352482E+03   -0.16976E-02   -0.22214E-05  7829   0.646E-03    0.360E-02
RMM:  20    -0.686344722502E+03   -0.13700E-02   -0.16030E-05  7248   0.566E-03    0.351E-02
RMM:  21    -0.686346167765E+03   -0.14453E-02   -0.17511E-05  6908   0.529E-03    0.315E-02
RMM:  22    -0.686349096265E+03   -0.29285E-02   -0.55710E-05  8075   0.682E-03    0.270E-02
RMM:  23    -0.686351236994E+03   -0.21407E-02   -0.42758E-05  7640   0.608E-03    0.257E-02
RMM:  24    -0.686352457443E+03   -0.12204E-02   -0.20835E-05  6714   0.534E-03    0.205E-02
RMM:  25    -0.686353155173E+03   -0.69773E-03   -0.93332E-06  5278   0.440E-03    0.173E-02
RMM:  26    -0.686353888178E+03   -0.73301E-03   -0.58509E-06  4780   0.383E-03    0.158E-02
RMM:  27    -0.686354701825E+03   -0.81365E-03   -0.45490E-06  4809   0.365E-03    0.131E-02
RMM:  28    -0.686355460645E+03   -0.75882E-03   -0.27975E-06  4244   0.338E-03    0.113E-02
RMM:  29    -0.686356206340E+03   -0.74569E-03   -0.21313E-06  4012   0.323E-03    0.113E-02
RMM:  30    -0.686356790831E+03   -0.58449E-03   -0.19042E-06  3754   0.311E-03    0.106E-02
RMM:  31    -0.686357534048E+03   -0.74322E-03   -0.33578E-06  4295   0.329E-03    0.102E-02
RMM:  32    -0.686358106733E+03   -0.57268E-03   -0.31723E-06  4161   0.319E-03    0.100E-02
RMM:  33    -0.686358932912E+03   -0.82618E-03   -0.61372E-06  4679   0.347E-03    0.942E-03
RMM:  34    -0.686359550022E+03   -0.61711E-03   -0.56932E-06  4355   0.338E-03    0.636E-03
RMM:  35    -0.686359974660E+03   -0.42464E-03   -0.49060E-06  4193   0.337E-03    0.420E-03
RMM:  36    -0.686360215977E+03   -0.24132E-03   -0.36300E-06  3955   0.328E-03    0.398E-03
RMM:  37    -0.686360351783E+03   -0.13581E-03   -0.19374E-06  3368   0.310E-03    0.312E-03
RMM:  38    -0.686360460064E+03   -0.10828E-03   -0.12137E-06  2891   0.294E-03    0.246E-03
RMM:  39    -0.686360574909E+03   -0.11484E-03   -0.13297E-06  2859   0.292E-03    0.188E-03
RMM:  40    -0.686360635520E+03   -0.60611E-04   -0.83465E-07  2659   0.289E-03
   3 F= -.68636064E+03 E0= -.68580355E+03  d E =-.803686E+00  mag=     4.7288
 curvature:  -0.27 expect dE=-0.240E+01 dE for cont linesearch -0.262E+00
 ZBRENT: interpolating
 opt :   0.3555  next Energy=  -686.532146 (dE=-0.975E+00)
 bond charge predicted
       N       E                     dE             d eps       ncg     rms          rms(c)
DAV:   1    -0.686581220756E+03   -0.22065E+00   -0.25584E+01 15408   0.664E+00    0.178E+00
RMM:   2    -0.686666690592E+03   -0.85470E-01   -0.53853E-01 14849   0.119E+00    0.288E+00
RMM:   3    -0.686836739988E+03   -0.17005E+00   -0.12880E-01 15504   0.515E-01    0.625E+00
RMM:   4    -0.686633409002E+03    0.20333E+00   -0.32411E-02 14987   0.333E-01    0.168E+00
RMM:   5    -0.686633456319E+03   -0.47317E-04   -0.97080E-03 15095   0.180E-01    0.150E+00
RMM:   6    -0.686627203060E+03    0.62533E-02   -0.44906E-03 14743   0.116E-01    0.912E-01
RMM:   7    -0.686626703417E+03    0.49964E-03   -0.10956E-02 16741   0.147E-01    0.692E-01
RMM:   8    -0.686627554673E+03   -0.85126E-03   -0.28212E-03 14633   0.905E-02    0.474E-01
RMM:   9    -0.686627022237E+03    0.53244E-03   -0.81856E-04 13354   0.578E-02    0.246E-01
RMM:  10    -0.686627024611E+03   -0.23739E-05   -0.23292E-04 10098   0.268E-02
   4 F= -.68662702E+03 E0= -.68606879E+03  d E =-.107008E+01  mag=     4.7125
 curvature:  -0.18 expect dE=-0.784E+00 dE for cont linesearch -0.280E-01
 ZBRENT: interpolating
 opt :   0.3921  next Energy=  -686.646948 (dE=-0.109E+01)
 bond charge predicted
       N       E                     dE             d eps       ncg     rms          rms(c)
DAV:   1    -0.686615549184E+03    0.11473E-01   -0.21178E+00 15376   0.191E+00    0.470E-01
RMM:   2    -0.686621059014E+03   -0.55098E-02   -0.46218E-02 14774   0.360E-01    0.557E-01
RMM:   3    -0.686622081195E+03   -0.10222E-02   -0.94764E-03 15240   0.141E-01    0.504E-01
RMM:   4    -0.686623715767E+03   -0.16346E-02   -0.23262E-03 14761   0.723E-02    0.662E-01
RMM:   5    -0.686622454514E+03    0.12613E-02   -0.62994E-04 12932   0.426E-02    0.452E-01
RMM:   6    -0.686621566088E+03    0.88843E-03   -0.32989E-04 11216   0.334E-02    0.208E-01
RMM:   7    -0.686621648970E+03   -0.82882E-04   -0.57210E-04 12016   0.359E-02    0.212E-01
RMM:   8    -0.686621772993E+03   -0.12402E-03   -0.33182E-04 11050   0.288E-02    0.189E-01
RMM:   9    -0.686621656139E+03    0.11685E-03   -0.10373E-04  8595   0.203E-02    0.671E-02
RMM:  10    -0.686621741666E+03   -0.85527E-04   -0.29699E-05  8013   0.115E-02
   5 F= -.68662174E+03 E0= -.68606375E+03  d E =-.106479E+01  mag=     4.7136
 curvature:  -0.13 expect dE=-0.804E+00 dE for cont linesearch -0.309E-01
 ZBRENT: interpolating
 opt :   0.3718  next Energy=  -686.635896 (dE=-0.108E+01)
 bond charge predicted
       N       E                     dE             d eps       ncg     rms          rms(c)
DAV:   1    -0.686635396720E+03   -0.13741E-01   -0.65186E-01 15296   0.106E+00    0.266E-01
RMM:   2    -0.686637590219E+03   -0.21935E-02   -0.14114E-02 14598   0.198E-01    0.424E-01
RMM:   3    -0.686641513459E+03   -0.39232E-02   -0.33862E-03 14809   0.829E-02    0.890E-01
RMM:   4    -0.686637224726E+03    0.42887E-02   -0.82567E-04 13035   0.524E-02    0.269E-01
RMM:   5    -0.686637180609E+03    0.44117E-04   -0.25071E-04 10106   0.295E-02    0.185E-01
RMM:   6    -0.686637123477E+03    0.57132E-04   -0.12099E-04  8669   0.207E-02    0.122E-01
RMM:   7    -0.686637128369E+03   -0.48927E-05   -0.21804E-04  9416   0.229E-02    0.114E-01
RMM:   8    -0.686637182355E+03   -0.53986E-04   -0.97490E-05  8421   0.184E-02
   6 F= -.68663718E+03 E0= -.68607903E+03  d E =-.108023E+01  mag=     4.7123
 curvature:  -0.04 expect dE=-0.183E+00 dE for cont linesearch -0.106E-03
 trial: gam= 0.68982 g(F)=  0.504E+01 g(S)=  0.000E+00 ort =-0.148E+00 (trialstep = 0.782E+00)
 search vector abs. value=  0.842E+01
 bond charge predicted
       N       E                     dE             d eps       ncg     rms          rms(c)
DAV:   1    -0.680007813729E+03    0.66293E+01   -0.11229E+03 14848   0.490E+01    0.141E+01
RMM:   2    -0.700510322883E+03   -0.20503E+02   -0.41705E+01 14857   0.116E+01    0.777E+01
RMM:   3    -0.691110140351E+03    0.94002E+01   -0.10642E+01 16602   0.480E+00    0.586E+01
RMM:   4    -0.697181778860E+03   -0.60716E+01   -0.21363E+00 15509   0.225E+00    0.635E+01
RMM:   5    -0.682216111267E+03    0.14966E+02   -0.19668E+00 15330   0.204E+00    0.246E+01
RMM:   6    -0.682647476840E+03   -0.43137E+00   -0.89859E-01 15170   0.154E+00    0.193E+01
RMM:   7    -0.682725993812E+03   -0.78517E-01   -0.45330E-01 15011   0.120E+00    0.220E+01
RMM:   8    -0.682458545250E+03    0.26745E+00   -0.12063E+00 16796   0.138E+00    0.149E+01
RMM:   9    -0.681974538992E+03    0.48401E+00   -0.27893E-01 15153   0.841E-01    0.122E+01
RMM:  10    -0.681977425355E+03   -0.28864E-02   -0.18933E-01 15421   0.676E-01    0.104E+01
RMM:  11    -0.682314207877E+03   -0.33678E+00   -0.16555E-01 15761   0.577E-01    0.125E+01
RMM:  12    -0.682400258043E+03   -0.86050E-01   -0.56322E-02 15461   0.368E-01    0.124E+01
RMM:  13    -0.682269989202E+03    0.13027E+00   -0.45098E-02 15569   0.276E-01    0.104E+01
RMM:  14    -0.681815925999E+03    0.45406E+00   -0.21088E-01 18289   0.484E-01    0.790E+00
RMM:  15    -0.681574116798E+03    0.24181E+00   -0.48784E-02 16717   0.298E-01    0.728E+00
RMM:  16    -0.681563659586E+03    0.10457E-01   -0.40466E-02 16688   0.293E-01    0.582E+00
RMM:  17    -0.681623163768E+03   -0.59504E-01   -0.21326E-02 15557   0.204E-01    0.522E+00
RMM:  18    -0.681677704617E+03   -0.54541E-01   -0.10263E-02 15233   0.143E-01    0.486E+00
RMM:  19    -0.681739790750E+03   -0.62086E-01   -0.10465E-02 15737   0.123E-01    0.451E+00
RMM:  20    -0.681778803784E+03   -0.39013E-01   -0.57563E-03 15350   0.920E-02    0.418E+00
RMM:  21    -0.681808197118E+03   -0.29393E-01   -0.47284E-03 15709   0.815E-02    0.378E+00
RMM:  22    -0.681843571770E+03   -0.35375E-01   -0.57961E-03 16541   0.888E-02    0.330E+00
RMM:  23    -0.681887926146E+03   -0.44354E-01   -0.47679E-03 16682   0.830E-02    0.293E+00
RMM:  24    -0.681902194862E+03   -0.14269E-01   -0.10689E-03 14153   0.478E-02    0.274E+00
RMM:  25    -0.681913286149E+03   -0.11091E-01   -0.15234E-03 14525   0.507E-02    0.249E+00
RMM:  26    -0.681924340050E+03   -0.11054E-01   -0.13985E-03 14372   0.481E-02    0.225E+00
RMM:  27    -0.681934142821E+03   -0.98028E-02   -0.99604E-04 13594   0.411E-02    0.206E+00
RMM:  28    -0.681951019923E+03   -0.16877E-01   -0.16843E-03 14706   0.513E-02    0.181E+00
RMM:  29    -0.681974095988E+03   -0.23076E-01   -0.19624E-03 15710   0.580E-02    0.146E+00
RMM:  30    -0.681983424366E+03   -0.93284E-02   -0.61276E-04 12210   0.359E-02    0.130E+00
RMM:  31    -0.681987947933E+03   -0.45236E-02   -0.52644E-04 11856   0.323E-02    0.114E+00
RMM:  32    -0.681989159667E+03   -0.12117E-02   -0.29972E-04 10376   0.242E-02    0.102E+00
RMM:  33    -0.681989979163E+03   -0.81950E-03   -0.11772E-04  9069   0.170E-02    0.954E-01
RMM:  34    -0.681991726727E+03   -0.17476E-02   -0.15235E-04  9306   0.179E-02    0.867E-01
RMM:  35    -0.682000212693E+03   -0.84860E-02   -0.36214E-04 10790   0.247E-02    0.750E-01
RMM:  36    -0.681998838618E+03    0.13741E-02   -0.42991E-04 11050   0.269E-02    0.601E-01
RMM:  37    -0.681998737938E+03    0.10068E-03   -0.28064E-04 10100   0.229E-02    0.506E-01
RMM:  38    -0.682002486036E+03   -0.37481E-02   -0.15292E-04  9298   0.174E-02    0.482E-01
RMM:  39    -0.682003133788E+03   -0.64775E-03   -0.12884E-04  9069   0.153E-02    0.410E-01
RMM:  40    -0.682000768057E+03    0.23657E-02   -0.18934E-04  9490   0.175E-02    0.303E-01
RMM:  41    -0.682001174609E+03   -0.40655E-03   -0.57506E-05  8130   0.116E-02    0.266E-01
RMM:  42    -0.682002453873E+03   -0.12793E-02   -0.25733E-05  7606   0.843E-03    0.247E-01
RMM:  43    -0.682003188311E+03   -0.73444E-03   -0.26799E-05  7573   0.780E-03    0.214E-01
RMM:  44    -0.682005417556E+03   -0.22292E-02   -0.37083E-05  7777   0.793E-03    0.176E-01
RMM:  45    -0.682007289487E+03   -0.18719E-02   -0.24893E-05  7478   0.715E-03    0.150E-01
RMM:  46    -0.682008245427E+03   -0.95594E-03   -0.19753E-05  7114   0.670E-03    0.126E-01
RMM:  47    -0.682007503236E+03    0.74219E-03   -0.16173E-04  8921   0.161E-02    0.191E-02
RMM:  48    -0.682009124355E+03   -0.16211E-02   -0.16239E-05  7196   0.812E-03    0.192E-02
RMM:  49    -0.682010450727E+03   -0.13264E-02   -0.59135E-06  5559   0.439E-03    0.184E-02
RMM:  50    -0.682011104984E+03   -0.65426E-03   -0.23348E-06  4107   0.341E-03    0.171E-02
RMM:  51    -0.682012098289E+03   -0.99330E-03   -0.31791E-06  4210   0.332E-03    0.127E-02
RMM:  52    -0.682012756953E+03   -0.65866E-03   -0.24661E-06  3859   0.316E-03    0.890E-03
RMM:  53    -0.682013618133E+03   -0.86118E-03   -0.39938E-06  4150   0.329E-03    0.995E-03
RMM:  54    -0.682014413684E+03   -0.79555E-03   -0.50580E-06  4064   0.328E-03    0.764E-03
RMM:  55    -0.682014954962E+03   -0.54128E-03   -0.51826E-06  4026   0.328E-03    0.532E-03
RMM:  56    -0.682015347597E+03   -0.39263E-03   -0.54095E-06  4031   0.330E-03    0.368E-03
RMM:  57    -0.682015526162E+03   -0.17857E-03   -0.30071E-06  3421   0.315E-03    0.375E-03
RMM:  58    -0.682015587583E+03   -0.61421E-04   -0.14480E-06  2817   0.294E-03
   7 F= -.68201559E+03 E0= -.68141371E+03  d E =0.462159E+01  mag=     4.7254
 trial-energy change:    4.621595  1 .order    3.479417   -3.859784   10.818618
 step:   0.1492(harm=  0.2055)  dis= 0.02906  next Energy=  -686.997574 (dE=-0.360E+00)
 bond charge predicted
       N       E                     dE             d eps       ncg     rms          rms(c)
DAV:   1    -0.685717209453E+03   -0.37017E+01   -0.72491E+02 14976   0.386E+01    0.136E+01
RMM:   2    -0.688779787197E+03   -0.30626E+01   -0.17871E+01 14916   0.791E+00    0.250E+01
RMM:   3    -0.687303336169E+03    0.14765E+01   -0.37815E+00 16308   0.325E+00    0.119E+01
RMM:   4    -0.693923862180E+03   -0.66205E+01   -0.12609E+00 15012   0.182E+00    0.331E+01
RMM:   5    -0.691440170041E+03    0.24837E+01   -0.94092E-01 15075   0.168E+00    0.328E+01
RMM:   6    -0.688039901763E+03    0.34003E+01   -0.71024E-01 15284   0.133E+00    0.169E+01
RMM:   7    -0.687439105792E+03    0.60080E+00   -0.37071E-01 15156   0.104E+00    0.131E+01
RMM:   8    -0.686933719690E+03    0.50539E+00   -0.34027E-01 15353   0.790E-01    0.877E+00
RMM:   9    -0.686666065697E+03    0.26765E+00   -0.14649E-01 15440   0.576E-01    0.506E+00
RMM:  10    -0.686686470601E+03   -0.20405E-01   -0.33766E-02 15267   0.309E-01    0.405E+00
RMM:  11    -0.686730832419E+03   -0.44362E-01   -0.14161E-02 15780   0.165E-01    0.359E+00
RMM:  12    -0.686829551679E+03   -0.98719E-01   -0.27152E-02 15904   0.201E-01    0.317E+00
RMM:  13    -0.686913774730E+03   -0.84223E-01   -0.29817E-02 17108   0.222E-01    0.255E+00
RMM:  14    -0.686968328202E+03   -0.54553E-01   -0.24137E-02 16948   0.202E-01    0.165E+00
RMM:  15    -0.686994600425E+03   -0.26272E-01   -0.12422E-02 16040   0.155E-01    0.107E+00
RMM:  16    -0.687002438106E+03   -0.78377E-02   -0.26849E-03 15163   0.858E-02    0.853E-01
RMM:  17    -0.687006912247E+03   -0.44741E-02   -0.11241E-03 14378   0.505E-02    0.682E-01
RMM:  18    -0.687014606667E+03   -0.76944E-02   -0.65428E-04 12931   0.367E-02    0.499E-01
RMM:  19    -0.687022398920E+03   -0.77923E-02   -0.59222E-04 12471   0.345E-02    0.280E-01
RMM:  20    -0.687027752895E+03   -0.53540E-02   -0.21048E-04  9846   0.240E-02    0.208E-01
RMM:  21    -0.687031741312E+03   -0.39884E-02   -0.11233E-04  9075   0.189E-02    0.142E-01
RMM:  22    -0.687035100241E+03   -0.33589E-02   -0.73519E-05  8977   0.145E-02    0.108E-01
RMM:  23    -0.687036949453E+03   -0.18492E-02   -0.39193E-05  8769   0.102E-02    0.836E-02
RMM:  24    -0.687037971291E+03   -0.10218E-02   -0.38525E-05  8415   0.891E-03    0.583E-02
RMM:  25    -0.687038179275E+03   -0.20798E-03   -0.16272E-05  7618   0.654E-03    0.478E-02
RMM:  26    -0.687038340658E+03   -0.16138E-03   -0.92237E-06  6764   0.497E-03    0.397E-02
RMM:  27    -0.687038072040E+03    0.26862E-03   -0.18850E-05  8039   0.552E-03    0.442E-02
RMM:  28    -0.687036467374E+03    0.16047E-02   -0.19772E-05  7656   0.520E-03    0.443E-02
RMM:  29    -0.687035368749E+03    0.10986E-02   -0.90252E-06  6356   0.439E-03    0.374E-02
RMM:  30    -0.687035299715E+03    0.69034E-04   -0.40201E-06  5009   0.372E-03
   8 F= -.68703530E+03 E0= -.68647471E+03  d E =-.398117E+00  mag=     4.7134
 curvature:  -0.17 expect dE=-0.194E+01 dE for cont linesearch -0.242E-02
 trial: gam= 1.90699 g(F)=  0.112E+02 g(S)=  0.000E+00 ort = 0.343E+00 (trialstep = 0.128E+00)
 search vector abs. value=  0.431E+02
 bond charge predicted
       N       E                     dE             d eps       ncg     rms          rms(c)
DAV:   1    -0.686081802694E+03    0.95357E+00   -0.16192E+02 15088   0.185E+01    0.517E+00
RMM:   2    -0.686717169822E+03   -0.63537E+00   -0.38852E+00 14848   0.351E+00    0.164E+01
RMM:   3    -0.686784836842E+03   -0.67667E-01   -0.80908E-01 16097   0.139E+00    0.151E+01
RMM:   4    -0.686504290584E+03    0.28055E+00   -0.25582E-01 14950   0.750E-01    0.103E+01
RMM:   5    -0.687955187186E+03   -0.14509E+01   -0.23540E-01 15602   0.695E-01    0.201E+01
RMM:   6    -0.687012413687E+03    0.94277E+00   -0.80564E-02 14885   0.565E-01    0.156E+01
RMM:   7    -0.686963913345E+03    0.48500E-01   -0.48261E-02 14978   0.381E-01    0.153E+01
RMM:   8    -0.686412894759E+03    0.55102E+00   -0.26929E-01 18738   0.641E-01    0.104E+01
RMM:   9    -0.686444678345E+03   -0.31784E-01   -0.63889E-02 15990   0.381E-01    0.926E+00
RMM:  10    -0.686458640012E+03   -0.13962E-01   -0.21879E-02 15225   0.257E-01    0.860E+00
RMM:  11    -0.686445842087E+03    0.12798E-01   -0.98298E-03 15151   0.155E-01    0.843E+00
RMM:  12    -0.686429934593E+03    0.15907E-01   -0.74338E-03 15154   0.125E-01    0.849E+00
RMM:  13    -0.686417189445E+03    0.12745E-01   -0.25148E-03 14377   0.809E-02    0.848E+00
RMM:  14    -0.686407710518E+03    0.94789E-02   -0.14748E-03 14048   0.554E-02    0.848E+00
RMM:  15    -0.686401458612E+03    0.62519E-02   -0.72879E-04 13216   0.436E-02    0.845E+00
RMM:  16    -0.686395205320E+03    0.62533E-02   -0.41317E-04 11446   0.302E-02    0.840E+00
RMM:  17    -0.686393900945E+03    0.13044E-02   -0.12162E-04  9156   0.201E-02    0.840E+00
RMM:  18    -0.686393880827E+03    0.20118E-04   -0.48946E-05  8755   0.127E-02
   9 F= -.68639388E+03 E0= -.68581431E+03  d E =0.641419E+00  mag=     4.6833
 trial-energy change:    0.641419  1 .order   -0.352864   -1.512297    0.806569
 step:   0.0835(harm=  0.0835)  dis= 0.03271  next Energy=  -687.528438 (dE=-0.493E+00)
 bond charge predicted
       N       E                     dE             d eps       ncg     rms          rms(c)
DAV:   1    -0.686804208425E+03   -0.41031E+00   -0.19561E+01 15472   0.637E+00    0.675E+00
RMM:   2    -0.686803394792E+03    0.81363E-03   -0.47327E-01 14849   0.123E+00    0.408E+00
RMM:   3    -0.687072922716E+03   -0.26953E+00   -0.15187E-01 14856   0.717E-01    0.850E+00
RMM:   4    -0.688325276212E+03   -0.12524E+01   -0.17388E-01 15471   0.651E-01    0.161E+01
RMM:   5    -0.686872360178E+03    0.14529E+01   -0.12188E-01 15422   0.609E-01    0.439E+00
RMM:   6    -0.686812147974E+03    0.60212E-01   -0.88871E-02 15646   0.473E-01    0.286E+00
RMM:   7    -0.686758637202E+03    0.53511E-01   -0.20162E-02 14867   0.270E-01    0.118E+00
RMM:   8    -0.686753565224E+03    0.50720E-02   -0.48222E-03 15063   0.133E-01    0.471E-01
RMM:   9    -0.686757775182E+03   -0.42100E-02   -0.17963E-03 14343   0.648E-02    0.390E-01
RMM:  10    -0.686764625362E+03   -0.68502E-02   -0.14921E-03 14033   0.534E-02    0.334E-01
RMM:  11    -0.686768749120E+03   -0.41238E-02   -0.11126E-03 14178   0.481E-02    0.292E-01
RMM:  12    -0.686771247785E+03   -0.24987E-02   -0.65631E-04 13115   0.397E-02    0.135E-01
RMM:  13    -0.686772504800E+03   -0.12570E-02   -0.22295E-04  9976   0.253E-02    0.113E-01
RMM:  14    -0.686773027036E+03   -0.52224E-03   -0.78740E-05  8792   0.171E-02    0.828E-02
RMM:  15    -0.686773339463E+03   -0.31243E-03   -0.30766E-05  8187   0.999E-03    0.508E-02
RMM:  16    -0.686773672546E+03   -0.33308E-03   -0.23488E-05  7803   0.764E-03    0.425E-02
RMM:  17    -0.686773947839E+03   -0.27529E-03   -0.21674E-05  7669   0.705E-03    0.398E-02
RMM:  18    -0.686773974846E+03   -0.27007E-04   -0.13121E-05  6901   0.569E-03
  10 F= -.68677397E+03 E0= -.68620405E+03  d E =0.261325E+00  mag=     4.5925
 curvature:  -0.15 expect dE=-0.124E+01 dE for cont linesearch -0.355E+00
 ZBRENT: interpolating
 opt :   0.0452  next Energy=  -686.965967 (dE= 0.693E-01)
 bond charge predicted
       N       E                     dE             d eps       ncg     rms          rms(c)
DAV:   1    -0.687017666723E+03   -0.24372E+00   -0.14511E+01 15472   0.552E+00    0.196E+00
RMM:   2    -0.687067189883E+03   -0.49523E-01   -0.33049E-01 14854   0.102E+00    0.373E+00
RMM:   3    -0.687090694981E+03   -0.23505E-01   -0.74943E-02 16007   0.417E-01    0.428E+00
RMM:   4    -0.687105965011E+03   -0.15270E-01   -0.17590E-02 17874   0.184E-01    0.477E+00
RMM:   5    -0.687261528328E+03   -0.15556E+00   -0.91589E-03 15083   0.129E-01    0.736E+00
RMM:   6    -0.687244097100E+03    0.17431E-01   -0.26457E-03 14825   0.105E-01    0.716E+00
RMM:   7    -0.687256998002E+03   -0.12901E-01   -0.11207E-03 13889   0.480E-02    0.730E+00
RMM:   8    -0.687233176286E+03    0.23822E-01   -0.47868E-02 24117   0.261E-01    0.576E+00
RMM:   9    -0.687056406050E+03    0.17677E+00   -0.33839E-02 23573   0.224E-01    0.328E+00
RMM:  10    -0.687052976433E+03    0.34296E-02   -0.37349E-03 17995   0.107E-01    0.280E+00
RMM:  11    -0.687052988962E+03   -0.12529E-04   -0.78210E-04 14091   0.557E-02
  11 F= -.68705299E+03 E0= -.68648695E+03  d E =-.176892E-01  mag=     4.5647
 curvature:  -0.08 expect dE=-0.528E+00 dE for cont linesearch -0.956E-01
 ZBRENT: bisectioning
 opt :   0.0226  next Energy=  -687.193049 (dE=-0.158E+00)
 bond charge predicted
       N       E                     dE             d eps       ncg     rms          rms(c)
DAV:   1    -0.687166043714E+03   -0.11307E+00   -0.50202E+00 15536   0.324E+00    0.165E+00
RMM:   2    -0.687265412851E+03   -0.99369E-01   -0.10723E-01 14848   0.600E-01    0.358E+00
RMM:   3    -0.687429542680E+03   -0.16413E+00   -0.45021E-02 14905   0.353E-01    0.653E+00
RMM:   4    -0.687211427185E+03    0.21812E+00   -0.15930E-02 14862   0.262E-01    0.242E+00
RMM:   5    -0.687183664360E+03    0.27763E-01   -0.61680E-03 14857   0.150E-01    0.155E+00
RMM:   6    -0.687175211879E+03    0.84525E-02   -0.32926E-03 14625   0.103E-01    0.653E-01
RMM:   7    -0.687175582475E+03   -0.37060E-03   -0.23194E-03 14630   0.777E-02    0.693E-01
RMM:   8    -0.687174171767E+03    0.14107E-02   -0.89086E-04 13510   0.559E-02    0.456E-01
RMM:   9    -0.687173700853E+03    0.47091E-03   -0.55508E-04 12217   0.354E-02    0.318E-01
RMM:  10    -0.687173616419E+03    0.84434E-04   -0.15434E-04  9334   0.246E-02
  12 F= -.68717362E+03 E0= -.68661136E+03  d E =-.138317E+00  mag=     4.5573
 curvature:  -0.12 expect dE=-0.952E+00 dE for cont linesearch -0.224E-02
 trial: gam= 0.11515 g(F)=  0.790E+01 g(S)=  0.000E+00 ort =-0.893E+00 (trialstep = 0.107E+00)
 search vector abs. value=  0.826E+01
 bond charge predicted
       N       E                     dE             d eps       ncg     rms          rms(c)
DAV:   1    -0.687047738956E+03    0.12596E+00   -0.24704E+01 15376   0.804E+00    0.164E+00
RMM:   2    -0.687238927926E+03   -0.19119E+00   -0.56396E-01 14854   0.142E+00    0.649E+00
RMM:   3    -0.687184285434E+03    0.54642E-01   -0.90362E-02 15510   0.554E-01    0.500E+00
RMM:   4    -0.687233893169E+03   -0.49608E-01   -0.26562E-02 14939   0.303E-01    0.523E+00
RMM:   5    -0.687099723962E+03    0.13417E+00   -0.11675E-02 14922   0.196E-01    0.183E+00
RMM:   6    -0.687103154452E+03   -0.34305E-02   -0.47931E-03 15099   0.120E-01    0.222E+00
RMM:   7    -0.687118793128E+03   -0.15639E-01   -0.35613E-03 15111   0.954E-02    0.265E+00
RMM:   8    -0.687098765812E+03    0.20027E-01   -0.45017E-03 16246   0.107E-01    0.178E+00
RMM:   9    -0.687095035260E+03    0.37306E-02   -0.11379E-03 13872   0.623E-02    0.137E+00
RMM:  10    -0.687092077240E+03    0.29580E-02   -0.49797E-04 12348   0.389E-02    0.114E+00
RMM:  11    -0.687090837332E+03    0.12399E-02   -0.18636E-04  9677   0.238E-02    0.107E+00
RMM:  12    -0.687089514805E+03    0.13225E-02   -0.81081E-05  8907   0.172E-02    0.967E-01
RMM:  13    -0.687088158834E+03    0.13560E-02   -0.96277E-05  8822   0.167E-02    0.847E-01
RMM:  14    -0.687085534182E+03    0.26247E-02   -0.33905E-04 10693   0.271E-02    0.668E-01
RMM:  15    -0.687084938168E+03    0.59601E-03   -0.96704E-05  8812   0.182E-02    0.594E-01
RMM:  16    -0.687085931543E+03   -0.99337E-03   -0.70823E-05  8656   0.141E-02    0.471E-01
RMM:  17    -0.687086837402E+03   -0.90586E-03   -0.11416E-04  8847   0.152E-02    0.299E-01
RMM:  18    -0.687088025098E+03   -0.11877E-02   -0.11186E-04  8869   0.156E-02    0.129E-01
RMM:  19    -0.687090470084E+03   -0.24450E-02   -0.66103E-05  8562   0.127E-02    0.628E-02
RMM:  20    -0.687091794276E+03   -0.13242E-02   -0.36271E-05  8245   0.967E-03    0.386E-02
RMM:  21    -0.687093728085E+03   -0.19338E-02   -0.19228E-05  7195   0.699E-03    0.393E-02
RMM:  22    -0.687096581673E+03   -0.28536E-02   -0.23107E-05  7066   0.582E-03    0.490E-02
RMM:  23    -0.687099659515E+03   -0.30778E-02   -0.24937E-05  6709   0.564E-03    0.377E-02
RMM:  24    -0.687101368684E+03   -0.17092E-02   -0.13932E-05  5881   0.506E-03    0.328E-02
RMM:  25    -0.687103351069E+03   -0.19824E-02   -0.17606E-05  5852   0.489E-03    0.281E-02
RMM:  26    -0.687104850021E+03   -0.14990E-02   -0.11953E-05  5015   0.439E-03    0.247E-02
RMM:  27    -0.687106080219E+03   -0.12302E-02   -0.99508E-06  4843   0.416E-03    0.213E-02
RMM:  28    -0.687107166419E+03   -0.10862E-02   -0.70768E-06  4652   0.391E-03    0.217E-02
RMM:  29    -0.687107999624E+03   -0.83320E-03   -0.43942E-06  4634   0.366E-03    0.129E-02
RMM:  30    -0.687108653040E+03   -0.65342E-03   -0.24380E-06  3779   0.323E-03    0.105E-02
RMM:  31    -0.687109094776E+03   -0.44174E-03   -0.15350E-06  3277   0.302E-03    0.129E-02
RMM:  32    -0.687109338224E+03   -0.24345E-03   -0.14135E-06  3176   0.296E-03    0.124E-02
RMM:  33    -0.687109486961E+03   -0.14874E-03   -0.12627E-06  2942   0.290E-03    0.119E-02
RMM:  34    -0.687109612247E+03   -0.12529E-03   -0.10017E-06  2731   0.286E-03    0.113E-02
RMM:  35    -0.687109732106E+03   -0.11986E-03   -0.92645E-07  2653   0.283E-03    0.101E-02
RMM:  36    -0.687109849052E+03   -0.11695E-03   -0.93698E-07  2643   0.283E-03    0.808E-03
RMM:  37    -0.687110030565E+03   -0.18151E-03   -0.19621E-06  3111   0.294E-03    0.503E-03
RMM:  38    -0.687110098062E+03   -0.67497E-04   -0.88485E-07  2701   0.286E-03
  13 F= -.68711010E+03 E0= -.68654387E+03  d E =0.635184E-01  mag=     4.3186
 trial-energy change:    0.063518  1 .order    0.068471   -0.833215    0.970157
 step:   0.0498(harm=  0.0494)  dis= 0.00648  next Energy=  -687.368312 (dE=-0.195E+00)
 bond charge predicted
       N       E                     dE             d eps       ncg     rms          rms(c)
DAV:   1    -0.687382135184E+03   -0.27210E+00   -0.70477E+00 15504   0.429E+00    0.903E-01
RMM:   2    -0.687413721544E+03   -0.31586E-01   -0.16140E-01 14854   0.765E-01    0.286E+00
RMM:   3    -0.687409181073E+03    0.45405E-02   -0.25980E-02 15554   0.295E-01    0.232E+00
RMM:   4    -0.687410564387E+03   -0.13833E-02   -0.80043E-03 14853   0.165E-01    0.196E+00
RMM:   5    -0.687393746294E+03    0.16818E-01   -0.23923E-03 14894   0.889E-02    0.957E-01
RMM:   6    -0.687394745876E+03   -0.99958E-03   -0.11808E-03 13839   0.544E-02    0.140E+00
RMM:   7    -0.687388232503E+03    0.65134E-02   -0.17578E-03 15307   0.623E-02    0.106E+00
RMM:   8    -0.687386424092E+03    0.18084E-02   -0.62940E-04 13447   0.485E-02    0.927E-01
RMM:   9    -0.687386554479E+03   -0.13039E-03   -0.18727E-04  9499   0.254E-02    0.792E-01
RMM:  10    -0.687386982486E+03   -0.42801E-03   -0.63576E-05  8768   0.157E-02    0.739E-01
RMM:  11    -0.687387311749E+03   -0.32926E-03   -0.24288E-05  8236   0.893E-03    0.717E-01
RMM:  12    -0.687388081891E+03   -0.77014E-03   -0.61025E-05  8579   0.111E-02    0.658E-01
RMM:  13    -0.687389035133E+03   -0.95324E-03   -0.71567E-05  8550   0.121E-02    0.582E-01
RMM:  14    -0.687389486467E+03   -0.45133E-03   -0.24651E-05  8054   0.894E-03    0.551E-01
RMM:  15    -0.687389949288E+03   -0.46282E-03   -0.22445E-05  7690   0.712E-03    0.499E-01
RMM:  16    -0.687390610525E+03   -0.66124E-03   -0.30477E-05  8143   0.801E-03    0.409E-01
RMM:  17    -0.687391465824E+03   -0.85530E-03   -0.65246E-05  8426   0.106E-02    0.291E-01
RMM:  18    -0.687392149773E+03   -0.68395E-03   -0.96502E-05  8675   0.128E-02    0.162E-01
RMM:  19    -0.687392625618E+03   -0.47584E-03   -0.76727E-05  8507   0.123E-02    0.542E-02
RMM:  20    -0.687392976157E+03   -0.35054E-03   -0.17916E-05  7425   0.828E-03    0.433E-02
RMM:  21    -0.687393203685E+03   -0.22753E-03   -0.66851E-06  5075   0.416E-03    0.407E-02
RMM:  22    -0.687393668608E+03   -0.46492E-03   -0.75003E-06  6186   0.445E-03    0.196E-02
RMM:  23    -0.687394281871E+03   -0.61326E-03   -0.53848E-06  5589   0.407E-03    0.187E-02
RMM:  24    -0.687394711132E+03   -0.42926E-03   -0.20402E-06  4127   0.340E-03    0.225E-02
RMM:  25    -0.687395216597E+03   -0.50546E-03   -0.10131E-06  3238   0.299E-03    0.217E-02
RMM:  26    -0.687395776951E+03   -0.56035E-03   -0.75323E-07  2981   0.294E-03    0.211E-02
RMM:  27    -0.687396338741E+03   -0.56179E-03   -0.93451E-07  3051   0.291E-03    0.204E-02
RMM:  28    -0.687396744083E+03   -0.40534E-03   -0.86594E-07  2832   0.286E-03    0.233E-02
RMM:  29    -0.687397101593E+03   -0.35751E-03   -0.72261E-07  2649   0.281E-03    0.241E-02
RMM:  30    -0.687397596094E+03   -0.49450E-03   -0.83875E-07  2623   0.281E-03    0.209E-02
RMM:  31    -0.687397801677E+03   -0.20558E-03   -0.70327E-07  2571   0.284E-03    0.201E-02
RMM:  32    -0.687397907856E+03   -0.10618E-03   -0.57428E-07  2446   0.284E-03    0.191E-02
RMM:  33    -0.687398009076E+03   -0.10122E-03   -0.81579E-07  2553   0.287E-03    0.177E-02
RMM:  34    -0.687398092681E+03   -0.83605E-04   -0.85106E-07  2542   0.286E-03
  14 F= -.68739809E+03 E0= -.68683370E+03  d E =-.224476E+00  mag=     4.4535
 curvature:  -0.03 expect dE=-0.305E-01 dE for cont linesearch -0.296E-04
 trial: gam= 0.07150 g(F)=  0.117E+01 g(S)=  0.000E+00 ort = 0.967E-01 (trialstep = 0.955E-01)
 search vector abs. value=  0.122E+01
 bond charge predicted
       N       E                     dE             d eps       ncg     rms          rms(c)
DAV:   1    -0.687354272497E+03    0.43737E-01   -0.28809E+00 15424   0.269E+00    0.445E-01
RMM:   2    -0.687369108425E+03   -0.14836E-01   -0.65202E-02 14852   0.482E-01    0.157E+00
RMM:   3    -0.687362981009E+03    0.61274E-02   -0.10341E-02 15720   0.185E-01    0.871E-01
RMM:   4    -0.687372379972E+03   -0.93990E-02   -0.29087E-03 14959   0.956E-02    0.154E+00
RMM:   5    -0.687362681352E+03    0.96986E-02   -0.99125E-04 13896   0.626E-02    0.746E-01
RMM:   6    -0.687361689008E+03    0.99234E-03   -0.53697E-04 12935   0.415E-02    0.658E-01
RMM:   7    -0.687362519755E+03   -0.83075E-03   -0.39557E-04 11519   0.318E-02    0.665E-01
RMM:   8    -0.687361534972E+03    0.98478E-03   -0.34183E-04 11090   0.308E-02    0.436E-01
RMM:   9    -0.687361504907E+03    0.30065E-04   -0.10891E-04  8767   0.204E-02
  15 F= -.68736150E+03 E0= -.68679917E+03  d E =0.365878E-01  mag=     4.4504
 trial-energy change:    0.036588  1 .order    0.034816   -0.112005    0.181636
 step:   0.0356(harm=  0.0364)  dis= 0.00257  next Energy=  -687.418888 (dE=-0.208E-01)
 bond charge predicted
       N       E                     dE             d eps       ncg     rms          rms(c)
DAV:   1    -0.687417632529E+03   -0.56098E-01   -0.11316E+00 15504   0.168E+00    0.362E-01
RMM:   2    -0.687476988409E+03   -0.59356E-01   -0.29050E-02 14868   0.315E-01    0.312E+00
RMM:   3    -0.687419834080E+03    0.57154E-01   -0.56393E-03 14851   0.161E-01    0.485E-01
RMM:   4    -0.687419980460E+03   -0.14638E-03   -0.11994E-03 14279   0.767E-02    0.241E-01
RMM:   5    -0.687420097660E+03   -0.11720E-03   -0.38595E-04 11060   0.348E-02    0.281E-01
RMM:   6    -0.687420366412E+03   -0.26875E-03   -0.14265E-04  8968   0.218E-02    0.329E-01
RMM:   7    -0.687419932487E+03    0.43392E-03   -0.23096E-04  9593   0.266E-02    0.153E-01
RMM:   8    -0.687420042407E+03   -0.10992E-03   -0.14596E-04  8878   0.227E-02    0.156E-01
RMM:   9    -0.687419939627E+03    0.10278E-03   -0.50655E-05  8443   0.154E-02    0.773E-02
RMM:  10    -0.687419919678E+03    0.19949E-04   -0.11972E-05  7920   0.770E-03
  16 F= -.68741992E+03 E0= -.68685624E+03  d E =-.218270E-01  mag=     4.4500
 curvature:  -0.02 expect dE=-0.157E-02 dE for cont linesearch -0.511E-05
 ZBRENT: interpolating
 opt :   0.0362  next Energy=  -687.419925 (dE=-0.218E-01)
 bond charge predicted
       N       E                     dE             d eps       ncg     rms          rms(c)
DAV:   1    -0.687419930056E+03    0.95717E-05   -0.10964E-04 12448   0.182E-02    0.217E-02
RMM:   2    -0.687419985676E+03   -0.55620E-04   -0.17428E-05  7688   0.873E-03    0.935E-02
RMM:   3    -0.687419954469E+03    0.31207E-04   -0.77149E-06  6863   0.572E-03    0.694E-02
RMM:   4    -0.687419929157E+03    0.25312E-04   -0.19223E-06  5058   0.368E-03    0.168E-02
RMM:   5    -0.687419926321E+03    0.28361E-05   -0.28637E-07  2446   0.269E-03    0.156E-02
RMM:   6    -0.687419922909E+03    0.34123E-05   -0.13413E-07  2088   0.262E-03    0.782E-03
RMM:   7    -0.687419923382E+03   -0.47354E-06   -0.27694E-07  1731   0.274E-03    0.857E-03
RMM:   8    -0.687419924027E+03   -0.64473E-06   -0.17167E-07  1477   0.273E-03
  17 F= -.68741992E+03 E0= -.68685628E+03  d E =-.218313E-01  mag=     4.4496
 curvature:  -0.02 expect dE=-0.158E-02 dE for cont linesearch -0.107E-05
 trial: gam= 0.03357 g(F)=  0.830E-01 g(S)=  0.000E+00 ort = 0.830E-02 (trialstep = 0.836E-01)
 search vector abs. value=  0.849E-01
 bond charge predicted
       N       E                     dE             d eps       ncg     rms          rms(c)
DAV:   1    -0.687423191289E+03   -0.32679E-02   -0.13262E-01 15600   0.522E-01    0.121E-01
RMM:   2    -0.687423699036E+03   -0.50775E-03   -0.26839E-03 14764   0.104E-01    0.258E-01
RMM:   3    -0.687423600506E+03    0.98530E-04   -0.60143E-04 12943   0.424E-02    0.228E-01
RMM:   4    -0.687423478206E+03    0.12230E-03   -0.11888E-04  8762   0.210E-02    0.158E-01
RMM:   5    -0.687423656637E+03   -0.17843E-03   -0.54108E-05  8447   0.145E-02    0.246E-01
RMM:   6    -0.687423406763E+03    0.24987E-03   -0.86624E-05  8452   0.162E-02    0.130E-01
RMM:   7    -0.687423355015E+03    0.51748E-04   -0.10813E-04  8486   0.172E-02    0.763E-02
RMM:   8    -0.687423330103E+03    0.24912E-04   -0.33963E-05  8146   0.121E-02
  18 F= -.68742333E+03 E0= -.68686025E+03  d E =-.340608E-02  mag=     4.4505
 trial-energy change:   -0.003406  1 .order   -0.003583   -0.006962   -0.000205
 step:   0.0862(harm=  0.0862)  dis= 0.00127  next Energy=  -687.423510 (dE=-0.359E-02)
 bond charge predicted
       N       E                     dE             d eps       ncg     rms          rms(c)
DAV:   1    -0.687423316468E+03    0.38547E-04   -0.12073E-04 10336   0.194E-02    0.499E-02
RMM:   2    -0.687423729687E+03   -0.41322E-03   -0.65600E-05  7941   0.139E-02    0.262E-01
RMM:   3    -0.687423361744E+03    0.36794E-03   -0.45758E-05  7965   0.133E-02    0.117E-01
RMM:   4    -0.687423342148E+03    0.19595E-04   -0.20697E-05  7584   0.954E-03    0.766E-02
RMM:   5    -0.687423309100E+03    0.33049E-04   -0.78356E-06  6927   0.560E-03    0.311E-02
RMM:   6    -0.687423305876E+03    0.32234E-05   -0.36970E-06  5533   0.412E-03    0.245E-02
RMM:   7    -0.687423300307E+03    0.55690E-05   -0.95370E-07  3396   0.316E-03    0.119E-02
RMM:   8    -0.687423299400E+03    0.90779E-06   -0.17199E-07  1923   0.281E-03
  19 F= -.68742330E+03 E0= -.68686018E+03  d E =-.337537E-02  mag=     4.4517
 curvature:  -0.04 expect dE=-0.365E-02 dE for cont linesearch -0.182E-07
 trial: gam= 1.00137 g(F)=  0.831E-01 g(S)=  0.000E+00 ort =-0.188E-03 (trialstep = 0.426E-01)
 search vector abs. value=  0.168E+00
 bond charge predicted
       N       E                     dE             d eps       ncg     rms          rms(c)
DAV:   1    -0.687426217283E+03   -0.29170E-02   -0.59561E-02 15280   0.294E-01    0.826E-02
RMM:   2    -0.687426495986E+03   -0.27870E-03   -0.10295E-03 14158   0.663E-02    0.205E-01
RMM:   3    -0.687426322804E+03    0.17318E-03   -0.26538E-04  9989   0.270E-02    0.119E-01
RMM:   4    -0.687426371290E+03   -0.48486E-04   -0.60691E-05  8312   0.166E-02    0.130E-01
RMM:   5    -0.687426347706E+03    0.23583E-04   -0.55758E-05  8236   0.131E-02    0.153E-01
RMM:   6    -0.687426244375E+03    0.10333E-03   -0.43550E-05  7934   0.125E-02    0.773E-02
RMM:   7    -0.687426214610E+03    0.29766E-04   -0.34900E-05  7960   0.103E-02    0.408E-02
RMM:   8    -0.687426214131E+03    0.47848E-06   -0.14343E-05  7166   0.753E-03
  20 F= -.68742621E+03 E0= -.68686328E+03  d E =-.291473E-02  mag=     4.4531
 trial-energy change:   -0.002915  1 .order   -0.003006   -0.003529   -0.002484
 step:   0.1438(harm=  0.1438)  dis= 0.00369  next Energy=  -687.429262 (dE=-0.596E-02)
 bond charge predicted
       N       E                     dE             d eps       ncg     rms          rms(c)
DAV:   1    -0.687428027747E+03   -0.18131E-02   -0.33625E-01 15424   0.698E-01    0.195E-01
RMM:   2    -0.687429661115E+03   -0.16334E-02   -0.58582E-03 14867   0.157E-01    0.471E-01
RMM:   3    -0.687428863314E+03    0.79780E-03   -0.16279E-03 15067   0.644E-02    0.316E-01
RMM:   4    -0.687428719411E+03    0.14390E-03   -0.36048E-04 10823   0.308E-02    0.219E-01
RMM:   5    -0.687428931368E+03   -0.21196E-03   -0.31787E-04 11043   0.307E-02    0.353E-01
RMM:   6    -0.687428399844E+03    0.53152E-03   -0.23608E-04  9724   0.278E-02    0.169E-01
RMM:   7    -0.687428316269E+03    0.83575E-04   -0.20108E-04  9272   0.227E-02    0.932E-02
RMM:   8    -0.687428317078E+03   -0.80905E-06   -0.64902E-05  8374   0.165E-02
  21 F= -.68742832E+03 E0= -.68686583E+03  d E =-.501768E-02  mag=     4.4547
 curvature:  -0.15 expect dE=-0.180E-01 dE for cont linesearch -0.145E-03
 trial: gam= 1.55271 g(F)=  0.124E+00 g(S)=  0.000E+00 ort =-0.129E-01 (trialstep = 0.216E-01)
 search vector abs. value=  0.488E+00
 bond charge predicted
       N       E                     dE             d eps       ncg     rms          rms(c)
DAV:   1    -0.687430027586E+03   -0.17113E-02   -0.44227E-02 15696   0.257E-01    0.865E-02
RMM:   2    -0.687430415755E+03   -0.38817E-03   -0.85383E-04 13827   0.579E-02    0.234E-01
RMM:   3    -0.687430366001E+03    0.49753E-04   -0.28361E-04 10312   0.266E-02    0.200E-01
RMM:   4    -0.687430138724E+03    0.22728E-03   -0.79945E-05  8391   0.185E-02    0.101E-01
RMM:   5    -0.687430127902E+03    0.10822E-04   -0.35760E-05  7975   0.121E-02    0.778E-02
RMM:   6    -0.687430107118E+03    0.20784E-04   -0.24818E-05  7631   0.968E-03    0.710E-02
RMM:   7    -0.687430088618E+03    0.18500E-04   -0.15671E-05  7391   0.751E-03    0.306E-02
RMM:   8    -0.687430094662E+03   -0.60444E-05   -0.78925E-06  6792   0.532E-03
  22 F= -.68743009E+03 E0= -.68686773E+03  d E =-.177758E-02  mag=     4.4565
 trial-energy change:   -0.001778  1 .order   -0.001808   -0.002239   -0.001378
 step:   0.0562(harm=  0.0562)  dis= 0.00239  next Energy=  -687.431228 (dE=-0.291E-02)
 bond charge predicted
       N       E                     dE             d eps       ncg     rms          rms(c)
DAV:   1    -0.687431146394E+03   -0.10578E-02   -0.11394E-01 15520   0.410E-01    0.112E-01
RMM:   2    -0.687431622358E+03   -0.47596E-03   -0.20129E-03 14561   0.912E-02    0.244E-01
RMM:   3    -0.687431594214E+03    0.28144E-04   -0.57812E-04 12725   0.384E-02    0.207E-01
RMM:   4    -0.687431483645E+03    0.11057E-03   -0.13343E-04  8876   0.211E-02    0.188E-01
RMM:   5    -0.687431478238E+03    0.54069E-05   -0.82678E-05  8500   0.176E-02    0.173E-01
RMM:   6    -0.687431389989E+03    0.88249E-04   -0.66724E-05  8223   0.151E-02    0.129E-01
RMM:   7    -0.687431309958E+03    0.80032E-04   -0.61611E-05  8094   0.139E-02    0.623E-02
RMM:   8    -0.687431314444E+03   -0.44866E-05   -0.33624E-05  7725   0.106E-02
  23 F= -.68743131E+03 E0= -.68686913E+03  d E =-.299737E-02  mag=     4.4581
 curvature:  -0.13 expect dE=-0.494E-02 dE for cont linesearch -0.104E-04
 trial: gam=-0.04288 g(F)=  0.373E-01 g(S)=  0.000E+00 ort = 0.618E-02 (trialstep = 0.285E-01)
 search vector abs. value=  0.377E-01
 bond charge predicted
       N       E                     dE             d eps       ncg     rms          rms(c)
DAV:   1    -0.687432132680E+03   -0.82272E-03   -0.70801E-03 15456   0.126E-01    0.315E-02
RMM:   2    -0.687432461457E+03   -0.32878E-03   -0.17103E-04  8616   0.253E-02    0.227E-01
RMM:   3    -0.687432150697E+03    0.31076E-03   -0.35031E-05  8003   0.135E-02    0.524E-02
RMM:   4    -0.687432157735E+03   -0.70377E-05   -0.10438E-05  7449   0.679E-03    0.521E-02
RMM:   5    -0.687432148916E+03    0.88188E-05   -0.54362E-06  6484   0.476E-03    0.263E-02
RMM:   6    -0.687432154085E+03   -0.51685E-05   -0.31840E-06  5516   0.389E-03    0.300E-02
RMM:   7    -0.687432157667E+03   -0.35825E-05   -0.19373E-06  4776   0.353E-03    0.249E-02
RMM:   8    -0.687432166013E+03   -0.83453E-05   -0.19797E-06  4554   0.343E-03
  24 F= -.68743217E+03 E0= -.68686993E+03  d E =-.851569E-03  mag=     4.4600
 trial-energy change:   -0.000852  1 .order   -0.000829   -0.001057   -0.000602
 step:   0.0663(harm=  0.0663)  dis= 0.00064  next Energy=  -687.432543 (dE=-0.123E-02)
 bond charge predicted
       N       E                     dE             d eps       ncg     rms          rms(c)
DAV:   1    -0.687432600195E+03   -0.44253E-03   -0.12307E-02 15552   0.165E-01    0.296E-02
RMM:   2    -0.687432646586E+03   -0.46391E-04   -0.26082E-04  9296   0.325E-02    0.834E-02
RMM:   3    -0.687432636522E+03    0.10064E-04   -0.45814E-05  7936   0.148E-02    0.499E-02
RMM:   4    -0.687432631764E+03    0.47587E-05   -0.11426E-05  7429   0.708E-03    0.420E-02
RMM:   5    -0.687432643233E+03   -0.11469E-04   -0.45069E-06  6191   0.440E-03    0.527E-02
RMM:   6    -0.687432652508E+03   -0.92749E-05   -0.31780E-06  5601   0.405E-03    0.483E-02
RMM:   7    -0.687432650725E+03    0.17827E-05   -0.65539E-06  6863   0.470E-03    0.313E-02
RMM:   8    -0.687432661795E+03   -0.11070E-04   -0.32711E-06  5634   0.387E-03
  25 F= -.68743266E+03 E0= -.68687035E+03  d E =-.134735E-02  mag=     4.4617
 curvature:  -0.03 expect dE=-0.593E-03 dE for cont linesearch -0.988E-05
 trial: gam= 0.37243 g(F)=  0.176E-01 g(S)=  0.000E+00 ort = 0.332E-02 (trialstep = 0.361E-01)
 search vector abs. value=  0.253E-01
 bond charge predicted
       N       E                     dE             d eps       ncg     rms          rms(c)
DAV:   1    -0.687433152862E+03   -0.50214E-03   -0.71053E-03 15600   0.116E-01    0.287E-02
RMM:   2    -0.687433248883E+03   -0.96021E-04   -0.16018E-04  8397   0.253E-02    0.113E-01
RMM:   3    -0.687433206999E+03    0.41884E-04   -0.34116E-05  7953   0.133E-02    0.697E-02
RMM:   4    -0.687433185104E+03    0.21894E-04   -0.95366E-06  7271   0.625E-03    0.229E-02
RMM:   5    -0.687433191388E+03   -0.62832E-05   -0.32885E-06  5904   0.422E-03    0.216E-02
RMM:   6    -0.687433209272E+03   -0.17885E-04   -0.16733E-06  4314   0.346E-03    0.278E-02
RMM:   7    -0.687433224543E+03   -0.15271E-04   -0.19897E-06  4659   0.350E-03    0.201E-02
RMM:   8    -0.687433237399E+03   -0.12856E-04   -0.94788E-07  3109   0.307E-03
  26 F= -.68743324E+03 E0= -.68687085E+03  d E =-.575604E-03  mag=     4.4631
 trial-energy change:   -0.000576  1 .order   -0.000502   -0.000680   -0.000325
 step:   0.0691(harm=  0.0691)  dis= 0.00044  next Energy=  -687.433313 (dE=-0.651E-03)
 bond charge predicted
       N       E                     dE             d eps       ncg     rms          rms(c)
DAV:   1    -0.687433392373E+03   -0.16783E-03   -0.59768E-03 15632   0.107E-01    0.246E-02
RMM:   2    -0.687433492541E+03   -0.10017E-03   -0.13086E-04  8238   0.230E-02    0.112E-01
RMM:   3    -0.687433428438E+03    0.64102E-04   -0.26346E-05  7913   0.117E-02    0.447E-02
RMM:   4    -0.687433423621E+03    0.48180E-05   -0.70179E-06  6891   0.545E-03    0.198E-02
RMM:   5    -0.687433434808E+03   -0.11187E-04   -0.23718E-06  5360   0.379E-03    0.281E-02
RMM:   6    -0.687433453002E+03   -0.18194E-04   -0.15756E-06  4479   0.339E-03    0.332E-02
RMM:   7    -0.687433465318E+03   -0.12316E-04   -0.19096E-06  4326   0.344E-03    0.186E-02
RMM:   8    -0.687433474997E+03   -0.96787E-05   -0.70647E-07  3033   0.304E-03
  27 F= -.68743347E+03 E0= -.68687100E+03  d E =-.813202E-03  mag=     4.4643
 curvature:  -0.05 expect dE=-0.323E-03 dE for cont linesearch -0.101E-05
 trial: gam= 0.39305 g(F)=  0.696E-02 g(S)=  0.000E+00 ort = 0.743E-03 (trialstep = 0.427E-01)
 search vector abs. value=  0.115E-01
 bond charge predicted
       N       E                     dE             d eps       ncg     rms          rms(c)
DAV:   1    -0.687433736795E+03   -0.27148E-03   -0.42207E-03 15264   0.810E-02    0.232E-02
RMM:   2    -0.687433905474E+03   -0.16868E-03   -0.91792E-05  8023   0.190E-02    0.162E-01
RMM:   3    -0.687433754547E+03    0.15093E-03   -0.21115E-05  7914   0.107E-02    0.442E-02
RMM:   4    -0.687433757649E+03   -0.31012E-05   -0.52148E-06  6483   0.460E-03    0.479E-02
RMM:   5    -0.687433764249E+03   -0.66006E-05   -0.13031E-06  4148   0.340E-03    0.535E-02
RMM:   6    -0.687433771942E+03   -0.76929E-05   -0.27987E-06  5594   0.364E-03    0.533E-02
RMM:   7    -0.687433758349E+03    0.13593E-04   -0.22572E-06  4611   0.353E-03    0.171E-02
RMM:   8    -0.687433761965E+03   -0.36161E-05   -0.82734E-07  2907   0.300E-03
  28 F= -.68743376E+03 E0= -.68687124E+03  d E =-.286969E-03  mag=     4.4655
 trial-energy change:   -0.000287  1 .order   -0.000263   -0.000309   -0.000216
 step:   0.1418(harm=  0.1418)  dis= 0.00074  next Energy=  -687.433989 (dE=-0.514E-03)
 bond charge predicted
       N       E                     dE             d eps       ncg     rms          rms(c)
DAV:   1    -0.687434033944E+03   -0.27559E-03   -0.22622E-02 15408   0.187E-01    0.511E-02
RMM:   2    -0.687434250962E+03   -0.21702E-03   -0.42192E-04 11752   0.425E-02    0.192E-01
RMM:   3    -0.687434088924E+03    0.16204E-03   -0.10237E-04  8276   0.186E-02    0.880E-02
RMM:   4    -0.687434136515E+03   -0.47591E-04   -0.27148E-05  7829   0.110E-02    0.126E-01
RMM:   5    -0.687434121633E+03    0.14882E-04   -0.15262E-05  7529   0.751E-03    0.116E-01
RMM:   6    -0.687434109260E+03    0.12372E-04   -0.18190E-05  7720   0.798E-03    0.971E-02
RMM:   7    -0.687434053836E+03    0.55424E-04   -0.11836E-05  7227   0.669E-03    0.418E-02
RMM:   8    -0.687434051525E+03    0.23116E-05   -0.45650E-06  6385   0.458E-03
  29 F= -.68743405E+03 E0= -.68687144E+03  d E =-.576528E-03  mag=     4.4667
 curvature:  -0.11 expect dE=-0.850E-03 dE for cont linesearch -0.262E-05
 trial: gam= 1.01799 g(F)=  0.759E-02 g(S)=  0.000E+00 ort = 0.518E-03 (trialstep = 0.349E-01)
 search vector abs. value=  0.205E-01
 bond charge predicted
       N       E                     dE             d eps       ncg     rms          rms(c)
DAV:   1    -0.687434297471E+03   -0.24363E-03   -0.48807E-03 15408   0.820E-02    0.321E-02
RMM:   2    -0.687434401720E+03   -0.10425E-03   -0.89636E-05  8146   0.184E-02    0.121E-01
RMM:   3    -0.687434348990E+03    0.52730E-04   -0.28233E-05  7891   0.111E-02    0.875E-02
RMM:   4    -0.687434319785E+03    0.29205E-04   -0.76767E-06  6865   0.598E-03    0.395E-02
RMM:   5    -0.687434316632E+03    0.31536E-05   -0.19289E-06  4700   0.359E-03    0.237E-02
RMM:   6    -0.687434336276E+03   -0.19644E-04   -0.23255E-06  4851   0.355E-03    0.471E-02
RMM:   7    -0.687434338446E+03   -0.21703E-05   -0.19273E-06  4692   0.358E-03    0.326E-02
RMM:   8    -0.687434340068E+03   -0.16213E-05   -0.76758E-07  2641   0.290E-03
  30 F= -.68743434E+03 E0= -.68687164E+03  d E =-.288543E-03  mag=     4.4678
 ZBRENT: can't locate minimum, use default step
 trial-energy change:   -0.000289  1 .order   -0.000251   -0.000283   -0.000220
 step:   0.1396(harm=  0.1556)  dis= 0.00133  next Energy=  -687.434683 (dE=-0.631E-03)
 bond charge predicted
       N       E                     dE             d eps       ncg     rms          rms(c)
DAV:   1    -0.687434635166E+03   -0.29672E-03   -0.44025E-02 15360   0.245E-01    0.724E-02
RMM:   2    -0.687435031684E+03   -0.39652E-03   -0.75041E-04 13569   0.566E-02    0.259E-01
RMM:   3    -0.687434741651E+03    0.29003E-03   -0.20289E-04  9305   0.233E-02    0.133E-01
RMM:   4    -0.687434939599E+03   -0.19795E-03   -0.52502E-05  8142   0.148E-02    0.211E-01
RMM:   5    -0.687434807062E+03    0.13254E-03   -0.30680E-05  7980   0.107E-02    0.161E-01
RMM:   6    -0.687434770516E+03    0.36546E-04   -0.41753E-05  7966   0.116E-02    0.114E-01
RMM:   7    -0.687434709130E+03    0.61386E-04   -0.25228E-05  7856   0.979E-03    0.480E-02
RMM:   8    -0.687434713552E+03   -0.44223E-05   -0.85625E-06  7022   0.610E-03
  31 F= -.68743471E+03 E0= -.68687181E+03  d E =-.662028E-03  mag=     4.4688
 curvature:  -0.19 expect dE=-0.167E-02 dE for cont linesearch -0.276E-06
 trial: gam= 1.09910 g(F)=  0.867E-02 g(S)=  0.000E+00 ort =-0.171E-03 (trialstep = 0.346E-01)
 search vector abs. value=  0.331E-01
 bond charge predicted
       N       E                     dE             d eps       ncg     rms          rms(c)
DAV:   1    -0.687434905114E+03   -0.19598E-03   -0.79558E-03 15408   0.110E-01    0.373E-02
RMM:   2    -0.687434966002E+03   -0.60887E-04   -0.14485E-04  8525   0.238E-02    0.879E-02
RMM:   3    -0.687434942630E+03    0.23371E-04   -0.33481E-05  7957   0.121E-02    0.415E-02
RMM:   4    -0.687435027317E+03   -0.84687E-04   -0.19073E-05  7488   0.755E-03    0.130E-01
RMM:   5    -0.687434956548E+03    0.70769E-04   -0.82732E-06  6996   0.677E-03    0.521E-02
RMM:   6    -0.687434958827E+03   -0.22786E-05   -0.24913E-06  5173   0.366E-03    0.320E-02
RMM:   7    -0.687434965300E+03   -0.64736E-05   -0.12883E-06  4046   0.325E-03    0.125E-02
RMM:   8    -0.687434970127E+03   -0.48266E-05   -0.33605E-07  2442   0.284E-03
  32 F= -.68743497E+03 E0= -.68687193E+03  d E =-.256575E-03  mag=     4.4695
 trial-energy change:   -0.000257  1 .order   -0.000198   -0.000294   -0.000102
 step:   0.0531(harm=  0.0531)  dis= 0.00060  next Energy=  -687.434939 (dE=-0.225E-03)
 bond charge predicted
       N       E                     dE             d eps       ncg     rms          rms(c)
DAV:   1    -0.687435008579E+03   -0.43279E-04   -0.22983E-03 15072   0.587E-02    0.172E-02
RMM:   2    -0.687435068625E+03   -0.60045E-04   -0.46675E-05  7950   0.139E-02    0.890E-02
RMM:   3    -0.687435027760E+03    0.40864E-04   -0.97778E-06  7560   0.707E-03    0.390E-02
RMM:   4    -0.687435042460E+03   -0.14700E-04   -0.29272E-06  4974   0.361E-03    0.628E-02
RMM:   5    -0.687435037111E+03    0.53492E-05   -0.12782E-06  4086   0.331E-03    0.423E-02
RMM:   6    -0.687435037937E+03   -0.82648E-06   -0.92770E-07  3255   0.301E-03    0.189E-02
RMM:   7    -0.687435045993E+03   -0.80557E-05   -0.45273E-07  2480   0.281E-03    0.154E-02
RMM:   8    -0.687435050109E+03   -0.41160E-05   -0.78554E-08  1407   0.258E-03
  33 F= -.68743505E+03 E0= -.68687197E+03  d E =-.336557E-03  mag=     4.4699
 curvature:  -0.10 expect dE=-0.266E-03 dE for cont linesearch -0.152E-05
 ZBRENT: extrapolating
 opt :   0.0588  next Energy=  -687.435052 (dE=-0.339E-03)
 bond charge predicted
       N       E                     dE             d eps       ncg     rms          rms(c)
DAV:   1    -0.687435056201E+03   -0.10208E-04   -0.22407E-04 12192   0.187E-02    0.143E-02
RMM:   2    -0.687435184163E+03   -0.12796E-03   -0.18878E-05  7722   0.741E-03    0.135E-01
RMM:   3    -0.687435057741E+03    0.12642E-03   -0.10069E-05  7049   0.701E-03    0.309E-02
RMM:   4    -0.687435065512E+03   -0.77708E-05   -0.18082E-06  4541   0.348E-03    0.185E-02
RMM:   5    -0.687435066693E+03   -0.11811E-05   -0.11745E-07  1552   0.254E-03    0.145E-02
RMM:   6    -0.687435070077E+03   -0.33841E-05   -0.33290E-08  1097   0.247E-03    0.150E-02
RMM:   7    -0.687435079706E+03   -0.96290E-05   -0.25252E-08  1099   0.248E-03    0.136E-02
RMM:   8    -0.687435081881E+03   -0.21753E-05   -0.27187E-09   999   0.241E-03
  34 F= -.68743508E+03 E0= -.68687199E+03  d E =-.368329E-03  mag=     4.4702
 curvature:  -0.14 expect dE=-0.348E-03 dE for cont linesearch -0.248E-06
 trial: gam= 0.12443 g(F)=  0.257E-02 g(S)=  0.000E+00 ort =-0.246E-03 (trialstep = 0.395E-01)
 search vector abs. value=  0.302E-02
 bond charge predicted
       N       E                     dE             d eps       ncg     rms          rms(c)
DAV:   1    -0.687435165878E+03   -0.86172E-04   -0.10019E-03 14624   0.421E-02    0.105E-02
RMM:   2    -0.687435174592E+03   -0.87141E-05   -0.19345E-05  7736   0.897E-03    0.308E-02
RMM:   3    -0.687435171921E+03    0.26709E-05   -0.35747E-06  6356   0.452E-03    0.151E-02
RMM:   4    -0.687435176809E+03   -0.48879E-05   -0.27718E-07  2044   0.257E-03    0.313E-02
RMM:   5    -0.687435175501E+03    0.13078E-05   -0.20772E-07  2074   0.258E-03    0.164E-02
RMM:   6    -0.687435176226E+03   -0.72441E-06   -0.90029E-08  1555   0.247E-03    0.678E-03
RMM:   7    -0.687435179877E+03   -0.36513E-05   -0.22382E-08  1104   0.245E-03    0.116E-02
RMM:   8    -0.687435181158E+03   -0.12812E-05   -0.40382E-08  1079   0.248E-03
  35 F= -.68743518E+03 E0= -.68687207E+03  d E =-.992772E-04  mag=     4.4704
 trial-energy change:   -0.000099  1 .order   -0.000080   -0.000100   -0.000061
 step:   0.0998(harm=  0.0998)  dis= 0.00033  next Energy=  -687.435209 (dE=-0.127E-03)
 bond charge predicted
       N       E                     dE             d eps       ncg     rms          rms(c)
DAV:   1    -0.687435231694E+03   -0.51817E-04   -0.23409E-03 15024   0.642E-02    0.168E-02
RMM:   2    -0.687435245359E+03   -0.13664E-04   -0.45124E-05  7847   0.137E-02    0.469E-02
RMM:   3    -0.687435241337E+03    0.40218E-05   -0.88624E-06  7428   0.661E-03    0.313E-02
RMM:   4    -0.687435243815E+03   -0.24780E-05   -0.22670E-06  4633   0.347E-03    0.393E-02
RMM:   5    -0.687435239502E+03    0.43132E-05   -0.13825E-06  3893   0.325E-03    0.231E-02
RMM:   6    -0.687435240568E+03   -0.10666E-05   -0.57626E-07  2778   0.297E-03    0.208E-02
RMM:   7    -0.687435243010E+03   -0.24418E-05   -0.10972E-07  1549   0.268E-03    0.239E-02
RMM:   8    -0.687435241274E+03    0.17362E-05   -0.21304E-07  1578   0.275E-03
  36 F= -.68743524E+03 E0= -.68687210E+03  d E =-.159393E-03  mag=     4.4707
 curvature:  -0.06 expect dE=-0.185E-03 dE for cont linesearch -0.335E-06
 trial: gam= 1.10976 g(F)=  0.312E-02 g(S)=  0.000E+00 ort = 0.131E-03 (trialstep = 0.219E-01)
 search vector abs. value=  0.713E-02
 bond charge predicted
       N       E                     dE             d eps       ncg     rms          rms(c)
DAV:   1    -0.687435308145E+03   -0.65135E-04   -0.70160E-04 14464   0.314E-02    0.142E-02
RMM:   2    -0.687435310821E+03   -0.26759E-05   -0.12654E-05  7597   0.721E-03    0.224E-02
RMM:   3    -0.687435312334E+03   -0.15135E-05   -0.20777E-06  4648   0.356E-03    0.246E-02
RMM:   4    -0.687435311991E+03    0.34330E-06   -0.28940E-07  1982   0.271E-03    0.237E-02
RMM:   5    -0.687435310148E+03    0.18426E-05   -0.28923E-08  1342   0.256E-03    0.196E-02
RMM:   6    -0.687435310079E+03    0.69012E-07   -0.27906E-09  1002   0.247E-03    0.192E-02
RMM:   7    -0.687435309744E+03    0.33480E-06   -0.15138E-07  1472   0.263E-03    0.270E-02
RMM:   8    -0.687435310045E+03   -0.30097E-06   -0.22949E-09   917   0.244E-03
  37 F= -.68743531E+03 E0= -.68687218E+03  d E =-.687717E-04  mag=     4.4708
 ZBRENT: can't locate minimum, use default step
 trial-energy change:   -0.000069  1 .order   -0.000066   -0.000071   -0.000061
 step:   0.0874(harm=  0.1456)  dis= 0.00049  next Energy=  -687.435479 (dE=-0.237E-03)
 reached required accuracy - stopping structural energy minimisation
 writing wavefunctions
