       N       E                     dE             d eps       ncg     rms          rms(c)
DAV:   1     0.721577938483E+04    0.72158E+04   -0.28223E+05 12752   0.124E+03
DAV:   2     0.591922027976E+03   -0.66239E+04   -0.59672E+04 13600   0.370E+02
DAV:   3    -0.707352306951E+03   -0.12993E+04   -0.12445E+04 15648   0.163E+02
DAV:   4    -0.780211309097E+03   -0.72859E+02   -0.70894E+02 17280   0.432E+01
DAV:   5    -0.781884164450E+03   -0.16729E+01   -0.16509E+01 16192   0.609E+00    0.173E+02
RMM:   6    -0.610749701744E+03    0.17113E+03   -0.59227E+02 12603   0.389E+01    0.128E+02
RMM:   7    -0.629994590934E+03   -0.19245E+02   -0.11584E+02 12556   0.241E+01    0.600E+01
RMM:   8    -0.637287451736E+03   -0.72929E+01   -0.51704E+01 12611   0.113E+01    0.107E+02
RMM:   9    -0.582674526175E+03    0.54613E+02   -0.20431E+01 12555   0.925E+00    0.202E+01
RMM:  10    -0.588210125366E+03   -0.55356E+01   -0.93578E+00 13168   0.361E+00    0.127E+01
RMM:  11    -0.605416430801E+03   -0.17206E+02   -0.60372E+00 13113   0.378E+00    0.136E+01
RMM:  12    -0.610141923728E+03   -0.47255E+01   -0.29499E+00 12624   0.266E+00    0.104E+01
RMM:  13    -0.617581326698E+03   -0.74394E+01   -0.30667E+00 13153   0.257E+00    0.111E+01
RMM:  14    -0.622583335163E+03   -0.50020E+01   -0.39267E+00 13934   0.266E+00    0.930E+00
RMM:  15    -0.624491435296E+03   -0.19081E+01   -0.61292E-01 12718   0.128E+00    0.131E+01
RMM:  16    -0.625610369911E+03   -0.11189E+01   -0.78515E-01 13059   0.136E+00    0.850E+00
RMM:  17    -0.632443000806E+03   -0.68326E+01   -0.14692E+00 14283   0.165E+00    0.720E+00
RMM:  18    -0.640810915717E+03   -0.83679E+01   -0.37294E+00 16142   0.224E+00    0.480E+00
RMM:  19    -0.643625821236E+03   -0.28149E+01   -0.83521E-01 14034   0.115E+00    0.471E+00
RMM:  20    -0.645517288703E+03   -0.18915E+01   -0.60546E-01 13854   0.958E-01    0.292E+00
RMM:  21    -0.647903974390E+03   -0.23867E+01   -0.61673E-01 14288   0.871E-01    0.332E+00
RMM:  22    -0.649130937807E+03   -0.12270E+01   -0.38085E-01 13981   0.721E-01    0.235E+00
RMM:  23    -0.650152012060E+03   -0.10211E+01   -0.27538E-01 13938   0.596E-01    0.190E+00
RMM:  24    -0.650698107258E+03   -0.54610E+00   -0.10611E-01 13198   0.396E-01    0.173E+00
RMM:  25    -0.651340950893E+03   -0.64284E+00   -0.18811E-01 14351   0.449E-01    0.149E+00
RMM:  26    -0.651691870661E+03   -0.35092E+00   -0.13070E-01 14177   0.376E-01    0.147E+00
RMM:  27    -0.651879557330E+03   -0.18769E+00   -0.81066E-02 14102   0.279E-01    0.995E-01
RMM:  28    -0.651989534939E+03   -0.10998E+00   -0.19319E-02 13193   0.161E-01    0.829E-01
RMM:  29    -0.652027615266E+03   -0.38080E-01   -0.73580E-03 13076   0.124E-01    0.634E-01
RMM:  30    -0.652054117113E+03   -0.26502E-01   -0.39411E-03 12691   0.987E-02    0.511E-01
RMM:  31    -0.652077473676E+03   -0.23357E-01   -0.23046E-03 12316   0.719E-02    0.395E-01
RMM:  32    -0.652109943406E+03   -0.32470E-01   -0.14422E-03 11762   0.546E-02    0.278E-01
RMM:  33    -0.652157004612E+03   -0.47061E-01   -0.11520E-03 11582   0.403E-02    0.202E-01
RMM:  34    -0.652211023500E+03   -0.54019E-01   -0.66875E-04 10627   0.321E-02    0.156E-01
RMM:  35    -0.652279817759E+03   -0.68794E-01   -0.54279E-04  9989   0.280E-02    0.102E-01
RMM:  36    -0.652304758268E+03   -0.24941E-01   -0.18997E-04  8439   0.191E-02    0.628E-02
RMM:  37    -0.652312107436E+03   -0.73492E-02   -0.79743E-05  7756   0.139E-02    0.373E-02
RMM:  38    -0.652314911125E+03   -0.28037E-02   -0.39994E-05  7562   0.959E-03    0.244E-02
RMM:  39    -0.652316116607E+03   -0.12055E-02   -0.22518E-05  6697   0.734E-03    0.192E-02
RMM:  40    -0.652316630233E+03   -0.51363E-03   -0.14068E-05  6300   0.574E-03    0.139E-02
RMM:  41    -0.652316765487E+03   -0.13525E-03   -0.70131E-06  5593   0.437E-03    0.961E-03
RMM:  42    -0.652316822817E+03   -0.57329E-04   -0.30920E-06  4309   0.342E-03
   1 F= -.65231682E+03 E0= -.65168812E+03  d E =-.652317E+03  mag=     0.0000
       N       E                     dE             d eps       ncg     rms          rms(c)
DAV:   1    -0.649443824170E+03    0.28729E+01   -0.24999E+03 12640   0.723E+01    0.156E+01
RMM:   2    -0.663472790276E+03   -0.14029E+02   -0.70529E+01 12544   0.177E+01    0.488E+01
RMM:   3    -0.657234592543E+03    0.62382E+01   -0.22092E+01 14906   0.767E+00    0.224E+01
RMM:   4    -0.657687253957E+03   -0.45266E+00   -0.29980E+00 12733   0.304E+00    0.249E+01
RMM:   5    -0.655869410855E+03    0.18178E+01   -0.12114E+00 12555   0.227E+00    0.153E+01
RMM:   6    -0.655350205834E+03    0.51921E+00   -0.14664E+00 13090   0.183E+00    0.889E+00
RMM:   7    -0.655908277954E+03   -0.55807E+00   -0.59786E-01 13059   0.128E+00    0.117E+01
RMM:   8    -0.655395870996E+03    0.51241E+00   -0.25681E-01 13924   0.761E-01    0.655E+00
RMM:   9    -0.655213176267E+03    0.18269E+00   -0.10993E-01 12544   0.528E-01    0.381E+00
RMM:  10    -0.655171178616E+03    0.41998E-01   -0.90379E-02 12619   0.431E-01    0.285E+00
RMM:  11    -0.655146091189E+03    0.25087E-01   -0.12277E-01 13825   0.485E-01    0.129E+00
RMM:  12    -0.655142891996E+03    0.31992E-02   -0.12025E-02 12716   0.219E-01    0.111E+00
RMM:  13    -0.655142493810E+03    0.39819E-03   -0.44996E-03 13047   0.998E-02    0.100E+00
RMM:  14    -0.655143172984E+03   -0.67917E-03   -0.20430E-03 12238   0.644E-02    0.784E-01
RMM:  15    -0.655141583866E+03    0.15891E-02   -0.19078E-03 12569   0.708E-02    0.455E-01
RMM:  16    -0.655140750392E+03    0.83347E-03   -0.12839E-03 12348   0.552E-02    0.185E-01
RMM:  17    -0.655140904584E+03   -0.15419E-03   -0.60499E-04 10818   0.342E-02    0.125E-01
RMM:  18    -0.655140973252E+03   -0.68667E-04   -0.88059E-05  7654   0.187E-02
   2 F= -.65514097E+03 E0= -.65455308E+03  d E =-.282415E+01  mag=    -0.0003
       N       E                     dE             d eps       ncg     rms          rms(c)
DAV:   1    -0.655493634467E+03   -0.35273E+00   -0.27943E+02 12944   0.237E+01    0.842E+00
RMM:   2    -0.656382016626E+03   -0.88838E+00   -0.59365E+00 12544   0.513E+00    0.103E+01
RMM:   3    -0.656136898487E+03    0.24512E+00   -0.15416E+00 13953   0.209E+00    0.484E+00
RMM:   4    -0.656201215139E+03   -0.64317E-01   -0.42725E-01 12556   0.124E+00    0.688E+00
RMM:   5    -0.656665275436E+03   -0.46406E+00   -0.18625E-01 12590   0.812E-01    0.100E+01
RMM:   6    -0.655960979958E+03    0.70430E+00   -0.10774E-01 12604   0.590E-01    0.197E+00
RMM:   7    -0.655953746338E+03    0.72336E-02   -0.68033E-02 12714   0.432E-01    0.164E+00
RMM:   8    -0.655942122231E+03    0.11624E-01   -0.24361E-02 12731   0.296E-01    0.575E-01
RMM:   9    -0.655939984984E+03    0.21372E-02   -0.71300E-03 14361   0.119E-01    0.319E-01
RMM:  10    -0.655939590381E+03    0.39460E-03   -0.26035E-03 12511   0.779E-02    0.273E-01
RMM:  11    -0.655939634660E+03   -0.44279E-04   -0.25259E-03 12533   0.777E-02    0.159E-01
RMM:  12    -0.655939775375E+03   -0.14072E-03   -0.65001E-04 11526   0.444E-02    0.114E-01
RMM:  13    -0.655939765724E+03    0.96517E-05   -0.16475E-04  7988   0.212E-02
   3 F= -.65593977E+03 E0= -.65534676E+03  d E =-.362294E+01  mag=    -0.0002
       N       E                     dE             d eps       ncg     rms          rms(c)
DAV:   1    -0.655949200235E+03   -0.94249E-02   -0.71306E+00 12992   0.379E+00    0.959E-01
RMM:   2    -0.655976042317E+03   -0.26842E-01   -0.14604E-01 12544   0.792E-01    0.203E+00
RMM:   3    -0.655966474991E+03    0.95673E-02   -0.40236E-02 15156   0.329E-01    0.124E+00
RMM:   4    -0.655970405251E+03   -0.39303E-02   -0.98479E-03 12553   0.167E-01    0.148E+00
RMM:   5    -0.655985268863E+03   -0.14864E-01   -0.55324E-03 12568   0.133E-01    0.199E+00
RMM:   6    -0.655961750587E+03    0.23518E-01   -0.56467E-03 13140   0.124E-01    0.498E-01
RMM:   7    -0.655961781781E+03   -0.31194E-04   -0.28622E-03 12466   0.893E-02    0.433E-01
RMM:   8    -0.655961062526E+03    0.71925E-03   -0.57468E-04 10702   0.515E-02    0.231E-01
RMM:   9    -0.655960758575E+03    0.30395E-03   -0.44359E-04 11006   0.319E-02    0.176E-01
RMM:  10    -0.655960639110E+03    0.11947E-03   -0.37576E-04 10211   0.314E-02    0.130E-01
RMM:  11    -0.655960581070E+03    0.58040E-04   -0.25390E-04  8420   0.266E-02
   4 F= -.65596058E+03 E0= -.65536894E+03  d E =-.364376E+01  mag=    -0.0001
       N       E                     dE             d eps       ncg     rms          rms(c)
DAV:   1    -0.651674318067E+03    0.42863E+01   -0.96543E+02 12544   0.491E+01    0.843E+00
RMM:   2    -0.654899575332E+03   -0.32253E+01   -0.23761E+01 12544   0.104E+01    0.261E+01
RMM:   3    -0.654769928823E+03    0.12965E+00   -0.57869E+00 14258   0.418E+00    0.192E+01
RMM:   4    -0.654485824410E+03    0.28410E+00   -0.99273E-01 12613   0.200E+00    0.158E+01
RMM:   5    -0.654086062154E+03    0.39976E+00   -0.34439E-01 12768   0.125E+00    0.137E+01
RMM:   6    -0.654273992484E+03   -0.18793E+00   -0.32866E-01 12617   0.878E-01    0.131E+01
RMM:   7    -0.654645201909E+03   -0.37121E+00   -0.22856E-01 13235   0.738E-01    0.142E+01
RMM:   8    -0.654026999301E+03    0.61820E+00   -0.30713E-01 14409   0.829E-01    0.667E+00
RMM:   9    -0.654012395459E+03    0.14604E-01   -0.31221E-02 13297   0.306E-01    0.644E+00
RMM:  10    -0.653957850670E+03    0.54545E-01   -0.39170E-02 12570   0.317E-01    0.538E+00
RMM:  11    -0.653940199485E+03    0.17651E-01   -0.29877E-02 12631   0.257E-01    0.488E+00
RMM:  12    -0.653918159873E+03    0.22040E-01   -0.17634E-02 13706   0.201E-01    0.417E+00
RMM:  13    -0.653905881497E+03    0.12278E-01   -0.65915E-03 12938   0.135E-01    0.308E+00
RMM:  14    -0.653901341993E+03    0.45395E-02   -0.45578E-03 14369   0.962E-02    0.259E+00
RMM:  15    -0.653896289677E+03    0.50523E-02   -0.45816E-03 13128   0.988E-02    0.194E+00
RMM:  16    -0.653892744479E+03    0.35452E-02   -0.48058E-03 14033   0.975E-02    0.139E+00
RMM:  17    -0.653891655022E+03    0.10895E-02   -0.16387E-03 14005   0.573E-02    0.114E+00
RMM:  18    -0.653891222957E+03    0.43206E-03   -0.40222E-04  9456   0.306E-02    0.903E-01
RMM:  19    -0.653891035316E+03    0.18764E-03   -0.18179E-04  8026   0.226E-02    0.708E-01
RMM:  20    -0.653890757796E+03    0.27752E-03   -0.26276E-04  8410   0.274E-02    0.462E-01
RMM:  21    -0.653890664298E+03    0.93498E-04   -0.16859E-04  7650   0.221E-02
   5 F= -.65389066E+03 E0= -.65330220E+03  d E =0.206992E+01  mag=     0.0001
       N       E                     dE             d eps       ncg     rms          rms(c)
DAV:   1    -0.655139110587E+03   -0.12484E+01   -0.27895E+02 12544   0.263E+01    0.684E+00
RMM:   2    -0.655931052756E+03   -0.79194E+00   -0.62719E+00 12544   0.534E+00    0.116E+01
RMM:   3    -0.655791333912E+03    0.13972E+00   -0.14187E+00 14185   0.214E+00    0.613E+00
RMM:   4    -0.656186408823E+03   -0.39507E+00   -0.32508E-01 12587   0.110E+00    0.976E+00
RMM:   5    -0.656070447214E+03    0.11596E+00   -0.15968E-01 12548   0.827E-01    0.800E+00
RMM:   6    -0.655857436607E+03    0.21301E+00   -0.95289E-02 12569   0.535E-01    0.554E+00
RMM:   7    -0.655745204087E+03    0.11223E+00   -0.71600E-02 12957   0.442E-01    0.208E+00
RMM:   8    -0.655735339135E+03    0.98650E-02   -0.21416E-02 12608   0.278E-01    0.188E+00
RMM:   9    -0.655732175961E+03    0.31632E-02   -0.83528E-03 13704   0.150E-01    0.155E+00
RMM:  10    -0.655725207404E+03    0.69686E-02   -0.72182E-03 12556   0.134E-01    0.792E-01
RMM:  11    -0.655724305603E+03    0.90180E-03   -0.50349E-03 12636   0.106E-01    0.621E-01
RMM:  12    -0.655724267511E+03    0.38092E-04   -0.20363E-03 13470   0.712E-02    0.451E-01
RMM:  13    -0.655724011316E+03    0.25619E-03   -0.57898E-04 11303   0.399E-02    0.306E-01
RMM:  14    -0.655724000121E+03    0.11196E-04   -0.24389E-04  8738   0.230E-02
   6 F= -.65572400E+03 E0= -.65513715E+03  d E =0.236581E+00  mag=     0.0000
       N       E                     dE             d eps       ncg     rms          rms(c)
DAV:   1    -0.656000086465E+03   -0.27608E+00   -0.29876E+01 12832   0.860E+00    0.155E+00
RMM:   2    -0.656087595045E+03   -0.87509E-01   -0.65486E-01 12544   0.172E+00    0.402E+00
RMM:   3    -0.656086629967E+03    0.96508E-03   -0.15190E-01 14211   0.686E-01    0.307E+00
RMM:   4    -0.656070989047E+03    0.15641E-01   -0.28027E-02 12613   0.327E-01    0.237E+00
RMM:   5    -0.656070443222E+03    0.54582E-03   -0.10876E-02 12706   0.207E-01    0.234E+00
RMM:   6    -0.656083784213E+03   -0.13341E-01   -0.86256E-03 12654   0.148E-01    0.254E+00
RMM:   7    -0.656072497772E+03    0.11286E-01   -0.71675E-03 13341   0.137E-01    0.191E+00
RMM:   8    -0.656065369115E+03    0.71287E-02   -0.59812E-03 13361   0.123E-01    0.126E+00
RMM:   9    -0.656064342480E+03    0.10266E-02   -0.11944E-03 12214   0.645E-02    0.113E+00
RMM:  10    -0.656063228988E+03    0.11135E-02   -0.59690E-04 11452   0.368E-02    0.983E-01
RMM:  11    -0.656062212843E+03    0.10161E-02   -0.10327E-03 12371   0.463E-02    0.770E-01
RMM:  12    -0.656061880359E+03    0.33248E-03   -0.37531E-04  9929   0.326E-02    0.631E-01
RMM:  13    -0.656061770196E+03    0.11016E-03   -0.16254E-04  7961   0.225E-02    0.546E-01
RMM:  14    -0.656061730043E+03    0.40153E-04   -0.74146E-05  7617   0.168E-02
   7 F= -.65606173E+03 E0= -.65547407E+03  d E =-.101149E+00  mag=     0.0000
       N       E                     dE             d eps       ncg     rms          rms(c)
DAV:   1    -0.656187668301E+03   -0.12590E+00   -0.19820E+01 12896   0.701E+00    0.141E+00
RMM:   2    -0.656245848706E+03   -0.58180E-01   -0.43784E-01 12544   0.140E+00    0.324E+00
RMM:   3    -0.656249881755E+03   -0.40330E-02   -0.10365E-01 14240   0.561E-01    0.269E+00
RMM:   4    -0.656232089431E+03    0.17792E-01   -0.21607E-02 12562   0.282E-01    0.187E+00
RMM:   5    -0.656242056321E+03   -0.99669E-02   -0.92342E-03 12618   0.183E-01    0.229E+00
RMM:   6    -0.656239672962E+03    0.23834E-02   -0.62523E-03 12639   0.134E-01    0.212E+00
RMM:   7    -0.656240002990E+03   -0.33003E-03   -0.81259E-03 13787   0.135E-01    0.174E+00
RMM:   8    -0.656233039655E+03    0.69633E-02   -0.48863E-03 13255   0.117E-01    0.126E+00
RMM:   9    -0.656232658367E+03    0.38129E-03   -0.10962E-03 12494   0.562E-02    0.122E+00
RMM:  10    -0.656231745059E+03    0.91331E-03   -0.30449E-04  9292   0.280E-02    0.113E+00
RMM:  11    -0.656230076659E+03    0.16684E-02   -0.12435E-03 12513   0.510E-02    0.896E-01
RMM:  12    -0.656229913610E+03    0.16305E-03   -0.18632E-04  7646   0.264E-02    0.819E-01
RMM:  13    -0.656229843008E+03    0.70602E-04   -0.69950E-05  7614   0.173E-02
   8 F= -.65622984E+03 E0= -.65564077E+03  d E =-.269262E+00  mag=     0.0000
       N       E                     dE             d eps       ncg     rms          rms(c)
DAV:   1    -0.654124376095E+03    0.21055E+01   -0.51774E+02 12544   0.351E+01    0.622E+00
RMM:   2    -0.655496362179E+03   -0.13720E+01   -0.12124E+01 12544   0.760E+00    0.119E+01
RMM:   3    -0.655410129340E+03    0.86233E-01   -0.29384E+00 14176   0.305E+00    0.529E+00
RMM:   4    -0.655655372377E+03   -0.24524E+00   -0.45555E-01 12846   0.135E+00    0.860E+00
RMM:   5    -0.655890895079E+03   -0.23552E+00   -0.19027E-01 13214   0.799E-01    0.963E+00
RMM:   6    -0.655407618931E+03    0.48328E+00   -0.17611E-01 12737   0.708E-01    0.309E+00
RMM:   7    -0.655401206852E+03    0.64121E-02   -0.11886E-01 13028   0.540E-01    0.235E+00
RMM:   8    -0.655374853988E+03    0.26353E-01   -0.29811E-02 12622   0.325E-01    0.101E+00
RMM:   9    -0.655372296612E+03    0.25574E-02   -0.12349E-02 14655   0.156E-01    0.867E-01
RMM:  10    -0.655367362366E+03    0.49342E-02   -0.68415E-03 12549   0.124E-01    0.636E-01
RMM:  11    -0.655366168203E+03    0.11942E-02   -0.10975E-02 13302   0.139E-01    0.403E-01
RMM:  12    -0.655365813756E+03    0.35445E-03   -0.21382E-03 14011   0.772E-02    0.244E-01
RMM:  13    -0.655365726073E+03    0.87683E-04   -0.60274E-04 10544   0.337E-02
   9 F= -.65536573E+03 E0= -.65476952E+03  d E =0.864117E+00  mag=     0.0000
       N       E                     dE             d eps       ncg     rms          rms(c)
DAV:   1    -0.655758572885E+03   -0.39276E+00   -0.28925E+02 12544   0.262E+01    0.528E+00
RMM:   2    -0.656408168036E+03   -0.64960E+00   -0.61909E+00 12544   0.530E+00    0.702E+00
RMM:   3    -0.656432545110E+03   -0.24377E-01   -0.14352E+00 14102   0.213E+00    0.262E+00
RMM:   4    -0.656522219478E+03   -0.89674E-01   -0.26517E-01 12681   0.102E+00    0.529E+00
RMM:   5    -0.656483148405E+03    0.39071E-01   -0.10343E-01 12655   0.657E-01    0.346E+00
RMM:   6    -0.656498441125E+03   -0.15293E-01   -0.56839E-02 12790   0.389E-01    0.360E+00
RMM:   7    -0.656438180217E+03    0.60261E-01   -0.36063E-02 12678   0.321E-01    0.191E+00
RMM:   8    -0.656416400497E+03    0.21780E-01   -0.11993E-02 12588   0.215E-01    0.614E-01
RMM:   9    -0.656414684714E+03    0.17158E-02   -0.53069E-03 14727   0.997E-02    0.368E-01
RMM:  10    -0.656413695540E+03    0.98917E-03   -0.20701E-03 12382   0.671E-02    0.269E-01
RMM:  11    -0.656413512677E+03    0.18286E-03   -0.23835E-03 12724   0.659E-02    0.200E-01
RMM:  12    -0.656413410098E+03    0.10258E-03   -0.54247E-04 11347   0.404E-02    0.106E-01
RMM:  13    -0.656413371428E+03    0.38670E-04   -0.14982E-04  7942   0.207E-02
  10 F= -.65641337E+03 E0= -.65582474E+03  d E =-.183528E+00  mag=     0.0000
       N       E                     dE             d eps       ncg     rms          rms(c)
DAV:   1    -0.655644198109E+03    0.76921E+00   -0.27794E+02 12544   0.254E+01    0.465E+00
RMM:   2    -0.656242453070E+03   -0.59825E+00   -0.56495E+00 12544   0.530E+00    0.630E+00
RMM:   3    -0.656306115084E+03   -0.63662E-01   -0.15000E+00 14234   0.216E+00    0.298E+00
RMM:   4    -0.656401798658E+03   -0.95684E-01   -0.25787E-01 12805   0.999E-01    0.524E+00
RMM:   5    -0.656479759175E+03   -0.77961E-01   -0.10324E-01 12997   0.588E-01    0.573E+00
RMM:   6    -0.656346096078E+03    0.13366E+00   -0.58916E-02 12578   0.422E-01    0.358E+00
RMM:   7    -0.656286259048E+03    0.59837E-01   -0.71043E-02 13474   0.424E-01    0.164E+00
RMM:   8    -0.656276978818E+03    0.92802E-02   -0.21081E-02 12606   0.251E-01    0.690E-01
RMM:   9    -0.656273792321E+03    0.31865E-02   -0.51658E-03 12839   0.144E-01    0.515E-01
RMM:  10    -0.656272687455E+03    0.11049E-02   -0.20458E-03 13136   0.702E-02    0.334E-01
RMM:  11    -0.656272028895E+03    0.65856E-03   -0.22054E-03 12536   0.664E-02    0.253E-01
RMM:  12    -0.656271886912E+03    0.14198E-03   -0.12173E-03 11973   0.548E-02    0.131E-01
RMM:  13    -0.656271916512E+03   -0.29600E-04   -0.53134E-04 10528   0.334E-02
  11 F= -.65627192E+03 E0= -.65567931E+03  d E =0.141455E+00  mag=     0.0000
       N       E                     dE             d eps       ncg     rms          rms(c)
DAV:   1    -0.656429230662E+03   -0.15734E+00   -0.90929E+01 12544   0.145E+01    0.262E+00
RMM:   2    -0.656604490330E+03   -0.17526E+00   -0.16979E+00 12544   0.284E+00    0.310E+00
RMM:   3    -0.656637104608E+03   -0.32614E-01   -0.43033E-01 14236   0.114E+00    0.172E+00
RMM:   4    -0.656722647027E+03   -0.85542E-01   -0.81445E-02 12789   0.545E-01    0.418E+00
RMM:   5    -0.656684773846E+03    0.37873E-01   -0.32884E-02 12994   0.330E-01    0.328E+00
RMM:   6    -0.656628532055E+03    0.56242E-01   -0.17609E-02 12559   0.239E-01    0.127E+00
RMM:   7    -0.656623745534E+03    0.47865E-02   -0.21230E-02 13515   0.229E-01    0.720E-01
RMM:   8    -0.656622963213E+03    0.78232E-03   -0.55253E-03 12628   0.138E-01    0.440E-01
RMM:   9    -0.656621929194E+03    0.10340E-02   -0.15472E-03 12031   0.761E-02    0.324E-01
RMM:  10    -0.656621466435E+03    0.46276E-03   -0.65963E-04 11804   0.422E-02    0.197E-01
RMM:  11    -0.656621388854E+03    0.77581E-04   -0.30762E-04  9118   0.263E-02
  12 F= -.65662139E+03 E0= -.65603219E+03  d E =-.208017E+00  mag=     0.0000
       N       E                     dE             d eps       ncg     rms          rms(c)
DAV:   1    -0.655871844127E+03    0.74962E+00   -0.17413E+02 12544   0.214E+01    0.305E+00
RMM:   2    -0.656223652892E+03   -0.35181E+00   -0.34541E+00 12544   0.393E+00    0.489E+00
RMM:   3    -0.656264467681E+03   -0.40815E-01   -0.75324E-01 14146   0.160E+00    0.291E+00
RMM:   4    -0.656325968455E+03   -0.61501E-01   -0.12222E-01 12919   0.693E-01    0.423E+00
RMM:   5    -0.656268416183E+03    0.57552E-01   -0.49787E-02 12605   0.470E-01    0.263E+00
RMM:   6    -0.656315075238E+03   -0.46659E-01   -0.49698E-02 12716   0.355E-01    0.318E+00
RMM:   7    -0.656275222133E+03    0.39853E-01   -0.22841E-02 12606   0.263E-01    0.191E+00
RMM:   8    -0.656257204180E+03    0.18018E-01   -0.11315E-02 12944   0.174E-01    0.901E-01
RMM:   9    -0.656255929934E+03    0.12742E-02   -0.31031E-03 13397   0.930E-02    0.910E-01
RMM:  10    -0.656253243573E+03    0.26864E-02   -0.23614E-03 12544   0.790E-02    0.552E-01
RMM:  11    -0.656252410940E+03    0.83263E-03   -0.42248E-03 13192   0.882E-02    0.305E-01
RMM:  12    -0.656252363193E+03    0.47747E-04   -0.88468E-04 11873   0.499E-02
  13 F= -.65625236E+03 E0= -.65566313E+03  d E =0.369026E+00  mag=     0.0000
       N       E                     dE             d eps       ncg     rms          rms(c)
DAV:   1    -0.656503688818E+03   -0.25128E+00   -0.95790E+01 12544   0.159E+01    0.228E+00
RMM:   2    -0.656693667983E+03   -0.18998E+00   -0.18586E+00 12544   0.289E+00    0.337E+00
RMM:   3    -0.656717062122E+03   -0.23394E-01   -0.40257E-01 14140   0.116E+00    0.197E+00
RMM:   4    -0.656777629967E+03   -0.60568E-01   -0.68278E-02 13095   0.502E-01    0.362E+00
RMM:   5    -0.656761628938E+03    0.16001E-01   -0.24288E-02 12663   0.311E-01    0.306E+00
RMM:   6    -0.656722588291E+03    0.39041E-01   -0.14829E-02 12581   0.218E-01    0.181E+00
RMM:   7    -0.656717439510E+03    0.51488E-02   -0.25860E-02 13860   0.237E-01    0.969E-01
RMM:   8    -0.656714095760E+03    0.33437E-02   -0.52510E-03 12556   0.143E-01    0.625E-01
RMM:   9    -0.656713224755E+03    0.87101E-03   -0.13682E-03 12620   0.665E-02    0.577E-01
RMM:  10    -0.656712133886E+03    0.10909E-02   -0.11084E-03 12236   0.518E-02    0.372E-01
RMM:  11    -0.656711932530E+03    0.20136E-03   -0.74930E-04 11688   0.406E-02    0.301E-01
RMM:  12    -0.656711759702E+03    0.17283E-03   -0.43684E-04 10546   0.347E-02    0.180E-01
RMM:  13    -0.656711746230E+03    0.13472E-04   -0.11403E-04  7640   0.207E-02
  14 F= -.65671175E+03 E0= -.65612294E+03  d E =-.903574E-01  mag=     0.0000
       N       E                     dE             d eps       ncg     rms          rms(c)
DAV:   1    -0.656725571991E+03   -0.13812E-01   -0.23430E+01 12848   0.815E+00    0.980E-01
RMM:   2    -0.656774004777E+03   -0.48433E-01   -0.49887E-01 12544   0.143E+00    0.143E+00
RMM:   3    -0.656781989041E+03   -0.79843E-02   -0.89706E-02 13919   0.576E-01    0.882E-01
RMM:   4    -0.656823998599E+03   -0.42010E-01   -0.18207E-02 13237   0.257E-01    0.261E+00
RMM:   5    -0.656784686212E+03    0.39312E-01   -0.60812E-03 12568   0.162E-01    0.112E+00
RMM:   6    -0.656781697046E+03    0.29892E-02   -0.30806E-03 12601   0.102E-01    0.717E-01
RMM:   7    -0.656781450481E+03    0.24656E-03   -0.39208E-03 12933   0.102E-01    0.401E-01
RMM:   8    -0.656781544301E+03   -0.93819E-04   -0.11829E-03 12370   0.670E-02    0.449E-01
RMM:   9    -0.656781299632E+03    0.24467E-03   -0.41857E-04  9975   0.360E-02    0.347E-01
RMM:  10    -0.656781060364E+03    0.23927E-03   -0.15466E-04  7736   0.232E-02    0.253E-01
RMM:  11    -0.656780976364E+03    0.83999E-04   -0.80693E-05  7642   0.171E-02
  15 F= -.65678098E+03 E0= -.65619379E+03  d E =-.692301E-01  mag=     0.0000
       N       E                     dE             d eps       ncg     rms          rms(c)
DAV:   1    -0.656799848684E+03   -0.18788E-01   -0.29738E+00 12992   0.290E+00    0.308E-01
RMM:   2    -0.656806162562E+03   -0.63139E-02   -0.61430E-02 12544   0.504E-01    0.524E-01
RMM:   3    -0.656807137405E+03   -0.97484E-03   -0.10890E-02 13749   0.203E-01    0.361E-01
RMM:   4    -0.656807915931E+03   -0.77853E-03   -0.21206E-03 13622   0.882E-02    0.488E-01
RMM:   5    -0.656806910946E+03    0.10050E-02   -0.58357E-04 11836   0.480E-02    0.339E-01
RMM:   6    -0.656806634842E+03    0.27610E-03   -0.32414E-04  9655   0.345E-02    0.218E-01
RMM:   7    -0.656806628739E+03    0.61035E-05   -0.57082E-04 11250   0.395E-02    0.116E-01
RMM:   8    -0.656806573075E+03    0.55663E-04   -0.16449E-04  7646   0.243E-02
  16 F= -.65680657E+03 E0= -.65621870E+03  d E =-.948268E-01  mag=     0.0000
       N       E                     dE             d eps       ncg     rms          rms(c)
DAV:   1    -0.656811387849E+03   -0.47591E-02   -0.12127E+01 12768   0.575E+00    0.681E-01
RMM:   2    -0.656834741703E+03   -0.23354E-01   -0.24345E-01 12544   0.100E+00    0.928E-01
RMM:   3    -0.656837913057E+03   -0.31714E-02   -0.46037E-02 13949   0.408E-01    0.488E-01
RMM:   4    -0.656845570598E+03   -0.76575E-02   -0.83979E-03 13194   0.177E-01    0.122E+00
RMM:   5    -0.656840694788E+03    0.48758E-02   -0.26871E-03 13166   0.969E-02    0.830E-01
RMM:   6    -0.656837819641E+03    0.28751E-02   -0.16784E-03 12488   0.733E-02    0.330E-01
RMM:   7    -0.656837775410E+03    0.44230E-04   -0.15929E-03 12743   0.668E-02    0.417E-01
RMM:   8    -0.656837383018E+03    0.39239E-03   -0.77909E-04 11715   0.491E-02    0.144E-01
RMM:   9    -0.656837380646E+03    0.23719E-05   -0.18994E-04  8264   0.249E-02
  17 F= -.65683738E+03 E0= -.65625072E+03  d E =-.308076E-01  mag=     0.0000
       N       E                     dE             d eps       ncg     rms          rms(c)
DAV:   1    -0.656853531463E+03   -0.16148E-01   -0.16821E+00 12992   0.214E+00    0.241E-01
RMM:   2    -0.656856913050E+03   -0.33816E-02   -0.32885E-02 12544   0.371E-01    0.426E-01
RMM:   3    -0.656856985803E+03   -0.72753E-04   -0.60908E-03 13642   0.152E-01    0.184E-01
RMM:   4    -0.656858047511E+03   -0.10617E-02   -0.12734E-03 13528   0.661E-02    0.437E-01
RMM:   5    -0.656857105425E+03    0.94209E-03   -0.32546E-04  9417   0.338E-02    0.247E-01
RMM:   6    -0.656857009120E+03    0.96305E-04   -0.24068E-04  8433   0.281E-02    0.149E-01
RMM:   7    -0.656856916532E+03    0.92588E-04   -0.26019E-04  8727   0.292E-02    0.106E-01
RMM:   8    -0.656856892615E+03    0.23917E-04   -0.10367E-04  7464   0.197E-02
  18 F= -.65685689E+03 E0= -.65626987E+03  d E =-.503195E-01  mag=     0.0000
       N       E                     dE             d eps       ncg     rms          rms(c)
DAV:   1    -0.656896875695E+03   -0.39959E-01   -0.39862E+00 12896   0.319E+00    0.498E-01
RMM:   2    -0.656908138521E+03   -0.11263E-01   -0.85667E-02 12544   0.607E-01    0.139E+00
RMM:   3    -0.656906875782E+03    0.12627E-02   -0.18386E-02 14316   0.247E-01    0.891E-01
RMM:   4    -0.656905429470E+03    0.14463E-02   -0.29845E-03 12791   0.107E-01    0.640E-01
RMM:   5    -0.656905570412E+03   -0.14094E-03   -0.12394E-03 12358   0.679E-02    0.620E-01
RMM:   6    -0.656905388677E+03    0.18173E-03   -0.75701E-04 11650   0.516E-02    0.463E-01
RMM:   7    -0.656905824448E+03   -0.43577E-03   -0.65336E-04 11720   0.403E-02    0.449E-01
RMM:   8    -0.656905199792E+03    0.62466E-03   -0.20556E-04  8567   0.260E-02    0.329E-01
RMM:   9    -0.656904970019E+03    0.22977E-03   -0.88975E-05  7618   0.184E-02    0.239E-01
RMM:  10    -0.656904903390E+03    0.66629E-04   -0.68715E-05  7568   0.138E-02
  19 F= -.65690490E+03 E0= -.65631844E+03  d E =-.480108E-01  mag=     0.0000
       N       E                     dE             d eps       ncg     rms          rms(c)
DAV:   1    -0.656908933117E+03   -0.39631E-02   -0.54946E-01 12960   0.119E+00    0.262E-01
RMM:   2    -0.656910172440E+03   -0.12393E-02   -0.12048E-02 12546   0.227E-01    0.424E-01
RMM:   3    -0.656910520232E+03   -0.34779E-03   -0.27732E-03 14262   0.920E-02    0.396E-01
RMM:   4    -0.656911195230E+03   -0.67500E-03   -0.62921E-04 12123   0.494E-02    0.504E-01
RMM:   5    -0.656910257580E+03    0.93765E-03   -0.30385E-04  9303   0.323E-02    0.336E-01
RMM:   6    -0.656910256512E+03    0.10678E-05   -0.24404E-04  8438   0.293E-02    0.451E-01
RMM:   7    -0.656910276267E+03   -0.19755E-04   -0.17724E-04  8013   0.239E-02    0.438E-01
RMM:   8    -0.656910596411E+03   -0.32014E-03   -0.73614E-04 11644   0.381E-02    0.581E-01
RMM:   9    -0.656912745623E+03   -0.21492E-02   -0.28385E-03 15462   0.745E-02    0.899E-01
RMM:  10    -0.656913199969E+03   -0.45435E-03   -0.21346E-04  7694   0.280E-02    0.105E+00
RMM:  11    -0.656914312188E+03   -0.11122E-02   -0.46333E-04 10921   0.301E-02    0.122E+00
RMM:  12    -0.656915043673E+03   -0.73149E-03   -0.16045E-04  7650   0.219E-02    0.131E+00
RMM:  13    -0.656914485751E+03    0.55792E-03   -0.44791E-05  7182   0.170E-02    0.125E+00
RMM:  14    -0.656914365548E+03    0.12020E-03   -0.12032E-05  6949   0.607E-03    0.124E+00
RMM:  15    -0.656912956199E+03    0.14093E-02   -0.39064E-04  9823   0.295E-02    0.104E+00
RMM:  16    -0.656910757350E+03    0.21988E-02   -0.27649E-03 14850   0.726E-02    0.597E-01
RMM:  17    -0.656910147361E+03    0.60999E-03   -0.23650E-03 14528   0.714E-02    0.157E-01
RMM:  18    -0.656910329085E+03   -0.18172E-03   -0.92494E-04 12464   0.478E-02    0.183E-01
RMM:  19    -0.656910342193E+03   -0.13109E-04   -0.95276E-05  7648   0.210E-02
  20 F= -.65691034E+03 E0= -.65632402E+03  d E =-.534496E-01  mag=     0.0000
       N       E                     dE             d eps       ncg     rms          rms(c)
DAV:   1    -0.656950909791E+03   -0.40581E-01   -0.35939E+00 12576   0.312E+00    0.446E-01
RMM:   2    -0.656958448295E+03   -0.75385E-02   -0.71150E-02 12544   0.558E-01    0.695E-01
RMM:   3    -0.656958305824E+03    0.14247E-03   -0.12943E-02 13032   0.230E-01    0.285E-01
RMM:   4    -0.656958969446E+03   -0.66362E-03   -0.31439E-03 13461   0.110E-01    0.399E-01
RMM:   5    -0.656959899813E+03   -0.93037E-03   -0.11320E-03 12405   0.613E-02    0.532E-01
RMM:   6    -0.656959148171E+03    0.75164E-03   -0.61657E-04 11682   0.426E-02    0.411E-01
RMM:   7    -0.656958317800E+03    0.83037E-03   -0.59184E-04 11429   0.423E-02    0.124E-01
RMM:   8    -0.656958225338E+03    0.92462E-04   -0.19013E-04  8151   0.264E-02
  21 F= -.65695823E+03 E0= -.65637169E+03  d E =-.478831E-01  mag=     0.0000
       N       E                     dE             d eps       ncg     rms          rms(c)
DAV:   1    -0.656960471207E+03   -0.21534E-02   -0.20170E-01 13184   0.741E-01    0.117E-01
RMM:   2    -0.656960872929E+03   -0.40172E-03   -0.42639E-03 12544   0.136E-01    0.161E-01
RMM:   3    -0.656960931056E+03   -0.58127E-04   -0.86521E-04 12543   0.548E-02    0.104E-01
RMM:   4    -0.656961094075E+03   -0.16302E-03   -0.17792E-04  7686   0.267E-02    0.181E-01
RMM:   5    -0.656960978697E+03    0.11538E-03   -0.70818E-05  7432   0.210E-02    0.113E-01
RMM:   6    -0.656961014394E+03   -0.35697E-04   -0.32334E-05  7362   0.964E-03    0.118E-01
RMM:   7    -0.656960960878E+03    0.53516E-04   -0.26006E-05  7262   0.966E-03    0.412E-02
RMM:   8    -0.656960959568E+03    0.13098E-05   -0.13162E-05  6522   0.744E-03
  22 F= -.65696096E+03 E0= -.65637435E+03  d E =-.506174E-01  mag=     0.0000
       N       E                     dE             d eps       ncg     rms          rms(c)
DAV:   1    -0.656975959683E+03   -0.14999E-01   -0.23366E+00 12640   0.254E+00    0.326E-01
RMM:   2    -0.656981174606E+03   -0.52149E-02   -0.47409E-02 12544   0.441E-01    0.647E-01
RMM:   3    -0.656980888712E+03    0.28589E-03   -0.83573E-03 13446   0.182E-01    0.286E-01
RMM:   4    -0.656981327757E+03   -0.43904E-03   -0.18293E-03 13558   0.798E-02    0.376E-01
RMM:   5    -0.656981175207E+03    0.15255E-03   -0.53811E-04 11491   0.451E-02    0.319E-01
RMM:   6    -0.656981445802E+03   -0.27060E-03   -0.32292E-04  9651   0.320E-02    0.314E-01
RMM:   7    -0.656981010319E+03    0.43548E-03   -0.19037E-04  8165   0.249E-02    0.174E-01
RMM:   8    -0.656980906858E+03    0.10346E-03   -0.13255E-04  7612   0.221E-02    0.103E-01
RMM:   9    -0.656980899825E+03    0.70339E-05   -0.34748E-05  7463   0.139E-02
  23 F= -.65698090E+03 E0= -.65639460E+03  d E =-.199403E-01  mag=     0.0000
       N       E                     dE             d eps       ncg     rms          rms(c)
DAV:   1    -0.656980894490E+03    0.12369E-04   -0.19763E-03 13264   0.737E-02    0.697E-02
RMM:   2    -0.656980976365E+03   -0.81875E-04   -0.12570E-04  7038   0.204E-02    0.122E-01
RMM:   3    -0.656980892965E+03    0.83400E-04   -0.82516E-05  6776   0.215E-02    0.578E-02
RMM:   4    -0.656980896173E+03   -0.32081E-05   -0.10820E-05  6515   0.684E-03    0.555E-02
RMM:   5    -0.656980882124E+03    0.14049E-04   -0.29909E-06  5043   0.394E-03    0.314E-02
RMM:   6    -0.656980880097E+03    0.20275E-05   -0.32606E-06  5248   0.390E-03    0.174E-02
RMM:   7    -0.656980879074E+03    0.10233E-05   -0.57341E-07  2891   0.294E-03    0.806E-03
RMM:   8    -0.656980879011E+03    0.62937E-07   -0.47206E-08  1527   0.260E-03
  24 F= -.65698088E+03 E0= -.65639454E+03  d E =-.199194E-01  mag=     0.0000
       N       E                     dE             d eps       ncg     rms          rms(c)
DAV:   1    -0.656989261053E+03   -0.83820E-02   -0.90463E-01 12688   0.150E+00    0.227E-01
RMM:   2    -0.656991558417E+03   -0.22974E-02   -0.19439E-02 12544   0.291E-01    0.479E-01
RMM:   3    -0.656991261211E+03    0.29721E-03   -0.42428E-03 14213   0.119E-01    0.234E-01
RMM:   4    -0.656992888754E+03   -0.16275E-02   -0.82955E-04 12594   0.519E-02    0.535E-01
RMM:   5    -0.656991301668E+03    0.15871E-02   -0.31122E-04  9394   0.352E-02    0.247E-01
RMM:   6    -0.656991219314E+03    0.82355E-04   -0.20400E-04  8216   0.274E-02    0.175E-01
RMM:   7    -0.656991159931E+03    0.59383E-04   -0.16902E-04  8171   0.234E-02    0.907E-02
RMM:   8    -0.656991149933E+03    0.99975E-05   -0.88994E-05  7535   0.180E-02
  25 F= -.65699115E+03 E0= -.65640514E+03  d E =-.102709E-01  mag=     0.0000
       N       E                     dE             d eps       ncg     rms          rms(c)
DAV:   1    -0.656991158474E+03    0.14568E-05   -0.15597E-03 13120   0.650E-02    0.567E-02
RMM:   2    -0.656991209554E+03   -0.51080E-04   -0.10618E-04  6842   0.202E-02    0.898E-02
RMM:   3    -0.656991243756E+03   -0.34201E-04   -0.58434E-05  6774   0.177E-02    0.116E-01
RMM:   4    -0.656991160547E+03    0.83208E-04   -0.14887E-05  6710   0.729E-03    0.499E-02
RMM:   5    -0.656991156630E+03    0.39176E-05   -0.71750E-06  5734   0.542E-03    0.181E-02
RMM:   6    -0.656991156028E+03    0.60206E-06   -0.26088E-06  4460   0.387E-03    0.160E-02
RMM:   7    -0.656991155686E+03    0.34169E-06   -0.74776E-07  3083   0.316E-03    0.100E-02
RMM:   8    -0.656991155718E+03   -0.32378E-07   -0.34140E-08  1728   0.270E-03
  26 F= -.65699116E+03 E0= -.65640516E+03  d E =-.102767E-01  mag=     0.0000
       N       E                     dE             d eps       ncg     rms          rms(c)
DAV:   1    -0.656999454929E+03   -0.82992E-02   -0.36652E-01 12944   0.902E-01    0.157E-01
RMM:   2    -0.657000351385E+03   -0.89646E-03   -0.74522E-03 12544   0.182E-01    0.309E-01
RMM:   3    -0.657000200105E+03    0.15128E-03   -0.17900E-03 13989   0.748E-02    0.147E-01
RMM:   4    -0.657000763020E+03   -0.56291E-03   -0.35398E-04  9297   0.331E-02    0.320E-01
RMM:   5    -0.657000200741E+03    0.56228E-03   -0.14134E-04  7646   0.248E-02    0.154E-01
RMM:   6    -0.657000176126E+03    0.24614E-04   -0.11056E-04  7550   0.198E-02    0.115E-01
RMM:   7    -0.657000142918E+03    0.33209E-04   -0.71780E-05  7337   0.157E-02    0.529E-02
RMM:   8    -0.657000137226E+03    0.56913E-05   -0.40411E-05  7103   0.122E-02
  27 F= -.65700014E+03 E0= -.65641440E+03  d E =-.898151E-02  mag=     0.0000
       N       E                     dE             d eps       ncg     rms          rms(c)
DAV:   1    -0.657005310406E+03   -0.51675E-02   -0.32944E+00 12544   0.271E+00    0.473E-01
RMM:   2    -0.657012928990E+03   -0.76186E-02   -0.67117E-02 12544   0.545E-01    0.837E-01
RMM:   3    -0.657012025856E+03    0.90313E-03   -0.16442E-02 14544   0.224E-01    0.361E-01
RMM:   4    -0.657013207611E+03   -0.11818E-02   -0.27701E-03 13200   0.947E-02    0.565E-01
RMM:   5    -0.657014364598E+03   -0.11570E-02   -0.10067E-03 12054   0.586E-02    0.665E-01
RMM:   6    -0.657012237001E+03    0.21276E-02   -0.76523E-04 11674   0.488E-02    0.365E-01
RMM:   7    -0.657011778221E+03    0.45878E-03   -0.66844E-04 11660   0.416E-02    0.142E-01
RMM:   8    -0.657011699093E+03    0.79128E-04   -0.30019E-04  9515   0.301E-02
  28 F= -.65701170E+03 E0= -.65642658E+03  d E =-.205434E-01  mag=     0.0000
       N       E                     dE             d eps       ncg     rms          rms(c)
DAV:   1    -0.657017015092E+03   -0.52369E-02   -0.19176E-01 13088   0.669E-01    0.137E-01
RMM:   2    -0.657017553776E+03   -0.53868E-03   -0.40568E-03 12544   0.135E-01    0.195E-01
RMM:   3    -0.657017722387E+03   -0.16861E-03   -0.10339E-03 12604   0.557E-02    0.203E-01
RMM:   4    -0.657017614130E+03    0.10826E-03   -0.22179E-04  7886   0.285E-02    0.173E-01
RMM:   5    -0.657017479799E+03    0.13433E-03   -0.85916E-05  7546   0.217E-02    0.691E-02
RMM:   6    -0.657017495714E+03   -0.15915E-04   -0.53020E-05  7336   0.137E-02    0.773E-02
RMM:   7    -0.657017478497E+03    0.17217E-04   -0.29575E-05  7286   0.118E-02    0.400E-02
RMM:   8    -0.657017475062E+03    0.34354E-05   -0.13030E-05  6726   0.717E-03
  29 F= -.65701748E+03 E0= -.65643246E+03  d E =-.577597E-02  mag=     0.0000
       N       E                     dE             d eps       ncg     rms          rms(c)
DAV:   1    -0.657025913848E+03   -0.84354E-02   -0.17330E+00 12832   0.201E+00    0.331E-01
RMM:   2    -0.657029836948E+03   -0.39231E-02   -0.34989E-02 12544   0.398E-01    0.555E-01
RMM:   3    -0.657029686309E+03    0.15064E-03   -0.82555E-03 14294   0.160E-01    0.279E-01
RMM:   4    -0.657031672086E+03   -0.19858E-02   -0.16571E-03 13597   0.701E-02    0.594E-01
RMM:   5    -0.657029812301E+03    0.18598E-02   -0.51105E-04 11492   0.430E-02    0.300E-01
RMM:   6    -0.657029675194E+03    0.13711E-03   -0.43374E-04 10944   0.373E-02    0.248E-01
RMM:   7    -0.657029473567E+03    0.20163E-03   -0.36002E-04  9256   0.319E-02    0.914E-02
RMM:   8    -0.657029442078E+03    0.31489E-04   -0.17418E-04  7738   0.243E-02
  30 F= -.65702944E+03 E0= -.65644471E+03  d E =-.177430E-01  mag=     0.0000
       N       E                     dE             d eps       ncg     rms          rms(c)
DAV:   1    -0.657043839435E+03   -0.14366E-01   -0.25236E-01 12992   0.840E-01    0.125E-01
RMM:   2    -0.657044375164E+03   -0.53573E-03   -0.55060E-03 12544   0.158E-01    0.114E-01
RMM:   3    -0.657044603613E+03   -0.22845E-03   -0.11026E-03 12635   0.627E-02    0.155E-01
RMM:   4    -0.657044616641E+03   -0.13028E-04   -0.23932E-04  8041   0.305E-02    0.159E-01
RMM:   5    -0.657044508823E+03    0.10782E-03   -0.86573E-05  7489   0.214E-02    0.816E-02
RMM:   6    -0.657044501102E+03    0.77204E-05   -0.45672E-05  7326   0.132E-02    0.747E-02
RMM:   7    -0.657044486109E+03    0.14993E-04   -0.22846E-05  7268   0.104E-02    0.371E-02
RMM:   8    -0.657044487431E+03   -0.13218E-05   -0.10363E-05  6552   0.617E-03
  31 F= -.65704449E+03 E0= -.65645979E+03  d E =-.150454E-01  mag=     0.0000
       N       E                     dE             d eps       ncg     rms          rms(c)
DAV:   1    -0.657055366933E+03   -0.10881E-01   -0.17254E+00 12928   0.220E+00    0.278E-01
RMM:   2    -0.657058991357E+03   -0.36244E-02   -0.36938E-02 12544   0.409E-01    0.365E-01
RMM:   3    -0.657059468616E+03   -0.47726E-03   -0.71562E-03 13814   0.159E-01    0.184E-01
RMM:   4    -0.657059813415E+03   -0.34480E-03   -0.13326E-03 13142   0.719E-02    0.288E-01
RMM:   5    -0.657059696728E+03    0.11669E-03   -0.45029E-04 11120   0.425E-02    0.231E-01
RMM:   6    -0.657059689781E+03    0.69477E-05   -0.23487E-04  8362   0.276E-02    0.175E-01
RMM:   7    -0.657059683648E+03    0.61328E-05   -0.12509E-04  7662   0.211E-02    0.170E-01
RMM:   8    -0.657059517420E+03    0.16623E-03   -0.61769E-05  7560   0.162E-02    0.428E-02
RMM:   9    -0.657059518366E+03   -0.94630E-06   -0.15943E-05  7144   0.837E-03
  32 F= -.65705952E+03 E0= -.65647490E+03  d E =-.300763E-01  mag=     0.0000
       N       E                     dE             d eps       ncg     rms          rms(c)
DAV:   1    -0.657059863771E+03   -0.34635E-03   -0.50637E-02 13056   0.376E-01    0.479E-02
RMM:   2    -0.657059979145E+03   -0.11537E-03   -0.10345E-03 12450   0.690E-02    0.899E-02
RMM:   3    -0.657059979715E+03   -0.56936E-06   -0.18921E-04  7082   0.274E-02    0.604E-02
RMM:   4    -0.657059976273E+03    0.34420E-05   -0.41116E-05  6839   0.163E-02    0.618E-02
RMM:   5    -0.657059961791E+03    0.14482E-04   -0.13133E-05  6758   0.716E-03    0.329E-02
RMM:   6    -0.657059964079E+03   -0.22887E-05   -0.86283E-06  6038   0.544E-03    0.285E-02
RMM:   7    -0.657059965214E+03   -0.11344E-05   -0.72685E-06  6292   0.548E-03    0.203E-02
RMM:   8    -0.657059964092E+03    0.11216E-05   -0.28477E-06  5170   0.401E-03
  33 F= -.65705996E+03 E0= -.65647533E+03  d E =-.305220E-01  mag=     0.0000
       N       E                     dE             d eps       ncg     rms          rms(c)
DAV:   1    -0.657071601658E+03   -0.11636E-01   -0.18037E-01 13120   0.706E-01    0.878E-02
RMM:   2    -0.657071985229E+03   -0.38357E-03   -0.36789E-03 12544   0.123E-01    0.150E-01
RMM:   3    -0.657071998320E+03   -0.13090E-04   -0.65498E-04 12250   0.499E-02    0.942E-02
RMM:   4    -0.657072097472E+03   -0.99153E-04   -0.13181E-04  7578   0.232E-02    0.144E-01
RMM:   5    -0.657072016094E+03    0.81379E-04   -0.65130E-05  7244   0.186E-02    0.117E-01
RMM:   6    -0.657071974256E+03    0.41838E-04   -0.29302E-05  6986   0.109E-02    0.507E-02
RMM:   7    -0.657071980061E+03   -0.58049E-05   -0.28190E-05  6872   0.953E-03    0.436E-02
RMM:   8    -0.657071976670E+03    0.33907E-05   -0.14730E-05  6418   0.830E-03
  34 F= -.65707198E+03 E0= -.65648742E+03  d E =-.120126E-01  mag=     0.0000
       N       E                     dE             d eps       ncg     rms          rms(c)
DAV:   1    -0.657080651010E+03   -0.86709E-02   -0.90774E-01 12864   0.159E+00    0.200E-01
RMM:   2    -0.657082487198E+03   -0.18362E-02   -0.18696E-02 12544   0.277E-01    0.313E-01
RMM:   3    -0.657082608387E+03   -0.12119E-03   -0.34074E-03 13954   0.112E-01    0.153E-01
RMM:   4    -0.657083789656E+03   -0.11813E-02   -0.70376E-04 12370   0.506E-02    0.444E-01
RMM:   5    -0.657082844953E+03    0.94470E-03   -0.24980E-04  8144   0.314E-02    0.258E-01
RMM:   6    -0.657082592299E+03    0.25265E-03   -0.13325E-04  7648   0.244E-02    0.114E-01
RMM:   7    -0.657082595151E+03   -0.28522E-05   -0.12049E-04  7634   0.199E-02    0.904E-02
RMM:   8    -0.657082581575E+03    0.13576E-04   -0.67352E-05  7408   0.172E-02
  35 F= -.65708258E+03 E0= -.65649815E+03  d E =-.226175E-01  mag=     0.0000
       N       E                     dE             d eps       ncg     rms          rms(c)
DAV:   1    -0.657092711328E+03   -0.10116E-01   -0.31033E-01 12992   0.900E-01    0.139E-01
RMM:   2    -0.657093473170E+03   -0.76184E-03   -0.67777E-03 12544   0.169E-01    0.282E-01
RMM:   3    -0.657093419716E+03    0.53453E-04   -0.13754E-03 13390   0.688E-02    0.148E-01
RMM:   4    -0.657094185915E+03   -0.76620E-03   -0.29696E-04  8472   0.321E-02    0.362E-01
RMM:   5    -0.657093424104E+03    0.76181E-03   -0.13451E-04  7628   0.262E-02    0.152E-01
RMM:   6    -0.657093390923E+03    0.33181E-04   -0.68490E-05  7422   0.157E-02    0.802E-02
RMM:   7    -0.657093404307E+03   -0.13384E-04   -0.47901E-05  7188   0.128E-02    0.699E-02
RMM:   8    -0.657093391154E+03    0.13153E-04   -0.22621E-05  6982   0.102E-02
  36 F= -.65709339E+03 E0= -.65650877E+03  d E =-.108096E-01  mag=     0.0000
       N       E                     dE             d eps       ncg     rms          rms(c)
DAV:   1    -0.657096800213E+03   -0.33959E-02   -0.51473E-01 13008   0.116E+00    0.179E-01
RMM:   2    -0.657098008152E+03   -0.12079E-02   -0.11207E-02 12544   0.217E-01    0.355E-01
RMM:   3    -0.657097989898E+03    0.18254E-04   -0.23232E-03 14172   0.880E-02    0.206E-01
RMM:   4    -0.657098045671E+03   -0.55774E-04   -0.40928E-04 10478   0.378E-02    0.245E-01
RMM:   5    -0.657098043426E+03    0.22447E-05   -0.13323E-04  7646   0.241E-02    0.206E-01
RMM:   6    -0.657098053378E+03   -0.99510E-05   -0.79105E-05  7596   0.175E-02    0.190E-01
RMM:   7    -0.657097948038E+03    0.10534E-03   -0.66111E-05  7376   0.147E-02    0.111E-01
RMM:   8    -0.657097922368E+03    0.25670E-04   -0.45162E-05  7229   0.133E-02
  37 F= -.65709792E+03 E0= -.65651314E+03  d E =-.153408E-01  mag=     0.0000
       N       E                     dE             d eps       ncg     rms          rms(c)
DAV:   1    -0.657101220549E+03   -0.32725E-02   -0.25067E-01 12896   0.812E-01    0.140E-01
RMM:   2    -0.657101787605E+03   -0.56706E-03   -0.54776E-03 12544   0.156E-01    0.225E-01
RMM:   3    -0.657101821950E+03   -0.34344E-04   -0.11526E-03 12806   0.615E-02    0.147E-01
RMM:   4    -0.657102637393E+03   -0.81544E-03   -0.27039E-04  8158   0.313E-02    0.363E-01
RMM:   5    -0.657101852438E+03    0.78496E-03   -0.14198E-04  7496   0.270E-02    0.152E-01
RMM:   6    -0.657101809694E+03    0.42743E-04   -0.69461E-05  7242   0.166E-02    0.870E-02
RMM:   7    -0.657101820593E+03   -0.10899E-04   -0.48036E-05  7142   0.127E-02    0.558E-02
RMM:   8    -0.657101816694E+03    0.38996E-05   -0.19469E-05  6876   0.974E-03
  38 F= -.65710182E+03 E0= -.65651681E+03  d E =-.389433E-02  mag=     0.0000
       N       E                     dE             d eps       ncg     rms          rms(c)
DAV:   1    -0.657101813777E+03    0.68169E-05   -0.14467E-04  8704   0.238E-02    0.370E-02
RMM:   2    -0.657101829856E+03   -0.16079E-04   -0.49337E-05  6752   0.167E-02    0.555E-02
RMM:   3    -0.657101814571E+03    0.15285E-04   -0.16724E-05  6541   0.969E-03    0.292E-02
RMM:   4    -0.657101820496E+03   -0.59252E-05   -0.46718E-06  5418   0.434E-03    0.435E-02
RMM:   5    -0.657101812402E+03    0.80938E-05   -0.13320E-06  3520   0.334E-03    0.241E-02
RMM:   6    -0.657101811259E+03    0.11435E-05   -0.27867E-07  2247   0.305E-03    0.135E-02
RMM:   7    -0.657101811076E+03    0.18252E-06   -0.12273E-06  3309   0.323E-03    0.127E-02
RMM:   8    -0.657101810560E+03    0.51563E-06   -0.30154E-09  1240   0.262E-03
  39 F= -.65710181E+03 E0= -.65651678E+03  d E =-.388819E-02  mag=     0.0000
       N       E                     dE             d eps       ncg     rms          rms(c)
DAV:   1    -0.657103170177E+03   -0.13591E-02   -0.35088E-02 13216   0.288E-01    0.482E-02
RMM:   2    -0.657103234714E+03   -0.64537E-04   -0.71708E-04 12372   0.570E-02    0.815E-02
RMM:   3    -0.657103240404E+03   -0.56903E-05   -0.16176E-04  7170   0.229E-02    0.415E-02
RMM:   4    -0.657103262838E+03   -0.22434E-04   -0.35991E-05  6826   0.147E-02    0.781E-02
RMM:   5    -0.657103255759E+03    0.70790E-05   -0.13633E-05  6712   0.743E-03    0.650E-02
RMM:   6    -0.657103241892E+03    0.13868E-04   -0.71570E-06  5826   0.559E-03    0.425E-02
RMM:   7    -0.657103246293E+03   -0.44014E-05   -0.54421E-06  6042   0.461E-03    0.416E-02
RMM:   8    -0.657103242579E+03    0.37146E-05   -0.28748E-06  4781   0.382E-03
  40 F= -.65710324E+03 E0= -.65651804E+03  d E =-.143202E-02  mag=     0.0000
       N       E                     dE             d eps       ncg     rms          rms(c)
DAV:   1    -0.657103713547E+03   -0.46725E-03   -0.46239E-02 12992   0.330E-01    0.638E-02
RMM:   2    -0.657103809369E+03   -0.95822E-04   -0.97143E-04 12542   0.659E-02    0.114E-01
RMM:   3    -0.657103815715E+03   -0.63458E-05   -0.22627E-04  7534   0.266E-02    0.695E-02
RMM:   4    -0.657103887339E+03   -0.71624E-04   -0.57758E-05  7064   0.175E-02    0.124E-01
RMM:   5    -0.657103825645E+03    0.61694E-04   -0.25291E-05  6828   0.105E-02    0.854E-02
RMM:   6    -0.657103817549E+03    0.80958E-05   -0.96036E-06  6148   0.664E-03    0.740E-02
RMM:   7    -0.657103816249E+03    0.13004E-05   -0.11335E-05  6442   0.609E-03    0.487E-02
RMM:   8    -0.657103815591E+03    0.65771E-06   -0.37632E-06  5684   0.450E-03
  41 F= -.65710382E+03 E0= -.65651843E+03  d E =-.200503E-02  mag=     0.0000
       N       E                     dE             d eps       ncg     rms          rms(c)
DAV:   1    -0.657104699197E+03   -0.88295E-03   -0.44720E-02 13056   0.299E-01    0.713E-02
RMM:   2    -0.657104817099E+03   -0.11790E-03   -0.87671E-04 12528   0.622E-02    0.102E-01
RMM:   3    -0.657104915406E+03   -0.98307E-04   -0.23409E-04  7800   0.267E-02    0.148E-01
RMM:   4    -0.657104783517E+03    0.13189E-03   -0.66837E-05  7086   0.198E-02    0.470E-02
RMM:   5    -0.657104791660E+03   -0.81428E-05   -0.27545E-05  6908   0.101E-02    0.458E-02
RMM:   6    -0.657104785872E+03    0.57870E-05   -0.13559E-05  6483   0.788E-03    0.323E-02
RMM:   7    -0.657104782403E+03    0.34696E-05   -0.63833E-06  5942   0.513E-03    0.129E-02
RMM:   8    -0.657104782811E+03   -0.40857E-06   -0.13516E-06  3314   0.349E-03
  42 F= -.65710478E+03 E0= -.65651927E+03  d E =-.967221E-03  mag=     0.0000
       N       E                     dE             d eps       ncg     rms          rms(c)
DAV:   1    -0.657104891808E+03   -0.10941E-03   -0.13214E-02 13248   0.163E-01    0.326E-02
RMM:   2    -0.657104919415E+03   -0.27607E-04   -0.25989E-04  7922   0.338E-02    0.473E-02
RMM:   3    -0.657104935520E+03   -0.16105E-04   -0.52632E-05  6888   0.167E-02    0.583E-02
RMM:   4    -0.657104917789E+03    0.17731E-04   -0.16212E-05  6748   0.882E-03    0.300E-02
RMM:   5    -0.657104918454E+03   -0.66496E-06   -0.71026E-06  5850   0.586E-03    0.268E-02
RMM:   6    -0.657104916035E+03    0.24181E-05   -0.32406E-06  5523   0.421E-03    0.988E-03
RMM:   7    -0.657104916460E+03   -0.42496E-06   -0.10116E-06  3211   0.301E-03    0.864E-03
RMM:   8    -0.657104916402E+03    0.58179E-07   -0.55787E-08  1810   0.266E-03
  43 F= -.65710492E+03 E0= -.65651933E+03  d E =-.110081E-02  mag=    -0.0000
       N       E                     dE             d eps       ncg     rms          rms(c)
DAV:   1    -0.657105407105E+03   -0.49065E-03   -0.52556E-02 13024   0.325E-01    0.566E-02
RMM:   2    -0.657105492691E+03   -0.85586E-04   -0.91659E-04 12534   0.654E-02    0.712E-02
RMM:   3    -0.657105504991E+03   -0.12300E-04   -0.23400E-04  7780   0.266E-02    0.441E-02
RMM:   4    -0.657105553100E+03   -0.48109E-04   -0.54407E-05  7088   0.179E-02    0.925E-02
RMM:   5    -0.657105524844E+03    0.28256E-04   -0.20629E-05  6882   0.882E-03    0.696E-02
RMM:   6    -0.657105502477E+03    0.22367E-04   -0.12311E-05  6168   0.707E-03    0.311E-02
RMM:   7    -0.657105503534E+03   -0.10566E-05   -0.77327E-06  6307   0.529E-03    0.161E-02
RMM:   8    -0.657105503697E+03   -0.16353E-06   -0.25019E-06  4300   0.388E-03
  44 F= -.65710550E+03 E0= -.65651976E+03  d E =-.587295E-03  mag=    -0.0000
       N       E                     dE             d eps       ncg     rms          rms(c)
DAV:   1    -0.657105507987E+03   -0.44537E-05   -0.89016E-04 12160   0.425E-02    0.167E-02
RMM:   2    -0.657105513502E+03   -0.55143E-05   -0.21213E-05  6734   0.100E-02    0.281E-02
RMM:   3    -0.657105518267E+03   -0.47649E-05   -0.68868E-06  6720   0.607E-03    0.363E-02
RMM:   4    -0.657105509828E+03    0.84387E-05   -0.10654E-06  3186   0.313E-03    0.167E-02
RMM:   5    -0.657105510292E+03   -0.46416E-06   -0.31264E-08  1602   0.275E-03    0.138E-02
RMM:   6    -0.657105511916E+03   -0.16240E-05   -0.16331E-07  1748   0.285E-03    0.188E-02
RMM:   7    -0.657105510100E+03    0.18159E-05   -0.38203E-10  1402   0.272E-03    0.103E-02
RMM:   8    -0.657105509896E+03    0.20456E-06   -0.33761E-09  1142   0.274E-03
  45 F= -.65710551E+03 E0= -.65651973E+03  d E =-.593493E-03  mag=    -0.0000
       N       E                     dE             d eps       ncg     rms          rms(c)
DAV:   1    -0.657105916323E+03   -0.40622E-03   -0.33852E-02 12992   0.264E-01    0.432E-02
RMM:   2    -0.657105976132E+03   -0.59809E-04   -0.56582E-04 11734   0.515E-02    0.671E-02
RMM:   3    -0.657105986790E+03   -0.10658E-04   -0.14266E-04  7210   0.216E-02    0.462E-02
RMM:   4    -0.657106007507E+03   -0.20717E-04   -0.34276E-05  6880   0.139E-02    0.744E-02
RMM:   5    -0.657105983395E+03    0.24113E-04   -0.14998E-05  6690   0.809E-03    0.447E-02
RMM:   6    -0.657105978882E+03    0.45127E-05   -0.76065E-06  5956   0.561E-03    0.240E-02
RMM:   7    -0.657105979862E+03   -0.97998E-06   -0.46848E-06  5310   0.431E-03    0.185E-02
RMM:   8    -0.657105980237E+03   -0.37510E-06   -0.15467E-06  3622   0.343E-03
  46 F= -.65710598E+03 E0= -.65652007E+03  d E =-.470341E-03  mag=    -0.0000
       N       E                     dE             d eps       ncg     rms          rms(c)
DAV:   1    -0.657106044280E+03   -0.64418E-04   -0.20771E-02 12960   0.208E-01    0.373E-02
RMM:   2    -0.657106098258E+03   -0.53979E-04   -0.36071E-04  9626   0.407E-02    0.695E-02
RMM:   3    -0.657106094429E+03    0.38288E-05   -0.84219E-05  6960   0.189E-02    0.528E-02
RMM:   4    -0.657106085487E+03    0.89426E-05   -0.21724E-05  6780   0.109E-02    0.263E-02
RMM:   5    -0.657106095081E+03   -0.95939E-05   -0.11268E-05  6484   0.689E-03    0.471E-02
RMM:   6    -0.657106087647E+03    0.74331E-05   -0.57835E-06  5900   0.509E-03    0.234E-02
RMM:   7    -0.657106085634E+03    0.20131E-05   -0.25454E-06  3918   0.369E-03    0.155E-02
RMM:   8    -0.657106085308E+03    0.32608E-06   -0.71186E-07  3109   0.323E-03
  47 F= -.65710609E+03 E0= -.65652005E+03  d E =-.575413E-03  mag=    -0.0000
       N       E                     dE             d eps       ncg     rms          rms(c)
DAV:   1    -0.657106384883E+03   -0.29925E-03   -0.13533E-02 13232   0.163E-01    0.279E-02
RMM:   2    -0.657106408138E+03   -0.23255E-04   -0.22728E-04  7666   0.321E-02    0.322E-02
RMM:   3    -0.657106423363E+03   -0.15225E-04   -0.46065E-05  6868   0.155E-02    0.492E-02
RMM:   4    -0.657106410980E+03    0.12383E-04   -0.14096E-05  6662   0.813E-03    0.244E-02
RMM:   5    -0.657106412605E+03   -0.16247E-05   -0.63978E-06  5896   0.560E-03    0.252E-02
RMM:   6    -0.657106409370E+03    0.32348E-05   -0.20237E-06  4092   0.381E-03    0.795E-03
RMM:   7    -0.657106409973E+03   -0.60279E-06   -0.94051E-07  2842   0.308E-03    0.630E-03
RMM:   8    -0.657106409708E+03    0.26475E-06   -0.66879E-08  1668   0.269E-03
  48 F= -.65710641E+03 E0= -.65652026E+03  d E =-.324400E-03  mag=    -0.0000
       N       E                     dE             d eps       ncg     rms          rms(c)
DAV:   1    -0.657106720713E+03   -0.31074E-03   -0.92282E-02 13024   0.426E-01    0.709E-02
RMM:   2    -0.657106857565E+03   -0.13685E-03   -0.14674E-03 12544   0.832E-02    0.676E-02
RMM:   3    -0.657106893143E+03   -0.35579E-04   -0.39400E-04  9820   0.334E-02    0.442E-02
RMM:   4    -0.657106974502E+03   -0.81358E-04   -0.75363E-05  7296   0.191E-02    0.118E-01
RMM:   5    -0.657106924490E+03    0.50011E-04   -0.29539E-05  7162   0.114E-02    0.849E-02
RMM:   6    -0.657106885130E+03    0.39360E-04   -0.16205E-05  6748   0.776E-03    0.257E-02
RMM:   7    -0.657106888095E+03   -0.29652E-05   -0.11881E-05  6212   0.625E-03    0.236E-02
RMM:   8    -0.657106885482E+03    0.26125E-05   -0.51372E-06  5782   0.517E-03
  49 F= -.65710689E+03 E0= -.65652048E+03  d E =-.800174E-03  mag=    -0.0000
       N       E                     dE             d eps       ncg     rms          rms(c)
DAV:   1    -0.657107568562E+03   -0.68047E-03   -0.29368E-02 13440   0.257E-01    0.389E-02
RMM:   2    -0.657107627927E+03   -0.59366E-04   -0.51649E-04 11008   0.472E-02    0.721E-02
RMM:   3    -0.657107628462E+03   -0.53482E-06   -0.11289E-04  7126   0.203E-02    0.403E-02
RMM:   4    -0.657107645417E+03   -0.16955E-04   -0.26862E-05  6908   0.122E-02    0.638E-02
RMM:   5    -0.657107627088E+03    0.18329E-04   -0.11927E-05  6474   0.706E-03    0.399E-02
RMM:   6    -0.657107625864E+03    0.12244E-05   -0.64190E-06  5918   0.513E-03    0.239E-02
RMM:   7    -0.657107627788E+03   -0.19242E-05   -0.35510E-06  5073   0.410E-03    0.231E-02
RMM:   8    -0.657107626532E+03    0.12558E-05   -0.11365E-06  3421   0.319E-03
  50 F= -.65710763E+03 E0= -.65652110E+03  d E =-.741049E-03  mag=    -0.0000
       N       E                     dE             d eps       ncg     rms          rms(c)
DAV:   1    -0.657107853686E+03   -0.22590E-03   -0.21978E-01 12768   0.704E-01    0.110E-01
RMM:   2    -0.657108221848E+03   -0.36816E-03   -0.37960E-03 12544   0.128E-01    0.158E-01
RMM:   3    -0.657108289336E+03   -0.67487E-04   -0.93483E-04 12284   0.522E-02    0.113E-01
RMM:   4    -0.657108612088E+03   -0.32275E-03   -0.15778E-04  7644   0.249E-02    0.232E-01
RMM:   5    -0.657108310697E+03    0.30139E-03   -0.94235E-05  7318   0.210E-02    0.125E-01
RMM:   6    -0.657108282524E+03    0.28173E-04   -0.66193E-05  7182   0.157E-02    0.780E-02
RMM:   7    -0.657108285406E+03   -0.28822E-05   -0.61248E-05  7082   0.130E-02    0.496E-02
RMM:   8    -0.657108275684E+03    0.97214E-05   -0.19348E-05  6676   0.100E-02
  51 F= -.65710828E+03 E0= -.65652142E+03  d E =-.139020E-02  mag=    -0.0000
       N       E                     dE             d eps       ncg     rms          rms(c)
DAV:   1    -0.657108310743E+03   -0.25338E-04   -0.10890E-02 13312   0.157E-01    0.294E-02
RMM:   2    -0.657108336600E+03   -0.25856E-04   -0.18942E-04  7224   0.284E-02    0.657E-02
RMM:   3    -0.657108332195E+03    0.44046E-05   -0.34918E-05  6744   0.144E-02    0.447E-02
RMM:   4    -0.657108320863E+03    0.11332E-04   -0.90000E-06  6472   0.629E-03    0.243E-02
RMM:   5    -0.657108322275E+03   -0.14124E-05   -0.54664E-06  5944   0.481E-03    0.245E-02
RMM:   6    -0.657108319468E+03    0.28066E-05   -0.48644E-06  5630   0.427E-03    0.155E-02
RMM:   7    -0.657108320586E+03   -0.11182E-05   -0.28967E-06  4443   0.380E-03    0.157E-02
RMM:   8    -0.657108319521E+03    0.10660E-05   -0.22508E-07  1809   0.286E-03
  52 F= -.65710832E+03 E0= -.65652154E+03  d E =-.143404E-02  mag=    -0.0000
       N       E                     dE             d eps       ncg     rms          rms(c)
DAV:   1    -0.657108761356E+03   -0.44077E-03   -0.14635E-02 13120   0.182E-01    0.285E-02
RMM:   2    -0.657108804095E+03   -0.42739E-04   -0.25187E-04  7852   0.317E-02    0.693E-02
RMM:   3    -0.657108792778E+03    0.11318E-04   -0.46391E-05  6784   0.157E-02    0.409E-02
RMM:   4    -0.657108787480E+03    0.52983E-05   -0.12320E-05  6514   0.765E-03    0.253E-02
RMM:   5    -0.657108788323E+03   -0.84333E-06   -0.56613E-06  5994   0.519E-03    0.255E-02
RMM:   6    -0.657108786275E+03    0.20474E-05   -0.25969E-06  4350   0.379E-03    0.189E-02
RMM:   7    -0.657108785920E+03    0.35555E-06   -0.22766E-06  4282   0.355E-03    0.679E-03
RMM:   8    -0.657108785826E+03    0.93882E-07   -0.35722E-07  1727   0.282E-03
  53 F= -.65710879E+03 E0= -.65652195E+03  d E =-.466306E-03  mag=    -0.0000
       N       E                     dE             d eps       ncg     rms          rms(c)
DAV:   1    -0.657109550310E+03   -0.76439E-03   -0.13134E-01 12736   0.545E-01    0.775E-02
RMM:   2    -0.657109757741E+03   -0.20743E-03   -0.21743E-03 12538   0.940E-02    0.978E-02
RMM:   3    -0.657109797338E+03   -0.39597E-04   -0.48954E-04 10470   0.387E-02    0.615E-02
RMM:   4    -0.657109951265E+03   -0.15393E-03   -0.92623E-05  7346   0.199E-02    0.157E-01
RMM:   5    -0.657109817090E+03    0.13417E-03   -0.43932E-05  7118   0.142E-02    0.853E-02
RMM:   6    -0.657109798290E+03    0.18800E-04   -0.28392E-05  6866   0.102E-02    0.472E-02
RMM:   7    -0.657109796209E+03    0.20812E-05   -0.22467E-05  6466   0.844E-03    0.292E-02
RMM:   8    -0.657109792494E+03    0.37148E-05   -0.73502E-06  6050   0.618E-03
  54 F= -.65710979E+03 E0= -.65652280E+03  d E =-.147297E-02  mag=    -0.0000
       N       E                     dE             d eps       ncg     rms          rms(c)
DAV:   1    -0.657107342757E+03    0.24535E-02   -0.52578E-01 12736   0.109E+00    0.160E-01
RMM:   2    -0.657108190305E+03   -0.84755E-03   -0.87114E-03 12544   0.188E-01    0.194E-01
RMM:   3    -0.657108369167E+03   -0.17886E-03   -0.20312E-03 13820   0.775E-02    0.127E-01
RMM:   4    -0.657108933462E+03   -0.56430E-03   -0.37378E-04  9520   0.338E-02    0.310E-01
RMM:   5    -0.657108458576E+03    0.47489E-03   -0.16427E-04  7600   0.259E-02    0.174E-01
RMM:   6    -0.657108347459E+03    0.11112E-03   -0.11139E-04  7384   0.209E-02    0.997E-02
RMM:   7    -0.657108330968E+03    0.16492E-04   -0.89532E-05  7258   0.167E-02    0.489E-02
RMM:   8    -0.657108320328E+03    0.10640E-04   -0.29940E-05  7092   0.120E-02
  55 F= -.65710832E+03 E0= -.65652101E+03  d E =-.807202E-06  mag=     0.0000
       N       E                     dE             d eps       ncg     rms          rms(c)
DAV:   1    -0.657109246231E+03   -0.91526E-03   -0.37523E-01 13120   0.922E-01    0.136E-01
RMM:   2    -0.657109836702E+03   -0.59047E-03   -0.61245E-03 12544   0.158E-01    0.175E-01
RMM:   3    -0.657109920517E+03   -0.83815E-04   -0.13865E-03 13238   0.655E-02    0.105E-01
RMM:   4    -0.657110188659E+03   -0.26814E-03   -0.25780E-04  8350   0.289E-02    0.219E-01
RMM:   5    -0.657110024947E+03    0.16371E-03   -0.12046E-04  7426   0.230E-02    0.164E-01
RMM:   6    -0.657109904173E+03    0.12077E-03   -0.82024E-05  7210   0.172E-02    0.896E-02
RMM:   7    -0.657109886378E+03    0.17795E-04   -0.70814E-05  7046   0.151E-02    0.387E-02
RMM:   8    -0.657109881155E+03    0.52228E-05   -0.23494E-05  6754   0.104E-02
  56 F= -.65710988E+03 E0= -.65652283E+03  d E =-.156163E-02  mag=    -0.0000
       N       E                     dE             d eps       ncg     rms          rms(c)
DAV:   1    -0.657110545367E+03   -0.65899E-03   -0.86947E-03 13008   0.153E-01    0.271E-02
RMM:   2    -0.657110579509E+03   -0.34141E-04   -0.17488E-04  7150   0.263E-02    0.607E-02
RMM:   3    -0.657110560945E+03    0.18563E-04   -0.25579E-05  6728   0.126E-02    0.287E-02
RMM:   4    -0.657110561958E+03   -0.10125E-05   -0.66560E-06  6566   0.566E-03    0.238E-02
RMM:   5    -0.657110562887E+03   -0.92915E-06   -0.40745E-06  5632   0.456E-03    0.284E-02
RMM:   6    -0.657110561551E+03    0.13358E-05   -0.22222E-06  4152   0.367E-03    0.169E-02
RMM:   7    -0.657110560333E+03    0.12181E-05   -0.17017E-06  3996   0.346E-03    0.640E-03
RMM:   8    -0.657110560411E+03   -0.77394E-07   -0.30262E-08  1421   0.267E-03
  57 F= -.65711056E+03 E0= -.65652355E+03  d E =-.679255E-03  mag=    -0.0000
       N       E                     dE             d eps       ncg     rms          rms(c)
DAV:   1    -0.657111080743E+03   -0.52041E-03   -0.77826E-02 12768   0.458E-01    0.586E-02
RMM:   2    -0.657111241434E+03   -0.16069E-03   -0.15180E-03 12534   0.778E-02    0.123E-01
RMM:   3    -0.657111241811E+03   -0.37712E-06   -0.27089E-04  8174   0.320E-02    0.563E-02
RMM:   4    -0.657111273675E+03   -0.31864E-04   -0.53896E-05  7056   0.182E-02    0.923E-02
RMM:   5    -0.657111258462E+03    0.15213E-04   -0.17965E-05  6846   0.850E-03    0.766E-02
RMM:   6    -0.657111248783E+03    0.96787E-05   -0.11452E-05  6216   0.651E-03    0.646E-02
RMM:   7    -0.657111250014E+03   -0.12309E-05   -0.77732E-06  6150   0.565E-03    0.523E-02
RMM:   8    -0.657111244569E+03    0.54449E-05   -0.56683E-06  5830   0.440E-03
  58 F= -.65711124E+03 E0= -.65652433E+03  d E =-.136341E-02  mag=     0.0000
       N       E                     dE             d eps       ncg     rms          rms(c)
DAV:   1    -0.657111283584E+03   -0.33570E-04   -0.31047E-03 12160   0.916E-02    0.239E-02
RMM:   2    -0.657111300821E+03   -0.17237E-04   -0.67339E-05  6766   0.162E-02    0.469E-02
RMM:   3    -0.657111299983E+03    0.83781E-06   -0.15884E-05  6746   0.978E-03    0.449E-02
RMM:   4    -0.657111288537E+03    0.11446E-04   -0.30478E-06  5616   0.401E-03    0.217E-02
RMM:   5    -0.657111287954E+03    0.58310E-06   -0.10594E-07  1810   0.263E-03    0.128E-02
RMM:   6    -0.657111288421E+03   -0.46678E-06   -0.42381E-07  2259   0.298E-03    0.129E-02
RMM:   7    -0.657111288098E+03    0.32277E-06   -0.17602E-06  3361   0.329E-03    0.107E-02
RMM:   8    -0.657111287797E+03    0.30078E-06    0.00000E+00   954   0.248E-03
  59 F= -.65711129E+03 E0= -.65652436E+03  d E =-.140664E-02  mag=    -0.0000
       N       E                     dE             d eps       ncg     rms          rms(c)
DAV:   1    -0.657111700209E+03   -0.41211E-03   -0.11759E-02 13056   0.173E-01    0.255E-02
RMM:   2    -0.657111732289E+03   -0.32079E-04   -0.24317E-04  7520   0.306E-02    0.644E-02
RMM:   3    -0.657111723142E+03    0.91466E-05   -0.36889E-05  6714   0.150E-02    0.264E-02
RMM:   4    -0.657111731711E+03   -0.85691E-05   -0.94650E-06  6600   0.654E-03    0.443E-02
RMM:   5    -0.657111725865E+03    0.58460E-05   -0.49111E-06  5952   0.498E-03    0.319E-02
RMM:   6    -0.657111724403E+03    0.14625E-05   -0.17464E-06  3852   0.352E-03    0.197E-02
RMM:   7    -0.657111724808E+03   -0.40494E-06   -0.11876E-06  3422   0.324E-03    0.121E-02
RMM:   8    -0.657111725148E+03   -0.34033E-06   -0.50068E-07  2096   0.300E-03
  60 F= -.65711173E+03 E0= -.65652481E+03  d E =-.437351E-03  mag=     0.0000
       N       E                     dE             d eps       ncg     rms          rms(c)
DAV:   1    -0.657111828939E+03   -0.10413E-03   -0.22683E-02 12992   0.240E-01    0.365E-02
RMM:   2    -0.657111871936E+03   -0.42997E-04   -0.46450E-04  9832   0.423E-02    0.604E-02
RMM:   3    -0.657111876039E+03   -0.41029E-05   -0.77407E-05  6754   0.190E-02    0.300E-02
RMM:   4    -0.657111915469E+03   -0.39430E-04   -0.21492E-05  6778   0.103E-02    0.827E-02
RMM:   5    -0.657111876246E+03    0.39223E-04   -0.81923E-06  6358   0.624E-03    0.340E-02
RMM:   6    -0.657111879052E+03   -0.28055E-05   -0.33657E-06  4782   0.394E-03    0.296E-02
RMM:   7    -0.657111879658E+03   -0.60665E-06   -0.14288E-06  3714   0.340E-03    0.276E-02
RMM:   8    -0.657111879459E+03    0.19930E-06   -0.13135E-06  3164   0.319E-03
  61 F= -.65711188E+03 E0= -.65652495E+03  d E =-.591662E-03  mag=     0.0000
       N       E                     dE             d eps       ncg     rms          rms(c)
DAV:   1    -0.657111896519E+03   -0.16861E-04   -0.14580E-03 12320   0.611E-02    0.209E-02
RMM:   2    -0.657111905542E+03   -0.90225E-05   -0.32683E-05  6770   0.114E-02    0.358E-02
RMM:   3    -0.657111903593E+03    0.19485E-05   -0.90179E-06  6736   0.719E-03    0.307E-02
RMM:   4    -0.657111901246E+03    0.23472E-05   -0.99106E-07  3210   0.318E-03    0.243E-02
RMM:   5    -0.657111898057E+03    0.31885E-05   -0.19365E-07  1880   0.287E-03    0.761E-03
RMM:   6    -0.657111899088E+03   -0.10305E-05   -0.12960E-07  1352   0.272E-03    0.122E-02
RMM:   7    -0.657111898752E+03    0.33609E-06   -0.12406E-07  1240   0.277E-03    0.103E-02
RMM:   8    -0.657111898200E+03    0.55140E-06   -0.67060E-08  1048   0.278E-03
  62 F= -.65711190E+03 E0= -.65652498E+03  d E =-.610403E-03  mag=     0.0000
       N       E                     dE             d eps       ncg     rms          rms(c)
DAV:   1    -0.657112046067E+03   -0.14732E-03   -0.45464E-03 12544   0.106E-01    0.157E-02
RMM:   2    -0.657112055672E+03   -0.96049E-05   -0.97622E-05  6766   0.206E-02    0.331E-02
RMM:   3    -0.657112054934E+03    0.73785E-06   -0.15701E-05  6696   0.985E-03    0.134E-02
RMM:   4    -0.657112057440E+03   -0.25059E-05   -0.43771E-06  6130   0.455E-03    0.240E-02
RMM:   5    -0.657112056996E+03    0.44443E-06   -0.84818E-07  3304   0.321E-03    0.197E-02
RMM:   6    -0.657112056106E+03    0.88980E-06   -0.24922E-07  1875   0.283E-03    0.135E-02
RMM:   7    -0.657112056579E+03   -0.47278E-06   -0.16103E-07  1609   0.274E-03    0.113E-02
RMM:   8    -0.657112056315E+03    0.26424E-06   -0.44864E-07  1775   0.284E-03
  63 F= -.65711206E+03 E0= -.65652513E+03  d E =-.158114E-03  mag=     0.0000
