 ----------------------------------------------------
    OOO  PPPP  EEEEE N   N M   M PPPP
   O   O P   P E     NN  N MM MM P   P
   O   O PPPP  EEEEE N N N M M M PPPP   -- VERSION
   O   O P     E     N  NN M   M P
    OOO  P     EEEEE N   N M   M P
 ----------------------------------------------------
 running   16 mpi-ranks, with    4 threads/rank
 distrk:  each k-point on   16 cores,    1 groups
 distr:  one band on    1 cores,   16 groups
 vasp.6.2.1 16May21 (build Jul 28 2021 23:24:15) complex                        
  
 POSCAR found type information on POSCAR IrO 
 POSCAR found :  2 types and       6 ions
 scaLAPACK will be used
 LDA part: xc-table for Pade appr. of Perdew
 -----------------------------------------------------------------------------
|                                                                             |
|           W    W    AA    RRRRR   N    N  II  N    N   GGGG   !!!           |
|           W    W   A  A   R    R  NN   N  II  NN   N  G    G  !!!           |
|           W    W  A    A  R    R  N N  N  II  N N  N  G       !!!           |
|           W WW W  AAAAAA  RRRRR   N  N N  II  N  N N  G  GGG   !            |
|           WW  WW  A    A  R   R   N   NN  II  N   NN  G    G                |
|           W    W  A    A  R    R  N    N  II  N    N   GGGG   !!!           |
|                                                                             |
|     Your reciprocal lattice and k-lattice belong to different lattice       |
|     classes:                                                                |
|                                                                             |
|        The reciprocal lattice is simple tetragonal,                         |
|        whereas your k-lattice is simple monoclinic.                         |
|                                                                             |
|     Results are often still useful ...                                      |
|                                                                             |
 -----------------------------------------------------------------------------

 POSCAR, INCAR and KPOINTS ok, starting setup
 FFT: planning ...
 WAVECAR not read
 WARNING: random wavefunctions but no delay for mixing, default for NELMDL
 entering main loop
       N       E                     dE             d eps       ncg     rms          rms(c)
DAV:   1     0.323737554478E+03    0.32374E+03   -0.21551E+04 98880   0.125E+03
DAV:   2    -0.305881641042E+02   -0.35433E+03   -0.34152E+03107472   0.329E+02
DAV:   3    -0.493869014450E+02   -0.18799E+02   -0.18520E+02135440   0.856E+01
DAV:   4    -0.495881690566E+02   -0.20127E+00   -0.20122E+00111376   0.957E+00
DAV:   5    -0.495912517471E+02   -0.30827E-02   -0.30826E-02133296   0.109E+00    0.456E+01
RMM:   6    -0.427490631870E+02    0.68422E+01   -0.21585E+01 98827   0.274E+01    0.261E+01
RMM:   7    -0.423031488278E+02    0.44591E+00   -0.23287E+00 98816   0.132E+01    0.119E+01
RMM:   8    -0.422783319536E+02    0.24817E-01   -0.55639E-01 99185   0.369E+00    0.540E+00
RMM:   9    -0.422905896278E+02   -0.12258E-01   -0.11971E-01100124   0.206E+00    0.811E-01
RMM:  10    -0.422946965768E+02   -0.41069E-02   -0.30026E-02 98968   0.829E-01    0.486E-01
RMM:  11    -0.422952390556E+02   -0.54248E-03   -0.55247E-03 98997   0.559E-01    0.247E-01
RMM:  12    -0.422956639450E+02   -0.42489E-03   -0.30200E-03 98849   0.255E-01    0.180E-01
RMM:  13    -0.422956765674E+02   -0.12622E-04   -0.26781E-04 74552   0.112E-01
   1 F= -.42295677E+02 E0= -.42264616E+02  d E =-.422957E+02  mag=     0.0045
 curvature:   0.00 expect dE= 0.000E+00 dE for cont linesearch  0.000E+00
 trial: gam= 0.00000 g(F)=  0.573E-04 g(S)=  0.000E+00 ort = 0.000E+00 (trialstep = 0.100E+01)
 search vector abs. value=  0.573E-04
 reached required accuracy - stopping structural energy minimisation
 writing wavefunctions
