       N       E                     dE             d eps       ncg     rms          rms(c)
DAV:   1     0.893923798592E+04    0.89392E+04   -0.33928E+05 24864   0.111E+03
DAV:   2     0.768811956942E+03   -0.81704E+04   -0.73569E+04 30960   0.303E+02
DAV:   3    -0.908069896400E+03   -0.16769E+04   -0.16556E+04 29664   0.148E+02
DAV:   4    -0.992151940929E+03   -0.84082E+02   -0.83512E+02 33104   0.408E+01
DAV:   5    -0.995483220359E+03   -0.33313E+01   -0.33223E+01 39872   0.646E+00    0.176E+02
RMM:   6    -0.941772546625E+03    0.53711E+02   -0.27584E+03 26930   0.912E+01    0.354E+02
RMM:   7    -0.724501505755E+03    0.21727E+03   -0.32568E+02 24333   0.303E+01    0.210E+02
RMM:   8    -0.894139655260E+03   -0.16964E+03   -0.30692E+02 24386   0.276E+01    0.213E+02
RMM:   9    -0.656031344017E+03    0.23811E+03   -0.15784E+02 24331   0.202E+01    0.144E+02
RMM:  10    -0.551909316431E+03    0.10412E+03   -0.77245E+01 24350   0.149E+01    0.829E+01
RMM:  11    -0.529282579346E+03    0.22627E+02   -0.25756E+01 24382   0.789E+00    0.774E+01
RMM:  12    -0.528013769323E+03    0.12688E+01   -0.15961E+01 24533   0.658E+00    0.745E+01
RMM:  13    -0.518791428805E+03    0.92223E+01   -0.17345E+01 24552   0.666E+00    0.623E+01
RMM:  14    -0.510088222730E+03    0.87032E+01   -0.12414E+01 24615   0.589E+00    0.516E+01
RMM:  15    -0.494863923572E+03    0.15224E+02   -0.89392E+00 24352   0.470E+00    0.445E+01
RMM:  16    -0.484821540991E+03    0.10042E+02   -0.43760E+00 24529   0.330E+00    0.391E+01
RMM:  17    -0.476143741208E+03    0.86778E+01   -0.26811E+00 24965   0.249E+00    0.361E+01
RMM:  18    -0.467063208795E+03    0.90805E+01   -0.23212E+00 25223   0.229E+00    0.339E+01
RMM:  19    -0.458668440271E+03    0.83948E+01   -0.22446E+00 25287   0.233E+00    0.320E+01
RMM:  20    -0.452592963482E+03    0.60755E+01   -0.19291E+00 25337   0.216E+00    0.307E+01
RMM:  21    -0.450382606042E+03    0.22104E+01   -0.12136E+00 25095   0.179E+00    0.295E+01
RMM:  22    -0.449278429287E+03    0.11042E+01   -0.11531E+00 25551   0.167E+00    0.282E+01
RMM:  23    -0.452727096830E+03   -0.34487E+01   -0.10807E+00 25690   0.168E+00    0.279E+01
RMM:  24    -0.462149300827E+03   -0.94222E+01   -0.19081E+00 28041   0.207E+00    0.268E+01
RMM:  25    -0.475046083341E+03   -0.12897E+02   -0.20712E+00 27928   0.206E+00    0.267E+01
RMM:  26    -0.485944504632E+03   -0.10898E+02   -0.22159E+00 28720   0.207E+00    0.264E+01
RMM:  27    -0.501097742958E+03   -0.15153E+02   -0.31848E+00 28885   0.233E+00    0.253E+01
RMM:  28    -0.517378402490E+03   -0.16281E+02   -0.40009E+00 30988   0.257E+00    0.244E+01
RMM:  29    -0.533031032884E+03   -0.15653E+02   -0.43390E+00 31249   0.261E+00    0.232E+01
RMM:  30    -0.550810131868E+03   -0.17779E+02   -0.56705E+00 32465   0.289E+00    0.233E+01
RMM:  31    -0.570682377065E+03   -0.19872E+02   -0.79150E+00 33846   0.340E+00    0.227E+01
RMM:  32    -0.588843579689E+03   -0.18161E+02   -0.84707E+00 34383   0.355E+00    0.221E+01
RMM:  33    -0.606037592307E+03   -0.17194E+02   -0.97042E+00 34634   0.367E+00    0.208E+01
RMM:  34    -0.618748789608E+03   -0.12711E+02   -0.80427E+00 34605   0.329E+00    0.180E+01
RMM:  35    -0.621948500620E+03   -0.31997E+01   -0.15297E+00 30694   0.166E+00    0.164E+01
RMM:  36    -0.624555676377E+03   -0.26072E+01   -0.64682E-01 27790   0.121E+00    0.151E+01
RMM:  37    -0.627578095916E+03   -0.30224E+01   -0.47850E-01 27409   0.100E+00    0.143E+01
RMM:  38    -0.632121523608E+03   -0.45434E+01   -0.77566E-01 29605   0.119E+00    0.141E+01
RMM:  39    -0.636577652945E+03   -0.44561E+01   -0.10961E+00 31088   0.139E+00    0.141E+01
RMM:  40    -0.640582754940E+03   -0.40051E+01   -0.11681E+00 31751   0.136E+00    0.136E+01
RMM:  41    -0.643970473897E+03   -0.33877E+01   -0.11558E+00 31984   0.132E+00    0.140E+01
RMM:  42    -0.645415234076E+03   -0.14448E+01   -0.11000E+00 32177   0.123E+00    0.150E+01
RMM:  43    -0.645814715002E+03   -0.39948E+00   -0.94105E-01 31595   0.115E+00    0.159E+01
RMM:  44    -0.647091442782E+03   -0.12767E+01   -0.33438E-01 28128   0.752E-01    0.156E+01
RMM:  45    -0.648154749177E+03   -0.10633E+01   -0.46274E-01 29886   0.883E-01    0.158E+01
RMM:  46    -0.650361139851E+03   -0.22064E+01   -0.62236E-01 31125   0.987E-01    0.155E+01
RMM:  47    -0.652025480867E+03   -0.16643E+01   -0.29521E-01 29112   0.736E-01    0.144E+01
RMM:  48    -0.654666981184E+03   -0.26415E+01   -0.47150E-01 30971   0.877E-01    0.121E+01
RMM:  49    -0.656804312963E+03   -0.21373E+01   -0.53935E-01 31658   0.873E-01    0.979E+00
RMM:  50    -0.659281414526E+03   -0.24771E+01   -0.41780E-01 30261   0.750E-01    0.779E+00
RMM:  51    -0.659696023257E+03   -0.41461E+00   -0.52689E-01 32977   0.107E+00    0.669E+00
RMM:  52    -0.661031999983E+03   -0.13360E+01   -0.60612E-01 31555   0.928E-01    0.516E+00
RMM:  53    -0.663266651001E+03   -0.22347E+01   -0.52969E-01 30597   0.668E-01    0.432E+00
RMM:  54    -0.664271219264E+03   -0.10046E+01   -0.11691E-01 26702   0.441E-01    0.369E+00
RMM:  55    -0.664608354984E+03   -0.33714E+00   -0.96202E-02 26633   0.365E-01    0.332E+00
RMM:  56    -0.664913472467E+03   -0.30512E+00   -0.67013E-02 26246   0.340E-01    0.294E+00
RMM:  57    -0.664696753135E+03    0.21672E+00   -0.56256E-02 26497   0.306E-01    0.276E+00
RMM:  58    -0.664381194523E+03    0.31556E+00   -0.34916E-02 25945   0.295E-01    0.239E+00
RMM:  59    -0.664286123212E+03    0.95071E-01   -0.28417E-02 25800   0.244E-01    0.201E+00
RMM:  60    -0.664534847264E+03   -0.24872E+00   -0.18921E-02 25460   0.184E-01    0.181E+00
RMM:  61    -0.664828877404E+03   -0.29403E+00   -0.25507E-02 26548   0.240E-01    0.172E+00
RMM:  62    -0.665023668450E+03   -0.19479E+00   -0.10581E-02 24938   0.157E-01    0.136E+00
RMM:  63    -0.665090935832E+03   -0.67267E-01   -0.70799E-03 25158   0.104E-01    0.124E+00
RMM:  64    -0.665166431193E+03   -0.75495E-01   -0.51859E-03 25107   0.931E-02    0.120E+00
RMM:  65    -0.665254361292E+03   -0.87930E-01   -0.42374E-03 25024   0.813E-02    0.115E+00
RMM:  66    -0.665335908661E+03   -0.81547E-01   -0.36025E-03 25182   0.777E-02    0.113E+00
RMM:  67    -0.665437010834E+03   -0.10110E+00   -0.54362E-03 27001   0.843E-02    0.108E+00
RMM:  68    -0.665448443864E+03   -0.11433E-01   -0.47103E-03 26285   0.732E-02    0.103E+00
RMM:  69    -0.665361984570E+03    0.86459E-01   -0.44447E-03 26220   0.674E-02    0.101E+00
RMM:  70    -0.665241561773E+03    0.12042E+00   -0.44869E-03 26348   0.699E-02    0.974E-01
RMM:  71    -0.665114985854E+03    0.12658E+00   -0.41168E-03 27478   0.688E-02    0.948E-01
RMM:  72    -0.665095865109E+03    0.19121E-01   -0.38385E-03 27917   0.710E-02    0.896E-01
RMM:  73    -0.665208359476E+03   -0.11249E+00   -0.24144E-03 25728   0.582E-02    0.831E-01
RMM:  74    -0.665180841678E+03    0.27518E-01   -0.22259E-03 26113   0.653E-02    0.781E-01
RMM:  75    -0.665251553798E+03   -0.70712E-01   -0.28128E-03 26786   0.688E-02    0.701E-01
RMM:  76    -0.665457677624E+03   -0.20612E+00   -0.39194E-03 27926   0.737E-02    0.581E-01
RMM:  77    -0.665484029131E+03   -0.26352E-01   -0.60131E-03 29631   0.830E-02    0.528E-01
RMM:  78    -0.665518281792E+03   -0.34253E-01   -0.46202E-03 28442   0.728E-02    0.384E-01
RMM:  79    -0.665562553890E+03   -0.44272E-01   -0.25255E-03 25947   0.550E-02    0.300E-01
RMM:  80    -0.665674485791E+03   -0.11193E+00   -0.12596E-03 23235   0.391E-02
   1 F= -.66567449E+03 E0= -.66525645E+03  d E =-.665674E+03  mag=    80.1341
       N       E                     dE             d eps       ncg     rms          rms(c)
DAV:   1    -0.665053198323E+03    0.50936E+00   -0.20289E+02 27568   0.146E+01    0.635E+00
RMM:   2    -0.665496827037E+03   -0.44363E+00   -0.64232E+00 24321   0.282E+00    0.882E+00
RMM:   3    -0.665740542648E+03   -0.24372E+00   -0.16645E+00 24431   0.142E+00    0.555E+00
RMM:   4    -0.665518850239E+03    0.22169E+00   -0.18725E-01 24902   0.602E-01    0.426E+00
RMM:   5    -0.665427775843E+03    0.91074E-01   -0.69638E-02 24502   0.328E-01    0.233E+00
RMM:   6    -0.665475935541E+03   -0.48160E-01   -0.62827E-02 24124   0.254E-01    0.175E+00
RMM:   7    -0.665555353048E+03   -0.79418E-01   -0.24646E-02 23897   0.201E-01    0.117E+00
RMM:   8    -0.665699105899E+03   -0.14375E+00   -0.47957E-02 25474   0.207E-01    0.116E+00
RMM:   9    -0.665760895338E+03   -0.61789E-01   -0.22592E-02 24785   0.162E-01    0.765E-01
RMM:  10    -0.665795287658E+03   -0.34392E-01   -0.94520E-03 23644   0.125E-01    0.690E-01
RMM:  11    -0.665828771444E+03   -0.33484E-01   -0.47928E-03 22892   0.870E-02    0.489E-01
RMM:  12    -0.665848418126E+03   -0.19647E-01   -0.29622E-03 22330   0.676E-02    0.285E-01
RMM:  13    -0.665855756027E+03   -0.73379E-02   -0.97340E-04 20943   0.383E-02    0.175E-01
RMM:  14    -0.665859480924E+03   -0.37249E-02   -0.34926E-04 18636   0.227E-02    0.130E-01
RMM:  15    -0.665864960121E+03   -0.54792E-02   -0.15346E-04 15743   0.153E-02    0.108E-01
RMM:  16    -0.665877615244E+03   -0.12655E-01   -0.16593E-04 15957   0.157E-02    0.971E-02
RMM:  17    -0.665889886583E+03   -0.12271E-01   -0.11233E-04 15044   0.144E-02    0.892E-02
RMM:  18    -0.665902861907E+03   -0.12975E-01   -0.10522E-04 14738   0.138E-02    0.763E-02
RMM:  19    -0.665916036590E+03   -0.13175E-01   -0.98184E-05 14679   0.123E-02    0.679E-02
RMM:  20    -0.665931972067E+03   -0.15935E-01   -0.11355E-04 14821   0.122E-02    0.631E-02
RMM:  21    -0.665944132403E+03   -0.12160E-01   -0.87798E-05 14417   0.111E-02    0.571E-02
RMM:  22    -0.665952273708E+03   -0.81413E-02   -0.57676E-05 13734   0.941E-03    0.532E-02
RMM:  23    -0.665959130652E+03   -0.68569E-02   -0.38948E-05 13445   0.763E-03    0.496E-02
RMM:  24    -0.665967507187E+03   -0.83765E-02   -0.35689E-05 13238   0.686E-03    0.475E-02
RMM:  25    -0.665975128802E+03   -0.76216E-02   -0.34813E-05 13211   0.638E-03    0.449E-02
RMM:  26    -0.665984405917E+03   -0.92771E-02   -0.34208E-05 13257   0.643E-03    0.439E-02
RMM:  27    -0.665991462118E+03   -0.70562E-02   -0.31975E-05 12856   0.608E-03    0.408E-02
RMM:  28    -0.666001192255E+03   -0.97301E-02   -0.29878E-05 12907   0.608E-03    0.370E-02
RMM:  29    -0.666009911579E+03   -0.87193E-02   -0.25994E-05 12758   0.569E-03    0.328E-02
RMM:  30    -0.666017529481E+03   -0.76179E-02   -0.20663E-05 12613   0.502E-03    0.308E-02
RMM:  31    -0.666022323294E+03   -0.47938E-02   -0.11753E-05 11870   0.434E-03    0.296E-02
RMM:  32    -0.666026271411E+03   -0.39481E-02   -0.76863E-06 11170   0.383E-03    0.280E-02
RMM:  33    -0.666031416351E+03   -0.51449E-02   -0.64426E-06 11630   0.364E-03    0.269E-02
RMM:  34    -0.666037286597E+03   -0.58702E-02   -0.74371E-06 12308   0.375E-03    0.261E-02
RMM:  35    -0.666043485477E+03   -0.61989E-02   -0.10048E-05 12708   0.419E-03    0.251E-02
RMM:  36    -0.666050903413E+03   -0.74179E-02   -0.13171E-05 12757   0.436E-03    0.226E-02
RMM:  37    -0.666056132870E+03   -0.52295E-02   -0.86947E-06 11448   0.361E-03    0.215E-02
RMM:  38    -0.666061849771E+03   -0.57169E-02   -0.88310E-06 12068   0.360E-03    0.202E-02
RMM:  39    -0.666066710480E+03   -0.48607E-02   -0.74879E-06 11732   0.350E-03    0.181E-02
RMM:  40    -0.666070123261E+03   -0.34128E-02   -0.57437E-06 10982   0.332E-03    0.166E-02
RMM:  41    -0.666072788294E+03   -0.26650E-02   -0.46217E-06 10489   0.305E-03    0.152E-02
RMM:  42    -0.666074735314E+03   -0.19470E-02   -0.26268E-06  9485   0.267E-03    0.143E-02
RMM:  43    -0.666077135770E+03   -0.24005E-02   -0.38873E-06 10548   0.284E-03    0.136E-02
RMM:  44    -0.666079304868E+03   -0.21691E-02   -0.29104E-06 10300   0.275E-03    0.123E-02
RMM:  45    -0.666081085053E+03   -0.17802E-02   -0.19045E-06  9335   0.257E-03    0.114E-02
RMM:  46    -0.666083195899E+03   -0.21108E-02   -0.24737E-06 10157   0.273E-03    0.101E-02
RMM:  47    -0.666084797393E+03   -0.16015E-02   -0.17332E-06  9529   0.259E-03    0.949E-03
RMM:  48    -0.666086601999E+03   -0.18046E-02   -0.20080E-06  9093   0.258E-03    0.719E-03
RMM:  49    -0.666087452227E+03   -0.85023E-03   -0.11543E-06  7752   0.228E-03    0.614E-03
RMM:  50    -0.666088375045E+03   -0.92282E-03   -0.19580E-06  7985   0.235E-03    0.549E-03
RMM:  51    -0.666089116030E+03   -0.74098E-03   -0.24973E-06  8485   0.245E-03    0.480E-03
RMM:  52    -0.666089537360E+03   -0.42133E-03   -0.19953E-06  7982   0.236E-03    0.399E-03
RMM:  53    -0.666089836677E+03   -0.29932E-03   -0.19340E-06  7846   0.233E-03    0.365E-03
RMM:  54    -0.666089995783E+03   -0.15911E-03   -0.25628E-06  8381   0.240E-03    0.334E-03
RMM:  55    -0.666090089275E+03   -0.93491E-04   -0.16761E-06  7644   0.228E-03
   2 F= -.66609009E+03 E0= -.66566871E+03  d E =-.415603E+00  mag=    79.8505
       N       E                     dE             d eps       ncg     rms          rms(c)
DAV:   1    -0.666384572644E+03   -0.29458E+00   -0.17778E+01 27312   0.421E+00    0.252E+00
RMM:   2    -0.666454555281E+03   -0.69983E-01   -0.79410E-01 24277   0.848E-01    0.380E+00
RMM:   3    -0.666413124827E+03    0.41430E-01   -0.14323E-01 23872   0.498E-01    0.179E+00
RMM:   4    -0.666405854139E+03    0.72707E-02   -0.30006E-02 23173   0.243E-01    0.783E-01
RMM:   5    -0.666405203874E+03    0.65026E-03   -0.13726E-02 22531   0.151E-01    0.624E-01
RMM:   6    -0.666404666781E+03    0.53709E-03   -0.43903E-03 21946   0.790E-02    0.424E-01
RMM:   7    -0.666404466840E+03    0.19994E-03   -0.29542E-03 21619   0.739E-02    0.408E-01
RMM:   8    -0.666404408229E+03    0.58612E-04   -0.16778E-03 21126   0.565E-02    0.193E-01
RMM:   9    -0.666404391882E+03    0.16347E-04   -0.56635E-04 19179   0.306E-02
   3 F= -.66640439E+03 E0= -.66598413E+03  d E =-.729906E+00  mag=    79.8504
       N       E                     dE             d eps       ncg     rms          rms(c)
DAV:   1    -0.666483205036E+03   -0.78797E-01   -0.11338E+01 27248   0.339E+00    0.193E+00
RMM:   2    -0.666529087022E+03   -0.45882E-01   -0.48536E-01 24085   0.682E-01    0.299E+00
RMM:   3    -0.666504556572E+03    0.24530E-01   -0.88618E-02 23590   0.398E-01    0.133E+00
RMM:   4    -0.666501694816E+03    0.28618E-02   -0.18137E-02 22790   0.190E-01    0.549E-01
RMM:   5    -0.666501617286E+03    0.77530E-04   -0.72340E-03 22080   0.112E-01    0.465E-01
RMM:   6    -0.666501442590E+03    0.17470E-03   -0.22043E-03 21364   0.572E-02    0.324E-01
RMM:   7    -0.666501682648E+03   -0.24006E-03   -0.16522E-03 21614   0.558E-02    0.363E-01
RMM:   8    -0.666501561650E+03    0.12100E-03   -0.93183E-04 21010   0.427E-02    0.217E-01
RMM:   9    -0.666501477062E+03    0.84588E-04   -0.33421E-04 18478   0.256E-02
   4 F= -.66650148E+03 E0= -.66608171E+03  d E =-.826991E+00  mag=    79.8506
       N       E                     dE             d eps       ncg     rms          rms(c)
DAV:   1    -0.665540698034E+03    0.96086E+00   -0.11593E+02 25504   0.121E+01    0.483E+00
RMM:   2    -0.665852853411E+03   -0.31216E+00   -0.34575E+00 24320   0.244E+00    0.593E+00
RMM:   3    -0.665908618678E+03   -0.55765E-01   -0.75561E-01 24398   0.110E+00    0.300E+00
RMM:   4    -0.665871444247E+03    0.37174E-01   -0.10995E-01 25587   0.510E-01    0.199E+00
RMM:   5    -0.665858930434E+03    0.12514E-01   -0.37147E-02 26102   0.246E-01    0.121E+00
RMM:   6    -0.665870930623E+03   -0.12000E-01   -0.17375E-02 24316   0.169E-01    0.112E+00
RMM:   7    -0.665866725441E+03    0.42052E-02   -0.16366E-02 23898   0.162E-01    0.827E-01
RMM:   8    -0.665858509939E+03    0.82155E-02   -0.11810E-02 23836   0.137E-01    0.552E-01
RMM:   9    -0.665861314649E+03   -0.28047E-02   -0.31287E-03 22894   0.802E-02    0.472E-01
RMM:  10    -0.665864460552E+03   -0.31459E-02   -0.18239E-03 22657   0.538E-02    0.289E-01
RMM:  11    -0.665867779011E+03   -0.33185E-02   -0.16652E-03 22075   0.476E-02    0.174E-01
RMM:  12    -0.665868655160E+03   -0.87615E-03   -0.48766E-04 20293   0.288E-02    0.105E-01
RMM:  13    -0.665869237759E+03   -0.58260E-03   -0.19301E-04 16912   0.181E-02    0.671E-02
RMM:  14    -0.665869391687E+03   -0.15393E-03   -0.83925E-05 15140   0.131E-02    0.586E-02
RMM:  15    -0.665869374393E+03    0.17294E-04   -0.51499E-05 14466   0.111E-02
   5 F= -.66586937E+03 E0= -.66544427E+03  d E =0.632103E+00  mag=    79.8511
       N       E                     dE             d eps       ncg     rms          rms(c)
DAV:   1    -0.666328762363E+03   -0.45937E+00   -0.74734E+01 25680   0.958E+00    0.410E+00
RMM:   2    -0.666591426504E+03   -0.26266E+00   -0.25422E+00 24320   0.189E+00    0.499E+00
RMM:   3    -0.666553283082E+03    0.38143E-01   -0.42349E-01 24407   0.870E-01    0.234E+00
RMM:   4    -0.666543907330E+03    0.93758E-02   -0.86687E-02 25267   0.458E-01    0.139E+00
RMM:   5    -0.666541941129E+03    0.19662E-02   -0.37410E-02 24357   0.275E-01    0.103E+00
RMM:   6    -0.666539175641E+03    0.27655E-02   -0.12352E-02 23821   0.151E-01    0.654E-01
RMM:   7    -0.666540145258E+03   -0.96962E-03   -0.99798E-03 23505   0.135E-01    0.738E-01
RMM:   8    -0.666539634140E+03    0.51112E-03   -0.55946E-03 22922   0.111E-01    0.384E-01
RMM:   9    -0.666539895810E+03   -0.26167E-03   -0.23502E-03 24099   0.595E-02    0.271E-01
RMM:  10    -0.666539989612E+03   -0.93802E-04   -0.81945E-04 22894   0.350E-02
   6 F= -.66653999E+03 E0= -.66612019E+03  d E =-.385126E-01  mag=    79.8521
       N       E                     dE             d eps       ncg     rms          rms(c)
DAV:   1    -0.666541006318E+03   -0.11105E-02   -0.15512E-01 27264   0.446E-01    0.222E-01
RMM:   2    -0.666542056307E+03   -0.10500E-02   -0.61516E-03 23279   0.101E-01    0.351E-01
RMM:   3    -0.666541856024E+03    0.20028E-03   -0.11980E-03 21497   0.526E-02    0.169E-01
RMM:   4    -0.666541864322E+03   -0.82972E-05   -0.33110E-04 17744   0.262E-02    0.827E-02
RMM:   5    -0.666541981752E+03   -0.11743E-03   -0.99206E-05 14802   0.140E-02    0.629E-02
RMM:   6    -0.666542089263E+03   -0.10751E-03   -0.43438E-05 13580   0.107E-02    0.535E-02
RMM:   7    -0.666542265537E+03   -0.17627E-03   -0.38187E-05 13648   0.935E-03    0.363E-02
RMM:   8    -0.666542430192E+03   -0.16465E-03   -0.23351E-05 13272   0.751E-03    0.230E-02
RMM:   9    -0.666542482345E+03   -0.52154E-04   -0.97491E-06 12144   0.506E-03
   7 F= -.66654248E+03 E0= -.66612223E+03  d E =-.410053E-01  mag=    79.8529
       N       E                     dE             d eps       ncg     rms          rms(c)
DAV:   1    -0.666027692063E+03    0.51474E+00   -0.47051E+01 25360   0.809E+00    0.222E+00
RMM:   2    -0.666173763155E+03   -0.14607E+00   -0.11385E+00 24320   0.163E+00    0.211E+00
RMM:   3    -0.666207235055E+03   -0.33472E-01   -0.20414E-01 24387   0.672E-01    0.205E+00
RMM:   4    -0.666195322819E+03    0.11912E-01   -0.51813E-02 25298   0.381E-01    0.116E+00
RMM:   5    -0.666192041613E+03    0.32812E-02   -0.17363E-02 26274   0.173E-01    0.752E-01
RMM:   6    -0.666190265947E+03    0.17757E-02   -0.63291E-03 24497   0.116E-01    0.537E-01
RMM:   7    -0.666189863734E+03    0.40221E-03   -0.44801E-03 23585   0.915E-02    0.385E-01
RMM:   8    -0.666189732973E+03    0.13076E-03   -0.19259E-03 23130   0.629E-02    0.248E-01
RMM:   9    -0.666189638867E+03    0.94106E-04   -0.77579E-04 22563   0.393E-02
   8 F= -.66618964E+03 E0= -.66576874E+03  d E =0.352843E+00  mag=    79.8535
       N       E                     dE             d eps       ncg     rms          rms(c)
DAV:   1    -0.666493466679E+03   -0.30373E+00   -0.19713E+01 25744   0.522E+00    0.143E+00
RMM:   2    -0.666551674029E+03   -0.58207E-01   -0.45942E-01 24320   0.104E+00    0.116E+00
RMM:   3    -0.666567799181E+03   -0.16125E-01   -0.81589E-02 24400   0.415E-01    0.132E+00
RMM:   4    -0.666561134454E+03    0.66647E-02   -0.17582E-02 24892   0.220E-01    0.601E-01
RMM:   5    -0.666560914570E+03    0.21988E-03   -0.62861E-03 24762   0.106E-01    0.508E-01
RMM:   6    -0.666560008001E+03    0.90657E-03   -0.23651E-03 22850   0.761E-02    0.293E-01
RMM:   7    -0.666560180036E+03   -0.17203E-03   -0.17824E-03 22291   0.592E-02    0.226E-01
RMM:   8    -0.666560295531E+03   -0.11550E-03   -0.67029E-04 21224   0.411E-02    0.116E-01
RMM:   9    -0.666560359265E+03   -0.63734E-04   -0.28849E-04 18284   0.225E-02
   9 F= -.66656036E+03 E0= -.66614011E+03  d E =-.178769E-01  mag=    79.8548
       N       E                     dE             d eps       ncg     rms          rms(c)
DAV:   1    -0.666572705105E+03   -0.12410E-01   -0.14701E+00 27360   0.143E+00    0.402E-01
RMM:   2    -0.666577013252E+03   -0.43081E-02   -0.34712E-02 24320   0.288E-01    0.305E-01
RMM:   3    -0.666578466450E+03   -0.14532E-02   -0.62131E-03 23619   0.113E-01    0.366E-01
RMM:   4    -0.666577997543E+03    0.46891E-03   -0.14202E-03 22518   0.608E-02    0.151E-01
RMM:   5    -0.666578123582E+03   -0.12604E-03   -0.61247E-04 21283   0.312E-02    0.146E-01
RMM:   6    -0.666578134772E+03   -0.11190E-04   -0.20755E-04 17031   0.215E-02    0.962E-02
RMM:   7    -0.666578220533E+03   -0.85761E-04   -0.14081E-04 15797   0.181E-02    0.763E-02
RMM:   8    -0.666578280631E+03   -0.60098E-04   -0.74048E-05 14588   0.142E-02
  10 F= -.66657828E+03 E0= -.66615803E+03  d E =-.357983E-01  mag=    79.8556
       N       E                     dE             d eps       ncg     rms          rms(c)
DAV:   1    -0.666579828174E+03   -0.16076E-02   -0.65299E-02 27600   0.302E-01    0.840E-02
RMM:   2    -0.666580031089E+03   -0.20292E-03   -0.15079E-03 21772   0.599E-02    0.663E-02
RMM:   3    -0.666580104342E+03   -0.73252E-04   -0.25207E-04 16955   0.235E-02    0.600E-02
RMM:   4    -0.666580105620E+03   -0.12787E-05   -0.59771E-05 13928   0.140E-02    0.409E-02
RMM:   5    -0.666580115377E+03   -0.97570E-05   -0.20495E-05 12824   0.758E-03    0.300E-02
RMM:   6    -0.666580127890E+03   -0.12512E-04   -0.84275E-06 12078   0.466E-03    0.162E-02
RMM:   7    -0.666580145030E+03   -0.17140E-04   -0.53765E-06 11748   0.408E-03    0.183E-02
RMM:   8    -0.666580157450E+03   -0.12420E-04   -0.19180E-06  9945   0.303E-03
  11 F= -.66658016E+03 E0= -.66615987E+03  d E =-.376751E-01  mag=    79.8563
       N       E                     dE             d eps       ncg     rms          rms(c)
DAV:   1    -0.666531789761E+03    0.48355E-01   -0.62010E+00 25328   0.281E+00    0.811E-01
RMM:   2    -0.666549699415E+03   -0.17910E-01   -0.14497E-01 24320   0.533E-01    0.901E-01
RMM:   3    -0.666552398583E+03   -0.26992E-02   -0.24060E-02 24107   0.212E-01    0.554E-01
RMM:   4    -0.666552799078E+03   -0.40049E-03   -0.59373E-03 23561   0.124E-01    0.537E-01
RMM:   5    -0.666551614691E+03    0.11844E-02   -0.18764E-03 23524   0.607E-02    0.238E-01
RMM:   6    -0.666551574109E+03    0.40582E-04   -0.80862E-04 21959   0.372E-02    0.212E-01
RMM:   7    -0.666551511361E+03    0.62748E-04   -0.60834E-04 20499   0.351E-02    0.150E-01
RMM:   8    -0.666551525602E+03   -0.14241E-04   -0.29695E-04 18227   0.238E-02
  12 F= -.66655153E+03 E0= -.66613147E+03  d E =0.286318E-01  mag=    79.8566
       N       E                     dE             d eps       ncg     rms          rms(c)
DAV:   1    -0.666595254762E+03   -0.43743E-01   -0.24522E+00 26512   0.177E+00    0.509E-01
RMM:   2    -0.666602327927E+03   -0.70732E-02   -0.56430E-02 24320   0.333E-01    0.568E-01
RMM:   3    -0.666603225071E+03   -0.89714E-03   -0.92755E-03 23490   0.132E-01    0.329E-01
RMM:   4    -0.666603412167E+03   -0.18710E-03   -0.23120E-03 22470   0.763E-02    0.326E-01
RMM:   5    -0.666602943570E+03    0.46860E-03   -0.70823E-04 20982   0.384E-02    0.143E-01
RMM:   6    -0.666602920391E+03    0.23179E-04   -0.31555E-04 18274   0.238E-02    0.135E-01
RMM:   7    -0.666602887651E+03    0.32740E-04   -0.25592E-04 17493   0.241E-02    0.992E-02
RMM:   8    -0.666602885880E+03    0.17709E-05   -0.11040E-04 14899   0.150E-02
  13 F= -.66660289E+03 E0= -.66618273E+03  d E =-.227284E-01  mag=    79.8572
       N       E                     dE             d eps       ncg     rms          rms(c)
DAV:   1    -0.666620479649E+03   -0.17592E-01   -0.21649E+00 25664   0.167E+00    0.499E-01
RMM:   2    -0.666626729282E+03   -0.62496E-02   -0.60203E-02 24229   0.330E-01    0.691E-01
RMM:   3    -0.666626740401E+03   -0.11119E-04   -0.92553E-03 23181   0.128E-01    0.273E-01
RMM:   4    -0.666627078367E+03   -0.33797E-03   -0.21508E-03 22014   0.737E-02    0.307E-01
RMM:   5    -0.666626886471E+03    0.19190E-03   -0.77745E-04 20275   0.434E-02    0.139E-01
RMM:   6    -0.666626949952E+03   -0.63481E-04   -0.40176E-04 18762   0.252E-02    0.149E-01
RMM:   7    -0.666627000371E+03   -0.50418E-04   -0.26569E-04 17694   0.246E-02    0.120E-01
RMM:   8    -0.666627005746E+03   -0.53751E-05   -0.12087E-04 15027   0.155E-02
  14 F= -.66662701E+03 E0= -.66620718E+03  d E =-.241199E-01  mag=    79.8572
       N       E                     dE             d eps       ncg     rms          rms(c)
DAV:   1    -0.666636474525E+03   -0.94742E-02   -0.23994E-01 26912   0.556E-01    0.177E-01
RMM:   2    -0.666637223455E+03   -0.74893E-03   -0.67808E-03 22934   0.112E-01    0.265E-01
RMM:   3    -0.666637192671E+03    0.30784E-04   -0.10183E-03 20892   0.451E-02    0.105E-01
RMM:   4    -0.666637252389E+03   -0.59718E-04   -0.26100E-04 16789   0.256E-02    0.106E-01
RMM:   5    -0.666637241409E+03    0.10980E-04   -0.84308E-05 14124   0.153E-02    0.524E-02
RMM:   6    -0.666637267784E+03   -0.26375E-04   -0.39876E-05 13236   0.813E-03    0.475E-02
RMM:   7    -0.666637293468E+03   -0.25684E-04   -0.32676E-05 13128   0.893E-03    0.511E-02
RMM:   8    -0.666637305456E+03   -0.11988E-04   -0.16427E-05 12325   0.661E-03
  15 F= -.66663731E+03 E0= -.66621762E+03  d E =-.344196E-01  mag=    79.8573
       N       E                     dE             d eps       ncg     rms          rms(c)
DAV:   1    -0.666649335742E+03   -0.12042E-01   -0.43566E-01 26080   0.743E-01    0.171E-01
RMM:   2    -0.666650278207E+03   -0.94247E-03   -0.95329E-03 23123   0.135E-01    0.148E-01
RMM:   3    -0.666650645619E+03   -0.36741E-03   -0.15473E-03 21291   0.546E-02    0.166E-01
RMM:   4    -0.666650550260E+03    0.95359E-04   -0.32245E-04 17910   0.282E-02    0.836E-02
RMM:   5    -0.666650553467E+03   -0.32070E-05   -0.11112E-04 14591   0.151E-02    0.679E-02
RMM:   6    -0.666650545768E+03    0.76983E-05   -0.53674E-05 13345   0.118E-02    0.475E-02
RMM:   7    -0.666650559930E+03   -0.14162E-04   -0.37136E-05 12955   0.947E-03    0.405E-02
RMM:   8    -0.666650566264E+03   -0.63335E-05   -0.16079E-05 12274   0.676E-03
  16 F= -.66665057E+03 E0= -.66623112E+03  d E =-.132608E-01  mag=    79.8573
       N       E                     dE             d eps       ncg     rms          rms(c)
DAV:   1    -0.666650578562E+03   -0.18632E-04   -0.95614E-05 21392   0.154E-02    0.131E-02
RMM:   2    -0.666650596626E+03   -0.18064E-04   -0.15816E-05 12046   0.709E-03    0.321E-02
RMM:   3    -0.666650598052E+03   -0.14259E-05   -0.57711E-06 11102   0.446E-03    0.616E-03
RMM:   4    -0.666650605668E+03   -0.76159E-05   -0.40190E-07  6365   0.195E-03    0.408E-03
RMM:   5    -0.666650618756E+03   -0.13088E-04   -0.22040E-08  5261   0.175E-03    0.350E-03
RMM:   6    -0.666650633497E+03   -0.14741E-04   -0.34369E-08  5176   0.175E-03    0.327E-03
RMM:   7    -0.666650646901E+03   -0.13404E-04   -0.43771E-08  5176   0.178E-03    0.210E-03
RMM:   8    -0.666650658440E+03   -0.11539E-04   -0.81049E-08  5262   0.181E-03
  17 F= -.66665066E+03 E0= -.66623122E+03  d E =-.133530E-01  mag=    79.8572
       N       E                     dE             d eps       ncg     rms          rms(c)
DAV:   1    -0.666657101349E+03   -0.64544E-02   -0.13677E-01 26736   0.411E-01    0.113E-01
RMM:   2    -0.666657420239E+03   -0.31889E-03   -0.31775E-03 22318   0.741E-02    0.772E-02
RMM:   3    -0.666657505665E+03   -0.85426E-04   -0.43830E-04 18010   0.285E-02    0.565E-02
RMM:   4    -0.666657516565E+03   -0.10899E-04   -0.96528E-05 14561   0.159E-02    0.632E-02
RMM:   5    -0.666657513060E+03    0.35046E-05   -0.34956E-05 12952   0.102E-02    0.258E-02
RMM:   6    -0.666657522238E+03   -0.91777E-05   -0.20548E-05 12573   0.652E-03    0.308E-02
RMM:   7    -0.666657528075E+03   -0.58371E-05   -0.10051E-05 11838   0.546E-03    0.163E-02
RMM:   8    -0.666657532552E+03   -0.44769E-05   -0.38027E-06 10397   0.360E-03
  18 F= -.66665753E+03 E0= -.66623817E+03  d E =-.687411E-02  mag=    79.8571
       N       E                     dE             d eps       ncg     rms          rms(c)
DAV:   1    -0.666657438545E+03    0.89530E-04   -0.19171E-01 26272   0.487E-01    0.135E-01
RMM:   2    -0.666657883294E+03   -0.44475E-03   -0.44801E-03 23034   0.877E-02    0.964E-02
RMM:   3    -0.666658001758E+03   -0.11846E-03   -0.62604E-04 19177   0.341E-02    0.789E-02
RMM:   4    -0.666658020230E+03   -0.18472E-04   -0.14360E-04 15419   0.195E-02    0.942E-02
RMM:   5    -0.666657995010E+03    0.25220E-04   -0.51518E-05 13754   0.119E-02    0.370E-02
RMM:   6    -0.666658002142E+03   -0.71321E-05   -0.29366E-05 13256   0.757E-03    0.462E-02
RMM:   7    -0.666657998902E+03    0.32405E-05   -0.15429E-05 12542   0.702E-03    0.239E-02
RMM:   8    -0.666658001980E+03   -0.30785E-05   -0.66613E-06 11732   0.448E-03
  19 F= -.66665800E+03 E0= -.66623881E+03  d E =-.734354E-02  mag=    79.8569
       N       E                     dE             d eps       ncg     rms          rms(c)
DAV:   1    -0.666658975718E+03   -0.97682E-03   -0.41744E-02 27104   0.227E-01    0.621E-02
RMM:   2    -0.666659082917E+03   -0.10720E-03   -0.97964E-04 19703   0.410E-02    0.511E-02
RMM:   3    -0.666659118682E+03   -0.35765E-04   -0.13994E-04 15137   0.167E-02    0.479E-02
RMM:   4    -0.666659122531E+03   -0.38487E-05   -0.35436E-05 13180   0.103E-02    0.439E-02
RMM:   5    -0.666659122975E+03   -0.44378E-06   -0.97719E-06 12051   0.507E-03    0.191E-02
RMM:   6    -0.666659132378E+03   -0.94036E-05   -0.55239E-06 11621   0.401E-03    0.211E-02
RMM:   7    -0.666659141340E+03   -0.89617E-05   -0.34719E-06 11042   0.367E-03    0.116E-02
RMM:   8    -0.666659148261E+03   -0.69211E-05   -0.68315E-07  7375   0.230E-03
  20 F= -.66665915E+03 E0= -.66623990E+03  d E =-.848982E-02  mag=    79.8567
       N       E                     dE             d eps       ncg     rms          rms(c)
DAV:   1    -0.666662896568E+03   -0.37552E-02   -0.37625E-02 26944   0.203E-01    0.734E-02
RMM:   2    -0.666662992238E+03   -0.95670E-04   -0.11149E-03 19087   0.398E-02    0.965E-02
RMM:   3    -0.666663011968E+03   -0.19731E-04   -0.16219E-04 15348   0.151E-02    0.382E-02
RMM:   4    -0.666663029983E+03   -0.18015E-04   -0.35696E-05 13075   0.897E-03    0.544E-02
RMM:   5    -0.666663020624E+03    0.93593E-05   -0.13367E-05 12385   0.638E-03    0.307E-02
RMM:   6    -0.666663023238E+03   -0.26142E-05   -0.83689E-06 11858   0.441E-03    0.252E-02
RMM:   7    -0.666663027067E+03   -0.38291E-05   -0.56686E-06 11351   0.432E-03    0.155E-02
RMM:   8    -0.666663030309E+03   -0.32415E-05   -0.16216E-06  9100   0.275E-03
  21 F= -.66666303E+03 E0= -.66624386E+03  d E =-.388205E-02  mag=    79.8565
       N       E                     dE             d eps       ncg     rms          rms(c)
DAV:   1    -0.666664148845E+03   -0.11218E-02   -0.15019E-01 25744   0.405E-01    0.148E-01
RMM:   2    -0.666664544859E+03   -0.39601E-03   -0.44593E-03 22736   0.800E-02    0.190E-01
RMM:   3    -0.666664596549E+03   -0.51690E-04   -0.67684E-04 18451   0.299E-02    0.808E-02
RMM:   4    -0.666664650998E+03   -0.54449E-04   -0.13790E-04 15457   0.179E-02    0.109E-01
RMM:   5    -0.666664606681E+03    0.44317E-04   -0.65616E-05 13838   0.139E-02    0.672E-02
RMM:   6    -0.666664598086E+03    0.85952E-05   -0.38235E-05 13255   0.882E-03    0.500E-02
RMM:   7    -0.666664596905E+03    0.11814E-05   -0.23755E-05 12506   0.833E-03    0.315E-02
RMM:   8    -0.666664597155E+03   -0.25006E-06   -0.82298E-06 11648   0.494E-03
  22 F= -.66666460E+03 E0= -.66624561E+03  d E =-.544889E-02  mag=    79.8562
       N       E                     dE             d eps       ncg     rms          rms(c)
DAV:   1    -0.666665097092E+03   -0.50019E-03   -0.21595E-02 27216   0.154E-01    0.586E-02
RMM:   2    -0.666665157900E+03   -0.60808E-04   -0.64749E-04 17751   0.309E-02    0.756E-02
RMM:   3    -0.666665171132E+03   -0.13232E-04   -0.10116E-04 14539   0.133E-02    0.394E-02
RMM:   4    -0.666665178893E+03   -0.77602E-05   -0.29314E-05 12303   0.839E-03    0.314E-02
RMM:   5    -0.666665185493E+03   -0.66003E-05   -0.11765E-05 11549   0.574E-03    0.258E-02
RMM:   6    -0.666665193877E+03   -0.83842E-05   -0.57348E-06 10898   0.377E-03    0.140E-02
RMM:   7    -0.666665200987E+03   -0.71102E-05   -0.27072E-06 10399   0.327E-03    0.113E-02
RMM:   8    -0.666665205606E+03   -0.46184E-05   -0.52250E-07  6992   0.226E-03
  23 F= -.66666521E+03 E0= -.66624619E+03  d E =-.605734E-02  mag=    79.8560
       N       E                     dE             d eps       ncg     rms          rms(c)
DAV:   1    -0.666669679356E+03   -0.44784E-02   -0.20782E-02 27664   0.171E-01    0.848E-02
RMM:   2    -0.666669737579E+03   -0.58223E-04   -0.87695E-04 19438   0.340E-02    0.131E-01
RMM:   3    -0.666669692687E+03    0.44892E-04   -0.14991E-04 15270   0.166E-02    0.411E-02
RMM:   4    -0.666669703100E+03   -0.10413E-04   -0.38369E-05 13053   0.919E-03    0.349E-02
RMM:   5    -0.666669706548E+03   -0.34478E-05   -0.15000E-05 12073   0.604E-03    0.191E-02
RMM:   6    -0.666669710436E+03   -0.38883E-05   -0.54657E-06 10717   0.376E-03    0.149E-02
RMM:   7    -0.666669715479E+03   -0.50431E-05   -0.35264E-06 10668   0.347E-03    0.135E-02
RMM:   8    -0.666669720818E+03   -0.53388E-05   -0.14747E-06  8961   0.275E-03
  24 F= -.66666972E+03 E0= -.66625070E+03  d E =-.451521E-02  mag=    79.8558
       N       E                     dE             d eps       ncg     rms          rms(c)
DAV:   1    -0.666672247698E+03   -0.25322E-02   -0.52232E-02 27344   0.271E-01    0.133E-01
RMM:   2    -0.666672393950E+03   -0.14625E-03   -0.21863E-03 21731   0.538E-02    0.205E-01
RMM:   3    -0.666672279629E+03    0.11432E-03   -0.36774E-04 17359   0.254E-02    0.644E-02
RMM:   4    -0.666672299508E+03   -0.19879E-04   -0.93267E-05 14486   0.139E-02    0.563E-02
RMM:   5    -0.666672299649E+03   -0.14110E-06   -0.33821E-05 13008   0.897E-03    0.312E-02
RMM:   6    -0.666672302271E+03   -0.26221E-05   -0.12174E-05 12172   0.530E-03    0.232E-02
RMM:   7    -0.666672306275E+03   -0.40033E-05   -0.79199E-06 11947   0.481E-03    0.190E-02
RMM:   8    -0.666672311082E+03   -0.48070E-05   -0.41793E-06 11452   0.368E-03
  25 F= -.66667231E+03 E0= -.66625332E+03  d E =-.710548E-02  mag=    79.8556
       N       E                     dE             d eps       ncg     rms          rms(c)
DAV:   1    -0.666675353897E+03   -0.30476E-02   -0.20575E-02 26224   0.162E-01    0.524E-02
RMM:   2    -0.666675390989E+03   -0.37092E-04   -0.46665E-04 17706   0.310E-02    0.458E-02
RMM:   3    -0.666675414634E+03   -0.23645E-04   -0.77809E-05 14785   0.129E-02    0.290E-02
RMM:   4    -0.666675421454E+03   -0.68201E-05   -0.20593E-05 12743   0.792E-03    0.372E-02
RMM:   5    -0.666675422678E+03   -0.12233E-05   -0.72912E-06 11935   0.490E-03    0.149E-02
RMM:   6    -0.666675428685E+03   -0.60070E-05   -0.40740E-06 10419   0.329E-03    0.202E-02
RMM:   7    -0.666675431133E+03   -0.24484E-05   -0.26373E-06 10302   0.315E-03    0.947E-03
RMM:   8    -0.666675433699E+03   -0.25658E-05   -0.39491E-07  6847   0.225E-03
  26 F= -.66667543E+03 E0= -.66625645E+03  d E =-.312262E-02  mag=    79.8554
       N       E                     dE             d eps       ncg     rms          rms(c)
DAV:   1    -0.666677718753E+03   -0.22876E-02   -0.67140E-02 26368   0.293E-01    0.947E-02
RMM:   2    -0.666677831216E+03   -0.11246E-03   -0.15263E-03 21917   0.558E-02    0.839E-02
RMM:   3    -0.666677885450E+03   -0.54234E-04   -0.26172E-04 16544   0.220E-02    0.483E-02
RMM:   4    -0.666677902275E+03   -0.16824E-04   -0.69868E-05 14748   0.142E-02    0.692E-02
RMM:   5    -0.666677895320E+03    0.69547E-05   -0.26572E-05 13201   0.901E-03    0.260E-02
RMM:   6    -0.666677903398E+03   -0.80783E-05   -0.16077E-05 12858   0.556E-03    0.356E-02
RMM:   7    -0.666677900624E+03    0.27749E-05   -0.84599E-06 12287   0.502E-03    0.187E-02
RMM:   8    -0.666677901127E+03   -0.50338E-06   -0.26613E-06 10949   0.319E-03
  27 F= -.66667790E+03 E0= -.66625884E+03  d E =-.559005E-02  mag=    79.8551
       N       E                     dE             d eps       ncg     rms          rms(c)
DAV:   1    -0.666681171317E+03   -0.32707E-02   -0.18151E-02 26704   0.161E-01    0.778E-02
RMM:   2    -0.666681214909E+03   -0.43592E-04   -0.62455E-04 18912   0.321E-02    0.105E-01
RMM:   3    -0.666681202880E+03    0.12029E-04   -0.11773E-04 15300   0.157E-02    0.394E-02
RMM:   4    -0.666681216998E+03   -0.14118E-04   -0.33211E-05 13653   0.898E-03    0.408E-02
RMM:   5    -0.666681215314E+03    0.16843E-05   -0.13682E-05 12565   0.623E-03    0.235E-02
RMM:   6    -0.666681215443E+03   -0.12945E-06   -0.49781E-06 11560   0.384E-03    0.169E-02
RMM:   7    -0.666681214791E+03    0.65193E-06   -0.37286E-06 11178   0.359E-03    0.127E-02
RMM:   8    -0.666681212887E+03    0.19046E-05   -0.10274E-06  8536   0.256E-03
  28 F= -.66668121E+03 E0= -.66626217E+03  d E =-.331176E-02  mag=    79.8549
       N       E                     dE             d eps       ncg     rms          rms(c)
DAV:   1    -0.666685156815E+03   -0.39420E-02   -0.16382E-01 27136   0.484E-01    0.226E-01
RMM:   2    -0.666685550005E+03   -0.39319E-03   -0.55994E-03 23923   0.966E-02    0.317E-01
RMM:   3    -0.666685355525E+03    0.19448E-03   -0.10604E-03 20664   0.464E-02    0.116E-01
RMM:   4    -0.666685414183E+03   -0.58657E-04   -0.30069E-04 17232   0.259E-02    0.107E-01
RMM:   5    -0.666685410428E+03    0.37551E-05   -0.12905E-04 15302   0.182E-02    0.629E-02
RMM:   6    -0.666685413492E+03   -0.30645E-05   -0.43246E-05 14029   0.992E-03    0.480E-02
RMM:   7    -0.666685412154E+03    0.13388E-05   -0.30076E-05 13361   0.895E-03    0.415E-02
RMM:   8    -0.666685403103E+03    0.90511E-05   -0.12354E-05 12794   0.594E-03
  29 F= -.66668540E+03 E0= -.66626641E+03  d E =-.750198E-02  mag=    79.8546
       N       E                     dE             d eps       ncg     rms          rms(c)
DAV:   1    -0.666686771298E+03   -0.13591E-02   -0.66845E-03 26864   0.956E-02    0.350E-02
RMM:   2    -0.666686800348E+03   -0.29050E-04   -0.18941E-04 15812   0.184E-02    0.563E-02
RMM:   3    -0.666686799781E+03    0.56671E-06   -0.35479E-05 14177   0.978E-03    0.279E-02
RMM:   4    -0.666686800136E+03   -0.35530E-06   -0.90937E-06 12218   0.515E-03    0.177E-02
RMM:   5    -0.666686797328E+03    0.28079E-05   -0.22354E-06  9487   0.288E-03    0.107E-02
RMM:   6    -0.666686793398E+03    0.39302E-05   -0.84830E-07  7789   0.243E-03    0.708E-03
RMM:   7    -0.666686787199E+03    0.61993E-05   -0.61033E-07  7105   0.229E-03    0.538E-03
RMM:   8    -0.666686783866E+03    0.33327E-05   -0.12090E-07  5758   0.213E-03
  30 F= -.66668678E+03 E0= -.66626791E+03  d E =-.138076E-02  mag=    79.8543
       N       E                     dE             d eps       ncg     rms          rms(c)
DAV:   1    -0.666691600375E+03   -0.48132E-02   -0.60015E-02 26576   0.284E-01    0.105E-01
RMM:   2    -0.666691757901E+03   -0.15753E-03   -0.17099E-03 21935   0.546E-02    0.142E-01
RMM:   3    -0.666691763265E+03   -0.53635E-05   -0.30421E-04 16912   0.249E-02    0.618E-02
RMM:   4    -0.666691775677E+03   -0.12412E-04   -0.81587E-05 14535   0.145E-02    0.481E-02
RMM:   5    -0.666691769264E+03    0.64126E-05   -0.32939E-05 12964   0.943E-03    0.331E-02
RMM:   6    -0.666691759697E+03    0.95675E-05   -0.11430E-05 11963   0.511E-03    0.191E-02
RMM:   7    -0.666691752809E+03    0.68876E-05   -0.81879E-06 12104   0.490E-03    0.235E-02
RMM:   8    -0.666691743716E+03    0.90934E-05   -0.35926E-06 11249   0.369E-03
  31 F= -.66669174E+03 E0= -.66627297E+03  d E =-.634061E-02  mag=    79.8540
       N       E                     dE             d eps       ncg     rms          rms(c)
DAV:   1    -0.666695115409E+03   -0.33626E-02   -0.24027E-01 26496   0.568E-01    0.209E-01
RMM:   2    -0.666695705891E+03   -0.59048E-03   -0.68037E-03 23901   0.109E-01    0.284E-01
RMM:   3    -0.666695689171E+03    0.16720E-04   -0.12222E-03 20718   0.499E-02    0.126E-01
RMM:   4    -0.666695728286E+03   -0.39116E-04   -0.32101E-04 17435   0.274E-02    0.912E-02
RMM:   5    -0.666695722304E+03    0.59819E-05   -0.12396E-04 15255   0.178E-02    0.672E-02
RMM:   6    -0.666695704794E+03    0.17510E-04   -0.46292E-05 14135   0.970E-03    0.436E-02
RMM:   7    -0.666695697105E+03    0.76890E-05   -0.31948E-05 13631   0.880E-03    0.531E-02
RMM:   8    -0.666695667472E+03    0.29634E-04   -0.14327E-05 13133   0.663E-03
  32 F= -.66669567E+03 E0= -.66627706E+03  d E =-.102644E-01  mag=    79.8536
       N       E                     dE             d eps       ncg     rms          rms(c)
DAV:   1    -0.666696214527E+03   -0.51742E-03   -0.20899E-02 27328   0.168E-01    0.644E-02
RMM:   2    -0.666696189409E+03    0.25118E-04   -0.62860E-04 18601   0.337E-02    0.978E-02
RMM:   3    -0.666696203057E+03   -0.13648E-04   -0.11702E-04 15252   0.169E-02    0.433E-02
RMM:   4    -0.666696210139E+03   -0.70827E-05   -0.30863E-05 12987   0.890E-03    0.275E-02
RMM:   5    -0.666696214163E+03   -0.40233E-05   -0.10961E-05 11759   0.546E-03    0.182E-02
RMM:   6    -0.666696216356E+03   -0.21933E-05   -0.33918E-06  9660   0.311E-03    0.108E-02
RMM:   7    -0.666696219705E+03   -0.33490E-05   -0.22076E-06  9640   0.296E-03    0.121E-02
RMM:   8    -0.666696222904E+03   -0.31991E-05   -0.71937E-07  7715   0.249E-03
  33 F= -.66669622E+03 E0= -.66627762E+03  d E =-.108198E-01  mag=    79.8532
       N       E                     dE             d eps       ncg     rms          rms(c)
DAV:   1    -0.666699815950E+03   -0.35962E-02   -0.19532E-02 26512   0.161E-01    0.359E-02
RMM:   2    -0.666699837151E+03   -0.21202E-04   -0.43026E-04 17684   0.286E-02    0.361E-02
RMM:   3    -0.666699871243E+03   -0.34091E-04   -0.67593E-05 14209   0.125E-02    0.394E-02
RMM:   4    -0.666699869012E+03    0.22310E-05   -0.13917E-05 12560   0.662E-03    0.165E-02
RMM:   5    -0.666699872815E+03   -0.38035E-05   -0.40111E-06 10711   0.344E-03    0.129E-02
RMM:   6    -0.666699876963E+03   -0.41481E-05   -0.20020E-06  9159   0.277E-03    0.100E-02
RMM:   7    -0.666699880394E+03   -0.34310E-05   -0.11867E-06  8441   0.251E-03    0.764E-03
RMM:   8    -0.666699882446E+03   -0.20522E-05   -0.32532E-07  6257   0.219E-03
  34 F= -.66669988E+03 E0= -.66628130E+03  d E =-.365954E-02  mag=    79.8529
       N       E                     dE             d eps       ncg     rms          rms(c)
DAV:   1    -0.666702723016E+03   -0.28426E-02   -0.94167E-02 26528   0.354E-01    0.784E-02
RMM:   2    -0.666702860237E+03   -0.13722E-03   -0.20804E-03 21635   0.631E-02    0.706E-02
RMM:   3    -0.666702975135E+03   -0.11490E-03   -0.33425E-04 17321   0.260E-02    0.728E-02
RMM:   4    -0.666702967737E+03    0.73980E-05   -0.73229E-05 14197   0.144E-02    0.371E-02
RMM:   5    -0.666702974503E+03   -0.67661E-05   -0.23501E-05 12789   0.778E-03    0.334E-02
RMM:   6    -0.666702976675E+03   -0.21718E-05   -0.10826E-05 12052   0.518E-03    0.221E-02
RMM:   7    -0.666702980529E+03   -0.38538E-05   -0.74360E-06 11926   0.469E-03    0.172E-02
RMM:   8    -0.666702982675E+03   -0.21462E-05   -0.34852E-06 10584   0.345E-03
  35 F= -.66670298E+03 E0= -.66628449E+03  d E =-.675977E-02  mag=    79.8525
       N       E                     dE             d eps       ncg     rms          rms(c)
DAV:   1    -0.666703003467E+03   -0.22938E-04   -0.65527E-04 24736   0.300E-02    0.735E-03
RMM:   2    -0.666703005400E+03   -0.19330E-05   -0.15439E-05 12622   0.574E-03    0.100E-02
RMM:   3    -0.666703005502E+03   -0.10198E-06   -0.19120E-06  9398   0.298E-03    0.496E-03
RMM:   4    -0.666703005035E+03    0.46659E-06   -0.87138E-08  4988   0.186E-03    0.372E-03
RMM:   5    -0.666703005069E+03   -0.33993E-07   -0.74330E-09  4584   0.172E-03    0.296E-03
RMM:   6    -0.666703005514E+03   -0.44517E-06   -0.25289E-09  4630   0.169E-03    0.315E-03
RMM:   7    -0.666703006262E+03   -0.74832E-06   -0.42063E-09  4723   0.178E-03    0.198E-03
RMM:   8    -0.666703007018E+03   -0.75530E-06   -0.23539E-09  4671   0.177E-03
  36 F= -.66670301E+03 E0= -.66628451E+03  d E =-.678411E-02  mag=    79.8521
       N       E                     dE             d eps       ncg     rms          rms(c)
DAV:   1    -0.666703991265E+03   -0.98500E-03   -0.33399E-03 26080   0.676E-02    0.246E-02
RMM:   2    -0.666703981252E+03    0.10012E-04   -0.91722E-05 14445   0.124E-02    0.310E-02
RMM:   3    -0.666703985578E+03   -0.43260E-05   -0.15107E-05 12372   0.601E-03    0.117E-02
RMM:   4    -0.666703989328E+03   -0.37500E-05   -0.33559E-06 10100   0.321E-03    0.132E-02
RMM:   5    -0.666703991387E+03   -0.20582E-05   -0.87867E-07  7778   0.244E-03    0.782E-03
RMM:   6    -0.666703994270E+03   -0.28838E-05   -0.16291E-07  5551   0.200E-03    0.527E-03
RMM:   7    -0.666703997992E+03   -0.37220E-05   -0.88650E-08  5128   0.197E-03    0.376E-03
RMM:   8    -0.666704001892E+03   -0.38999E-05   -0.57515E-08  5078   0.192E-03
  37 F= -.66670400E+03 E0= -.66628553E+03  d E =-.994875E-03  mag=    79.8518
       N       E                     dE             d eps       ncg     rms          rms(c)
DAV:   1    -0.666705590020E+03   -0.15920E-02   -0.29875E-02 26576   0.202E-01    0.729E-02
RMM:   2    -0.666705591380E+03   -0.13597E-05   -0.80737E-04 19498   0.370E-02    0.930E-02
RMM:   3    -0.666705605232E+03   -0.13852E-04   -0.13421E-04 15014   0.162E-02    0.348E-02
RMM:   4    -0.666705621482E+03   -0.16250E-04   -0.33474E-05 13165   0.904E-03    0.396E-02
RMM:   5    -0.666705624118E+03   -0.26366E-05   -0.10325E-05 12331   0.560E-03    0.218E-02
RMM:   6    -0.666705631405E+03   -0.72862E-05   -0.42013E-06 11079   0.351E-03    0.163E-02
RMM:   7    -0.666705639749E+03   -0.83442E-05   -0.38439E-06 10940   0.348E-03    0.135E-02
RMM:   8    -0.666705648148E+03   -0.83991E-05   -0.14072E-06  8972   0.268E-03
  38 F= -.66670565E+03 E0= -.66628724E+03  d E =-.264113E-02  mag=    79.8514
       N       E                     dE             d eps       ncg     rms          rms(c)
DAV:   1    -0.666705759203E+03   -0.11945E-03   -0.35010E-03 26304   0.695E-02    0.259E-02
RMM:   2    -0.666705755834E+03    0.33691E-05   -0.97720E-05 14757   0.131E-02    0.321E-02
RMM:   3    -0.666705760192E+03   -0.43586E-05   -0.17404E-05 12510   0.667E-03    0.163E-02
RMM:   4    -0.666705762847E+03   -0.26547E-05   -0.47331E-06 10766   0.380E-03    0.108E-02
RMM:   5    -0.666705766548E+03   -0.37015E-05   -0.13242E-06  7944   0.259E-03    0.815E-03
RMM:   6    -0.666705770662E+03   -0.41137E-05   -0.18941E-07  5715   0.203E-03    0.538E-03
RMM:   7    -0.666705776115E+03   -0.54534E-05   -0.95086E-08  5374   0.199E-03    0.506E-03
RMM:   8    -0.666705780983E+03   -0.48671E-05   -0.90729E-08  5298   0.199E-03
  39 F= -.66670578E+03 E0= -.66628737E+03  d E =-.277396E-02  mag=    79.8511
       N       E                     dE             d eps       ncg     rms          rms(c)
DAV:   1    -0.666706878906E+03   -0.11028E-02   -0.31958E-03 26544   0.706E-02    0.398E-02
RMM:   2    -0.666706865409E+03    0.13497E-04   -0.13954E-04 15192   0.148E-02    0.608E-02
RMM:   3    -0.666706862907E+03    0.25020E-05   -0.31798E-05 13692   0.828E-03    0.231E-02
RMM:   4    -0.666706867013E+03   -0.41057E-05   -0.85136E-06 12078   0.465E-03    0.194E-02
RMM:   5    -0.666706870229E+03   -0.32159E-05   -0.28300E-06 10329   0.310E-03    0.123E-02
RMM:   6    -0.666706875521E+03   -0.52922E-05   -0.98403E-07  8230   0.250E-03    0.880E-03
RMM:   7    -0.666706881292E+03   -0.57714E-05   -0.54616E-07  7042   0.231E-03    0.554E-03
RMM:   8    -0.666706886724E+03   -0.54315E-05   -0.61873E-08  5300   0.204E-03
  40 F= -.66670689E+03 E0= -.66628848E+03  d E =-.110574E-02  mag=    79.8508
       N       E                     dE             d eps       ncg     rms          rms(c)
DAV:   1    -0.666708007905E+03   -0.11266E-02   -0.28607E-02 27616   0.211E-01    0.122E-01
RMM:   2    -0.666707975529E+03    0.32376E-04   -0.12381E-03 21934   0.438E-02    0.182E-01
RMM:   3    -0.666707935110E+03    0.40419E-04   -0.27004E-04 16349   0.217E-02    0.652E-02
RMM:   4    -0.666707964338E+03   -0.29228E-04   -0.81725E-05 14420   0.135E-02    0.621E-02
RMM:   5    -0.666707968896E+03   -0.45579E-05   -0.28441E-05 13126   0.842E-03    0.376E-02
RMM:   6    -0.666707981363E+03   -0.12467E-04   -0.13473E-05 12448   0.606E-03    0.283E-02
RMM:   7    -0.666707992117E+03   -0.10754E-04   -0.91723E-06 12161   0.537E-03    0.183E-02
RMM:   8    -0.666708003983E+03   -0.11866E-04   -0.29431E-06 10919   0.343E-03
  41 F= -.66670800E+03 E0= -.66628958E+03  d E =-.222300E-02  mag=    79.8505
       N       E                     dE             d eps       ncg     rms          rms(c)
DAV:   1    -0.666709113430E+03   -0.11213E-02   -0.13176E-02 27536   0.143E-01    0.483E-02
RMM:   2    -0.666709123304E+03   -0.98743E-05   -0.34151E-04 17451   0.272E-02    0.592E-02
RMM:   3    -0.666709131347E+03   -0.80434E-05   -0.61768E-05 14523   0.122E-02    0.286E-02
RMM:   4    -0.666709132994E+03   -0.16461E-05   -0.16774E-05 13172   0.722E-03    0.344E-02
RMM:   5    -0.666709127454E+03    0.55400E-05   -0.61371E-06 12046   0.458E-03    0.212E-02
RMM:   6    -0.666709126558E+03    0.89593E-06   -0.29955E-06 10970   0.319E-03    0.167E-02
RMM:   7    -0.666709126079E+03    0.47917E-06   -0.21540E-06 10471   0.298E-03    0.866E-03
RMM:   8    -0.666709126621E+03   -0.54203E-06   -0.21503E-07  6178   0.215E-03
  42 F= -.66670913E+03 E0= -.66629064E+03  d E =-.112264E-02  mag=    79.8502
       N       E                     dE             d eps       ncg     rms          rms(c)
DAV:   1    -0.666709838005E+03   -0.71193E-03   -0.21823E-02 27520   0.183E-01    0.613E-02
RMM:   2    -0.666709844592E+03   -0.65872E-05   -0.56816E-04 19457   0.352E-02    0.769E-02
RMM:   3    -0.666709858209E+03   -0.13616E-04   -0.10644E-04 14875   0.151E-02    0.419E-02
RMM:   4    -0.666709858427E+03   -0.21840E-06   -0.28203E-05 13776   0.922E-03    0.424E-02
RMM:   5    -0.666709846491E+03    0.11937E-04   -0.10072E-05 12447   0.557E-03    0.256E-02
RMM:   6    -0.666709842087E+03    0.44033E-05   -0.58851E-06 11887   0.419E-03    0.204E-02
RMM:   7    -0.666709837800E+03    0.42873E-05   -0.43138E-06 11637   0.395E-03    0.118E-02
RMM:   8    -0.666709835314E+03    0.24862E-05   -0.10395E-06  8532   0.257E-03
  43 F= -.66670984E+03 E0= -.66629129E+03  d E =-.183133E-02  mag=    79.8498
       N       E                     dE             d eps       ncg     rms          rms(c)
DAV:   1    -0.666708334491E+03    0.15033E-02   -0.87590E-02 26256   0.367E-01    0.122E-01
RMM:   2    -0.666708417264E+03   -0.82774E-04   -0.22712E-03 23559   0.708E-02    0.154E-01
RMM:   3    -0.666708465053E+03   -0.47789E-04   -0.43460E-04 18490   0.295E-02    0.839E-02
RMM:   4    -0.666708468638E+03   -0.35847E-05   -0.11730E-04 14987   0.181E-02    0.777E-02
RMM:   5    -0.666708440109E+03    0.28529E-04   -0.44118E-05 14031   0.115E-02    0.528E-02
RMM:   6    -0.666708429446E+03    0.10663E-04   -0.23207E-05 13303   0.776E-03    0.414E-02
RMM:   7    -0.666708418808E+03    0.10638E-04   -0.17200E-05 12746   0.717E-03    0.251E-02
RMM:   8    -0.666708411224E+03    0.75842E-05   -0.58795E-06 11855   0.443E-03
  44 F= -.66670841E+03 E0= -.66628976E+03  d E =-.407241E-03  mag=    79.8492
       N       E                     dE             d eps       ncg     rms          rms(c)
DAV:   1    -0.666709650982E+03   -0.12322E-02   -0.64147E-02 27088   0.314E-01    0.106E-01
RMM:   2    -0.666709884301E+03   -0.23332E-03   -0.16614E-03 23008   0.610E-02    0.132E-01
RMM:   3    -0.666709895351E+03   -0.11050E-04   -0.32740E-04 17210   0.258E-02    0.750E-02
RMM:   4    -0.666709905969E+03   -0.10618E-04   -0.85350E-05 14649   0.161E-02    0.582E-02
RMM:   5    -0.666709910444E+03   -0.44745E-05   -0.34903E-05 13549   0.101E-02    0.456E-02
RMM:   6    -0.666709916976E+03   -0.65318E-05   -0.17408E-05 12950   0.661E-03    0.364E-02
RMM:   7    -0.666709925090E+03   -0.81146E-05   -0.11896E-05 12533   0.617E-03    0.232E-02
RMM:   8    -0.666709931896E+03   -0.68052E-05   -0.35307E-06 11216   0.358E-03
  45 F= -.66670993E+03 E0= -.66629134E+03  d E =-.192791E-02  mag=    79.8488
       N       E                     dE             d eps       ncg     rms          rms(c)
DAV:   1    -0.666709892113E+03    0.32978E-04   -0.16064E-02 28224   0.157E-01    0.531E-02
RMM:   2    -0.666709900865E+03   -0.87526E-05   -0.41729E-04 18148   0.306E-02    0.651E-02
RMM:   3    -0.666709911228E+03   -0.10363E-04   -0.81444E-05 14552   0.135E-02    0.346E-02
RMM:   4    -0.666709910949E+03    0.27940E-06   -0.21668E-05 13084   0.814E-03    0.308E-02
RMM:   5    -0.666709907804E+03    0.31451E-05   -0.93826E-06 11873   0.547E-03    0.222E-02
RMM:   6    -0.666709907817E+03   -0.13039E-07   -0.42267E-06 11228   0.346E-03    0.161E-02
RMM:   7    -0.666709908838E+03   -0.10217E-05   -0.26921E-06 10809   0.338E-03    0.118E-02
RMM:   8    -0.666709909438E+03   -0.59977E-06   -0.19565E-07  5975   0.213E-03
  46 F= -.66670991E+03 E0= -.66629131E+03  d E =-.190546E-02  mag=    79.8484
       N       E                     dE             d eps       ncg     rms          rms(c)
DAV:   1    -0.666709990688E+03   -0.81849E-04   -0.51466E-03 27232   0.890E-02    0.298E-02
RMM:   2    -0.666710023317E+03   -0.32629E-04   -0.13504E-04 15133   0.172E-02    0.374E-02
RMM:   3    -0.666710025230E+03   -0.19134E-05   -0.24498E-05 13569   0.805E-03    0.192E-02
RMM:   4    -0.666710029957E+03   -0.47269E-05   -0.65530E-06 11899   0.464E-03    0.182E-02
RMM:   5    -0.666710035181E+03   -0.52238E-05   -0.29310E-06 10440   0.346E-03    0.128E-02
RMM:   6    -0.666710041532E+03   -0.63507E-05   -0.78895E-07  7353   0.235E-03    0.882E-03
RMM:   7    -0.666710046683E+03   -0.51516E-05   -0.46882E-07  6752   0.220E-03    0.727E-03
RMM:   8    -0.666710050446E+03   -0.37625E-05   -0.44574E-08  5127   0.189E-03
  47 F= -.66671005E+03 E0= -.66629146E+03  d E =-.204646E-02  mag=    79.8480
       N       E                     dE             d eps       ncg     rms          rms(c)
DAV:   1    -0.666710462259E+03   -0.41558E-03   -0.59758E-04 26288   0.295E-02    0.157E-02
RMM:   2    -0.666710456979E+03    0.52792E-05   -0.22615E-05 13957   0.623E-03    0.234E-02
RMM:   3    -0.666710458892E+03   -0.19125E-05   -0.43517E-06 10536   0.330E-03    0.107E-02
RMM:   4    -0.666710459948E+03   -0.10561E-05   -0.63254E-07  6294   0.218E-03    0.792E-03
RMM:   5    -0.666710462560E+03   -0.26119E-05   -0.13522E-07  4918   0.192E-03    0.550E-03
RMM:   6    -0.666710466505E+03   -0.39446E-05   -0.14755E-07  5232   0.196E-03    0.409E-03
RMM:   7    -0.666710470272E+03   -0.37672E-05   -0.62285E-08  4855   0.195E-03    0.258E-03
RMM:   8    -0.666710473150E+03   -0.28787E-05   -0.27244E-08  4594   0.193E-03
  48 F= -.66671047E+03 E0= -.66629188E+03  d E =-.422704E-03  mag=    79.8476
       N       E                     dE             d eps       ncg     rms          rms(c)
DAV:   1    -0.666711377776E+03   -0.90750E-03   -0.52724E-03 26896   0.875E-02    0.465E-02
RMM:   2    -0.666711354076E+03    0.23700E-04   -0.20253E-04 15758   0.182E-02    0.709E-02
RMM:   3    -0.666711353349E+03    0.72643E-06   -0.43714E-05 14329   0.963E-03    0.285E-02
RMM:   4    -0.666711355915E+03   -0.25653E-05   -0.11302E-05 12473   0.552E-03    0.254E-02
RMM:   5    -0.666711356453E+03   -0.53784E-06   -0.44530E-06 11057   0.375E-03    0.170E-02
RMM:   6    -0.666711358546E+03   -0.20936E-05   -0.20495E-06  9838   0.285E-03    0.124E-02
RMM:   7    -0.666711361483E+03   -0.29369E-05   -0.14518E-06  9040   0.269E-03    0.790E-03
RMM:   8    -0.666711364306E+03   -0.28224E-05   -0.84372E-08  5325   0.204E-03
  49 F= -.66671136E+03 E0= -.66629275E+03  d E =-.131386E-02  mag=    79.8472
       N       E                     dE             d eps       ncg     rms          rms(c)
DAV:   1    -0.666709555122E+03    0.18064E-02   -0.20895E-02 26624   0.174E-01    0.949E-02
RMM:   2    -0.666709508315E+03    0.46806E-04   -0.78942E-04 20086   0.361E-02    0.140E-01
RMM:   3    -0.666709501198E+03    0.71176E-05   -0.16393E-04 15283   0.174E-02    0.584E-02
RMM:   4    -0.666709510624E+03   -0.94264E-05   -0.47045E-05 14192   0.110E-02    0.538E-02
RMM:   5    -0.666709506531E+03    0.40932E-05   -0.18575E-05 12963   0.702E-03    0.339E-02
RMM:   6    -0.666709508617E+03   -0.20862E-05   -0.10191E-05 12326   0.535E-03    0.261E-02
RMM:   7    -0.666709510035E+03   -0.14184E-05   -0.73015E-06 11992   0.491E-03    0.161E-02
RMM:   8    -0.666709512432E+03   -0.23968E-05   -0.19520E-06 10115   0.303E-03
  50 F= -.66670951E+03 E0= -.66629084E+03  d E =0.538014E-03  mag=    79.8467
       N       E                     dE             d eps       ncg     rms          rms(c)
DAV:   1    -0.666711368514E+03   -0.18585E-02   -0.14336E-02 26896   0.144E-01    0.796E-02
RMM:   2    -0.666711477220E+03   -0.10871E-03   -0.54648E-04 18525   0.302E-02    0.116E-01
RMM:   3    -0.666711449450E+03    0.27770E-04   -0.11767E-04 14949   0.154E-02    0.494E-02
RMM:   4    -0.666711459247E+03   -0.97970E-05   -0.33788E-05 13759   0.945E-03    0.412E-02
RMM:   5    -0.666711463548E+03   -0.43013E-05   -0.14889E-05 12426   0.634E-03    0.296E-02
RMM:   6    -0.666711468381E+03   -0.48326E-05   -0.70963E-06 11934   0.450E-03    0.227E-02
RMM:   7    -0.666711473164E+03   -0.47828E-05   -0.48586E-06 11682   0.415E-03    0.141E-02
RMM:   8    -0.666711476979E+03   -0.38156E-05   -0.93346E-07  8408   0.252E-03
  51 F= -.66671148E+03 E0= -.66629282E+03  d E =-.142653E-02  mag=    79.8463
       N       E                     dE             d eps       ncg     rms          rms(c)
DAV:   1    -0.666712261901E+03   -0.78874E-03   -0.11473E-03 25648   0.417E-02    0.139E-02
RMM:   2    -0.666712261024E+03    0.87684E-06   -0.39040E-05 13929   0.887E-03    0.243E-02
RMM:   3    -0.666712263539E+03   -0.25150E-05   -0.68479E-06 11701   0.482E-03    0.979E-03
RMM:   4    -0.666712266678E+03   -0.31386E-05   -0.12234E-06  7511   0.245E-03    0.774E-03
RMM:   5    -0.666712271015E+03   -0.43376E-05   -0.14760E-07  5159   0.195E-03    0.438E-03
RMM:   6    -0.666712275369E+03   -0.43535E-05   -0.64184E-08  4965   0.189E-03    0.379E-03
RMM:   7    -0.666712281584E+03   -0.62152E-05   -0.38778E-08  4919   0.192E-03    0.278E-03
RMM:   8    -0.666712288162E+03   -0.65779E-05   -0.38227E-08  4975   0.193E-03
  52 F= -.66671229E+03 E0= -.66629366E+03  d E =-.811182E-03  mag=    79.8459
       N       E                     dE             d eps       ncg     rms          rms(c)
DAV:   1    -0.666713903555E+03   -0.16220E-02   -0.10290E-02 27056   0.124E-01    0.398E-02
RMM:   2    -0.666713906804E+03   -0.32494E-05   -0.30880E-04 16829   0.248E-02    0.534E-02
RMM:   3    -0.666713915721E+03   -0.89165E-05   -0.51928E-05 14027   0.113E-02    0.215E-02
RMM:   4    -0.666713923390E+03   -0.76690E-05   -0.12360E-05 12348   0.602E-03    0.203E-02
RMM:   5    -0.666713929034E+03   -0.56447E-05   -0.42560E-06 11314   0.389E-03    0.125E-02
RMM:   6    -0.666713935961E+03   -0.69272E-05   -0.89356E-07  7540   0.235E-03    0.847E-03
RMM:   7    -0.666713945992E+03   -0.10030E-04   -0.88635E-07  7613   0.233E-03    0.836E-03
RMM:   8    -0.666713955964E+03   -0.99726E-05   -0.17787E-07  5746   0.208E-03
  53 F= -.66671396E+03 E0= -.66629535E+03  d E =-.247899E-02  mag=    79.8456
       N       E                     dE             d eps       ncg     rms          rms(c)
DAV:   1    -0.666713827812E+03    0.11818E-03   -0.41208E-02 26928   0.248E-01    0.789E-02
RMM:   2    -0.666713876948E+03   -0.49137E-04   -0.12175E-03 21346   0.492E-02    0.104E-01
RMM:   3    -0.666713896063E+03   -0.19115E-04   -0.20223E-04 15919   0.207E-02    0.424E-02
RMM:   4    -0.666713914822E+03   -0.18759E-04   -0.48738E-05 13881   0.118E-02    0.432E-02
RMM:   5    -0.666713919825E+03   -0.50031E-05   -0.15857E-05 12653   0.696E-03    0.249E-02
RMM:   6    -0.666713930161E+03   -0.10335E-04   -0.60417E-06 11806   0.408E-03    0.183E-02
RMM:   7    -0.666713944671E+03   -0.14510E-04   -0.51891E-06 11733   0.405E-03    0.156E-02
RMM:   8    -0.666713959538E+03   -0.14867E-04   -0.21995E-06 10336   0.300E-03
  54 F= -.66671396E+03 E0= -.66629540E+03  d E =-.248256E-02  mag=    79.8454
       N       E                     dE             d eps       ncg     rms          rms(c)
DAV:   1    -0.666714507738E+03   -0.56307E-03   -0.10528E-02 27504   0.125E-01    0.405E-02
RMM:   2    -0.666714551771E+03   -0.44032E-04   -0.31635E-04 16872   0.248E-02    0.573E-02
RMM:   3    -0.666714553481E+03   -0.17104E-05   -0.51416E-05 14022   0.114E-02    0.221E-02
RMM:   4    -0.666714560581E+03   -0.70999E-05   -0.11903E-05 12452   0.584E-03    0.229E-02
RMM:   5    -0.666714563051E+03   -0.24699E-05   -0.38502E-06 11363   0.367E-03    0.117E-02
RMM:   6    -0.666714566315E+03   -0.32643E-05   -0.81946E-07  7577   0.234E-03    0.940E-03
RMM:   7    -0.666714570041E+03   -0.37258E-05   -0.93773E-07  7745   0.236E-03    0.747E-03
RMM:   8    -0.666714573123E+03   -0.30827E-05   -0.16451E-07  5658   0.211E-03
  55 F= -.66671457E+03 E0= -.66629595E+03  d E =-.309614E-02  mag=    79.8452
       N       E                     dE             d eps       ncg     rms          rms(c)
DAV:   1    -0.666714895901E+03   -0.32586E-03   -0.96710E-04 25280   0.358E-02    0.101E-02
RMM:   2    -0.666714901044E+03   -0.51437E-05   -0.27291E-05 13515   0.722E-03    0.127E-02
RMM:   3    -0.666714903164E+03   -0.21192E-05   -0.32885E-06  9917   0.330E-03    0.661E-03
RMM:   4    -0.666714905587E+03   -0.24228E-05   -0.36077E-07  5967   0.209E-03    0.683E-03
RMM:   5    -0.666714908054E+03   -0.24675E-05   -0.62821E-08  4939   0.186E-03    0.582E-03
RMM:   6    -0.666714910850E+03   -0.27963E-05   -0.71947E-08  5130   0.178E-03    0.370E-03
RMM:   7    -0.666714914418E+03   -0.35679E-05   -0.15451E-08  4721   0.177E-03    0.171E-03
RMM:   8    -0.666714916847E+03   -0.24289E-05   -0.27756E-08  4660   0.181E-03
  56 F= -.66671492E+03 E0= -.66629634E+03  d E =-.343724E-03  mag=    79.8449
       N       E                     dE             d eps       ncg     rms          rms(c)
DAV:   1    -0.666715468472E+03   -0.55405E-03   -0.85636E-03 26896   0.107E-01    0.303E-02
RMM:   2    -0.666715490783E+03   -0.22311E-04   -0.23920E-04 15776   0.211E-02    0.323E-02
RMM:   3    -0.666715502020E+03   -0.11238E-04   -0.34922E-05 13685   0.899E-03    0.231E-02
RMM:   4    -0.666715504809E+03   -0.27888E-05   -0.96021E-06 11865   0.536E-03    0.198E-02
RMM:   5    -0.666715507210E+03   -0.24005E-05   -0.40553E-06 10462   0.378E-03    0.149E-02
RMM:   6    -0.666715511067E+03   -0.38575E-05   -0.12161E-06  8044   0.245E-03    0.897E-03
RMM:   7    -0.666715515193E+03   -0.41258E-05   -0.69781E-07  7357   0.227E-03    0.846E-03
RMM:   8    -0.666715517981E+03   -0.27884E-05   -0.50698E-08  5153   0.188E-03
  57 F= -.66671552E+03 E0= -.66629700E+03  d E =-.944858E-03  mag=    79.8447
       N       E                     dE             d eps       ncg     rms          rms(c)
DAV:   1    -0.666715580290E+03   -0.65097E-04   -0.18863E-03 26368   0.501E-02    0.150E-02
RMM:   2    -0.666715588531E+03   -0.82408E-05   -0.55581E-05 14195   0.103E-02    0.175E-02
RMM:   3    -0.666715592690E+03   -0.41593E-05   -0.86288E-06 11930   0.496E-03    0.150E-02
RMM:   4    -0.666715594301E+03   -0.16107E-05   -0.18155E-06  8730   0.279E-03    0.643E-03
RMM:   5    -0.666715598199E+03   -0.38981E-05   -0.32088E-07  5898   0.213E-03    0.720E-03
RMM:   6    -0.666715601735E+03   -0.35358E-05   -0.59225E-08  5195   0.196E-03    0.552E-03
RMM:   7    -0.666715605171E+03   -0.34361E-05   -0.23293E-08  4965   0.192E-03    0.330E-03
RMM:   8    -0.666715607838E+03   -0.26673E-05   -0.38028E-08  5019   0.196E-03
  58 F= -.66671561E+03 E0= -.66629712E+03  d E =-.103471E-02  mag=    79.8446
       N       E                     dE             d eps       ncg     rms          rms(c)
DAV:   1    -0.666715833046E+03   -0.22788E-03   -0.61191E-04 26288   0.312E-02    0.101E-02
RMM:   2    -0.666715838583E+03   -0.55362E-05   -0.17555E-05 14124   0.642E-03    0.118E-02
RMM:   3    -0.666715840268E+03   -0.16852E-05   -0.23485E-06 10483   0.309E-03    0.711E-03
RMM:   4    -0.666715841718E+03   -0.14501E-05   -0.19472E-07  5500   0.204E-03    0.520E-03
RMM:   5    -0.666715843531E+03   -0.18133E-05   -0.98558E-09  4526   0.186E-03    0.432E-03
RMM:   6    -0.666715845664E+03   -0.21323E-05   -0.16247E-08  4755   0.179E-03    0.239E-03
RMM:   7    -0.666715848745E+03   -0.30813E-05   -0.68958E-09  4753   0.185E-03    0.139E-03
RMM:   8    -0.666715850509E+03   -0.17644E-05   -0.32660E-09  4637   0.185E-03
  59 F= -.66671585E+03 E0= -.66629737E+03  d E =-.242671E-03  mag=    79.8444
       N       E                     dE             d eps       ncg     rms          rms(c)
DAV:   1    -0.666716217841E+03   -0.36910E-03   -0.54410E-03 27008   0.929E-02    0.298E-02
RMM:   2    -0.666716234622E+03   -0.16782E-04   -0.14944E-04 15319   0.185E-02    0.325E-02
RMM:   3    -0.666716239936E+03   -0.53141E-05   -0.25399E-05 14149   0.871E-03    0.208E-02
RMM:   4    -0.666716241017E+03   -0.10808E-05   -0.65970E-06 12381   0.480E-03    0.177E-02
RMM:   5    -0.666716239935E+03    0.10822E-05   -0.18554E-06  9935   0.289E-03    0.105E-02
RMM:   6    -0.666716239145E+03    0.78976E-06   -0.51493E-07  7253   0.231E-03    0.740E-03
RMM:   7    -0.666716237759E+03    0.13858E-05   -0.25297E-07  6327   0.215E-03    0.499E-03
RMM:   8    -0.666716237086E+03    0.67288E-06   -0.27508E-08  5305   0.199E-03
  60 F= -.66671624E+03 E0= -.66629775E+03  d E =-.629248E-03  mag=    79.8443
       N       E                     dE             d eps       ncg     rms          rms(c)
DAV:   1    -0.666716275181E+03   -0.37421E-04   -0.10032E-03 26160   0.400E-02    0.132E-02
RMM:   2    -0.666716280095E+03   -0.49141E-05   -0.29986E-05 14406   0.829E-03    0.154E-02
RMM:   3    -0.666716280586E+03   -0.49127E-06   -0.45515E-06 12073   0.390E-03    0.964E-03
RMM:   4    -0.666716280430E+03    0.15600E-06   -0.62515E-07  7276   0.236E-03    0.686E-03
RMM:   5    -0.666716279965E+03    0.46520E-06   -0.25310E-08  4906   0.196E-03    0.484E-03
RMM:   6    -0.666716279327E+03    0.63796E-06   -0.39067E-08  5145   0.191E-03    0.326E-03
RMM:   7    -0.666716278594E+03    0.73342E-06   -0.12424E-08  4949   0.194E-03    0.186E-03
RMM:   8    -0.666716278450E+03    0.14342E-06   -0.62963E-09  4879   0.195E-03
  61 F= -.66671628E+03 E0= -.66629780E+03  d E =-.670612E-03  mag=    79.8441
       N       E                     dE             d eps       ncg     rms          rms(c)
DAV:   1    -0.666716484990E+03   -0.20640E-03   -0.37325E-04 25648   0.237E-02    0.950E-03
RMM:   2    -0.666716487397E+03   -0.24070E-05   -0.10737E-05 13806   0.497E-03    0.100E-02
RMM:   3    -0.666716487278E+03    0.11921E-06   -0.96600E-07  7885   0.249E-03    0.585E-03
RMM:   4    -0.666716487044E+03    0.23376E-06   -0.96392E-08  5123   0.194E-03    0.624E-03
RMM:   5    -0.666716486527E+03    0.51688E-06   -0.84147E-09  4663   0.186E-03    0.333E-03
RMM:   6    -0.666716486426E+03    0.10151E-06   -0.20461E-08  4879   0.188E-03    0.281E-03
RMM:   7    -0.666716486617E+03   -0.19185E-06   -0.92535E-09  4751   0.190E-03    0.134E-03
RMM:   8    -0.666716487019E+03   -0.40187E-06   -0.90025E-10  4640   0.188E-03
  62 F= -.66671649E+03 E0= -.66629799E+03  d E =-.208569E-03  mag=    79.8439
       N       E                     dE             d eps       ncg     rms          rms(c)
DAV:   1    -0.666717044444E+03   -0.55783E-03   -0.33332E-03 26960   0.705E-02    0.285E-02
RMM:   2    -0.666717055527E+03   -0.11083E-04   -0.87123E-05 14985   0.134E-02    0.277E-02
RMM:   3    -0.666717057893E+03   -0.23656E-05   -0.13876E-05 14120   0.649E-03    0.204E-02
RMM:   4    -0.666717056398E+03    0.14943E-05   -0.41453E-06 12113   0.391E-03    0.184E-02
RMM:   5    -0.666717053330E+03    0.30687E-05   -0.91500E-07  8158   0.244E-03    0.920E-03
RMM:   6    -0.666717051555E+03    0.17746E-05   -0.66743E-07  7969   0.240E-03    0.830E-03
RMM:   7    -0.666717049606E+03    0.19493E-05   -0.12206E-07  5951   0.209E-03    0.395E-03
RMM:   8    -0.666717049619E+03   -0.13039E-07   -0.33008E-08  5067   0.196E-03
  63 F= -.66671705E+03 E0= -.66629854E+03  d E =-.771169E-03  mag=    79.8437
       N       E                     dE             d eps       ncg     rms          rms(c)
DAV:   1    -0.666717878471E+03   -0.82887E-03   -0.13386E-02 25936   0.141E-01    0.570E-02
RMM:   2    -0.666717917078E+03   -0.38607E-04   -0.34631E-04 17010   0.271E-02    0.561E-02
RMM:   3    -0.666717927759E+03   -0.10681E-04   -0.57638E-05 14658   0.130E-02    0.413E-02
RMM:   4    -0.666717924511E+03    0.32485E-05   -0.18553E-05 13986   0.801E-03    0.375E-02
RMM:   5    -0.666717915297E+03    0.92136E-05   -0.62251E-06 12298   0.445E-03    0.185E-02
RMM:   6    -0.666717911413E+03    0.38836E-05   -0.43871E-06 11888   0.389E-03    0.185E-02
RMM:   7    -0.666717906298E+03    0.51153E-05   -0.29601E-06 11708   0.344E-03    0.871E-03
RMM:   8    -0.666717906180E+03    0.11781E-06   -0.23851E-07  6364   0.214E-03
  64 F= -.66671791E+03 E0= -.66629936E+03  d E =-.162773E-02  mag=    79.8435
       N       E                     dE             d eps       ncg     rms          rms(c)
DAV:   1    -0.666718160074E+03   -0.25378E-03   -0.54010E-02 25200   0.283E-01    0.114E-01
RMM:   2    -0.666718306057E+03   -0.14598E-03   -0.13714E-03 23548   0.540E-02    0.108E-01
RMM:   3    -0.666718349044E+03   -0.42987E-04   -0.22544E-04 16392   0.235E-02    0.778E-02
RMM:   4    -0.666718348749E+03    0.29476E-06   -0.80903E-05 14781   0.168E-02    0.776E-02
RMM:   5    -0.666718319729E+03    0.29020E-04   -0.26071E-05 14087   0.882E-03    0.340E-02
RMM:   6    -0.666718313859E+03    0.58697E-05   -0.17833E-05 13654   0.701E-03    0.383E-02
RMM:   7    -0.666718301785E+03    0.12074E-04   -0.12457E-05 12650   0.651E-03    0.189E-02
RMM:   8    -0.666718302109E+03   -0.32410E-06   -0.35393E-06 11734   0.363E-03
  65 F= -.66671830E+03 E0= -.66629968E+03  d E =-.202366E-02  mag=    79.8433
       N       E                     dE             d eps       ncg     rms          rms(c)
DAV:   1    -0.666718454677E+03   -0.15289E-03   -0.23044E-04 23216   0.180E-02    0.123E-02
RMM:   2    -0.666718462161E+03   -0.74841E-05   -0.14651E-05 13815   0.674E-03    0.234E-02
RMM:   3    -0.666718460916E+03    0.12456E-05   -0.35935E-06 11265   0.370E-03    0.878E-03
RMM:   4    -0.666718461361E+03   -0.44564E-06   -0.29052E-07  6190   0.209E-03    0.463E-03
RMM:   5    -0.666718461603E+03   -0.24168E-06   -0.10779E-07  5285   0.199E-03    0.458E-03
RMM:   6    -0.666718461759E+03   -0.15600E-06   -0.28909E-08  5008   0.185E-03    0.267E-03
RMM:   7    -0.666718461759E+03   -0.46566E-09   -0.78858E-08  5390   0.194E-03    0.249E-03
RMM:   8    -0.666718461297E+03    0.46194E-06   -0.64724E-08  5266   0.194E-03
  66 F= -.66671846E+03 E0= -.66629983E+03  d E =-.159189E-03  mag=    79.8431
       N       E                     dE             d eps       ncg     rms          rms(c)
DAV:   1    -0.666718865077E+03   -0.40332E-03   -0.21404E-03 26912   0.513E-02    0.250E-02
RMM:   2    -0.666718878605E+03   -0.13527E-04   -0.63158E-05 14851   0.106E-02    0.253E-02
RMM:   3    -0.666718877930E+03    0.67474E-06   -0.10578E-05 13569   0.559E-03    0.202E-02
RMM:   4    -0.666718874688E+03    0.32424E-05   -0.31309E-06 11549   0.357E-03    0.150E-02
RMM:   5    -0.666718871570E+03    0.31181E-05   -0.39856E-07  6500   0.220E-03    0.848E-03
RMM:   6    -0.666718869463E+03    0.21067E-05   -0.21668E-07  6260   0.217E-03    0.723E-03
RMM:   7    -0.666718867993E+03    0.14696E-05   -0.66087E-08  5286   0.199E-03    0.352E-03
RMM:   8    -0.666718868268E+03   -0.27427E-06   -0.53843E-08  5064   0.202E-03
  67 F= -.66671887E+03 E0= -.66630024E+03  d E =-.566159E-03  mag=    79.8429
       N       E                     dE             d eps       ncg     rms          rms(c)
DAV:   1    -0.666719240999E+03   -0.37301E-03   -0.84443E-03 26208   0.102E-01    0.499E-02
RMM:   2    -0.666719280967E+03   -0.39968E-04   -0.24797E-04 15842   0.207E-02    0.496E-02
RMM:   3    -0.666719284663E+03   -0.36969E-05   -0.41543E-05 14534   0.106E-02    0.398E-02
RMM:   4    -0.666719278525E+03    0.61388E-05   -0.12835E-05 13562   0.676E-03    0.295E-02
RMM:   5    -0.666719272741E+03    0.57840E-05   -0.41942E-06 11539   0.376E-03    0.173E-02
RMM:   6    -0.666719268984E+03    0.37565E-05   -0.31031E-06 11556   0.345E-03    0.149E-02
RMM:   7    -0.666719265576E+03    0.34082E-05   -0.18439E-06 10531   0.297E-03    0.721E-03
RMM:   8    -0.666719266024E+03   -0.44797E-06   -0.90105E-08  5363   0.198E-03
  68 F= -.66671927E+03 E0= -.66630064E+03  d E =-.963915E-03  mag=    79.8427
       N       E                     dE             d eps       ncg     rms          rms(c)
DAV:   1    -0.666719727963E+03   -0.46239E-03   -0.87459E-04 25232   0.348E-02    0.971E-03
RMM:   2    -0.666719728558E+03   -0.59465E-06   -0.22485E-05 13359   0.703E-03    0.116E-02
RMM:   3    -0.666719731214E+03   -0.26557E-05   -0.37429E-06 10999   0.375E-03    0.101E-02
RMM:   4    -0.666719732815E+03   -0.16014E-05   -0.47303E-07  6256   0.215E-03    0.450E-03
RMM:   5    -0.666719734457E+03   -0.16419E-05   -0.50097E-08  4982   0.183E-03    0.432E-03
RMM:   6    -0.666719736732E+03   -0.22748E-05   -0.19769E-09  4915   0.177E-03    0.393E-03
RMM:   7    -0.666719739268E+03   -0.25360E-05   -0.11499E-08  5154   0.181E-03    0.248E-03
RMM:   8    -0.666719740526E+03   -0.12582E-05   -0.50029E-09  5115   0.184E-03
  69 F= -.66671974E+03 E0= -.66630114E+03  d E =-.474502E-03  mag=    79.8425
       N       E                     dE             d eps       ncg     rms          rms(c)
DAV:   1    -0.666720759118E+03   -0.10198E-02   -0.78169E-03 26784   0.104E-01    0.258E-02
RMM:   2    -0.666720762711E+03   -0.35940E-05   -0.18502E-04 15234   0.190E-02    0.209E-02
RMM:   3    -0.666720778461E+03   -0.15750E-04   -0.27917E-05 13305   0.865E-03    0.225E-02
RMM:   4    -0.666720778665E+03   -0.20396E-06   -0.65742E-06 11720   0.464E-03    0.132E-02
RMM:   5    -0.666720780957E+03   -0.22925E-05   -0.22573E-06  9475   0.293E-03    0.115E-02
RMM:   6    -0.666720783687E+03   -0.27292E-05   -0.63858E-07  7074   0.229E-03    0.803E-03
RMM:   7    -0.666720786408E+03   -0.27213E-05   -0.20202E-07  6183   0.211E-03    0.560E-03
RMM:   8    -0.666720787871E+03   -0.14631E-05   -0.36714E-08  5265   0.199E-03
  70 F= -.66672079E+03 E0= -.66630224E+03  d E =-.152185E-02  mag=    79.8423
       N       E                     dE             d eps       ncg     rms          rms(c)
DAV:   1    -0.666721054652E+03   -0.26824E-03   -0.31295E-02 27344   0.207E-01    0.517E-02
RMM:   2    -0.666721088033E+03   -0.33381E-04   -0.72918E-04 19409   0.378E-02    0.412E-02
RMM:   3    -0.666721134878E+03   -0.46845E-04   -0.11569E-04 14563   0.160E-02    0.453E-02
RMM:   4    -0.666721131803E+03    0.30752E-05   -0.27800E-05 13173   0.948E-03    0.258E-02
RMM:   5    -0.666721135299E+03   -0.34962E-05   -0.10163E-05 12069   0.515E-03    0.250E-02
RMM:   6    -0.666721137341E+03   -0.20419E-05   -0.52034E-06 11682   0.392E-03    0.179E-02
RMM:   7    -0.666721139431E+03   -0.20899E-05   -0.29324E-06 11049   0.331E-03    0.112E-02
RMM:   8    -0.666721140627E+03   -0.11958E-05   -0.56390E-07  7098   0.224E-03
  71 F= -.66672114E+03 E0= -.66630269E+03  d E =-.187460E-02  mag=    79.8422
       N       E                     dE             d eps       ncg     rms          rms(c)
DAV:   1    -0.666721268526E+03   -0.12910E-03   -0.37550E-03 26832   0.718E-02    0.191E-02
RMM:   2    -0.666721277843E+03   -0.93170E-05   -0.89647E-05 14292   0.134E-02    0.193E-02
RMM:   3    -0.666721285421E+03   -0.75777E-05   -0.14095E-05 12605   0.645E-03    0.195E-02
RMM:   4    -0.666721285302E+03    0.11874E-06   -0.31801E-06 10248   0.340E-03    0.860E-03
RMM:   5    -0.666721286837E+03   -0.15353E-05   -0.43153E-07  5959   0.208E-03    0.541E-03
RMM:   6    -0.666721288331E+03   -0.14938E-05   -0.18814E-07  5643   0.200E-03    0.624E-03
RMM:   7    -0.666721289471E+03   -0.11395E-05   -0.37787E-08  5029   0.189E-03    0.350E-03
RMM:   8    -0.666721290841E+03   -0.13700E-05   -0.27842E-08  4972   0.190E-03
  72 F= -.66672129E+03 E0= -.66630282E+03  d E =-.202482E-02  mag=    79.8421
       N       E                     dE             d eps       ncg     rms          rms(c)
DAV:   1    -0.666721426914E+03   -0.13744E-03   -0.65072E-04 24832   0.311E-02    0.108E-02
RMM:   2    -0.666721426262E+03    0.65146E-06   -0.18260E-05 13387   0.606E-03    0.124E-02
RMM:   3    -0.666721428710E+03   -0.24475E-05   -0.25723E-06  9565   0.304E-03    0.514E-03
RMM:   4    -0.666721430367E+03   -0.16573E-05   -0.27483E-07  5561   0.203E-03    0.454E-03
RMM:   5    -0.666721431759E+03   -0.13919E-05   -0.50097E-08  4924   0.182E-03    0.313E-03
RMM:   6    -0.666721433621E+03   -0.18626E-05   -0.13331E-08  4734   0.177E-03    0.231E-03
RMM:   7    -0.666721436093E+03   -0.24713E-05   -0.58791E-09  4753   0.180E-03    0.207E-03
RMM:   8    -0.666721438089E+03   -0.19963E-05   -0.83456E-09  4775   0.180E-03
  73 F= -.66672144E+03 E0= -.66630298E+03  d E =-.147248E-03  mag=    79.8420
       N       E                     dE             d eps       ncg     rms          rms(c)
DAV:   1    -0.666721548453E+03   -0.11236E-03   -0.29582E-03 26304   0.663E-02    0.225E-02
RMM:   2    -0.666721547800E+03    0.65332E-06   -0.82764E-05 14606   0.126E-02    0.259E-02
RMM:   3    -0.666721553666E+03   -0.58655E-05   -0.13311E-05 12916   0.609E-03    0.111E-02
RMM:   4    -0.666721556113E+03   -0.24475E-05   -0.31943E-06 10563   0.337E-03    0.112E-02
RMM:   5    -0.666721557680E+03   -0.15665E-05   -0.83579E-07  7786   0.247E-03    0.525E-03
RMM:   6    -0.666721560676E+03   -0.29961E-05   -0.85845E-08  5255   0.198E-03    0.378E-03
RMM:   7    -0.666721564661E+03   -0.39856E-05   -0.18426E-07  5753   0.202E-03    0.383E-03
RMM:   8    -0.666721567500E+03   -0.28391E-05   -0.31503E-08  5140   0.192E-03
  74 F= -.66672157E+03 E0= -.66630313E+03  d E =-.276660E-03  mag=    79.8419
       N       E                     dE             d eps       ncg     rms          rms(c)
DAV:   1    -0.666721615110E+03   -0.50448E-04   -0.24539E-04 25072   0.200E-02    0.847E-03
RMM:   2    -0.666721618572E+03   -0.34627E-05   -0.67805E-06 13389   0.450E-03    0.962E-03
RMM:   3    -0.666721619925E+03   -0.13527E-05   -0.82141E-07  7912   0.250E-03    0.860E-03
RMM:   4    -0.666721620408E+03   -0.48289E-06   -0.26915E-08  4903   0.184E-03    0.327E-03
RMM:   5    -0.666721621909E+03   -0.15013E-05   -0.99066E-09  4774   0.181E-03    0.265E-03
RMM:   6    -0.666721624574E+03   -0.26650E-05   -0.13139E-09  4653   0.180E-03    0.126E-03
RMM:   7    -0.666721626947E+03   -0.23725E-05   -0.24553E-09  4764   0.182E-03    0.880E-04
RMM:   8    -0.666721628331E+03   -0.13844E-05    0.00000E+00  4703   0.182E-03
  75 F= -.66672163E+03 E0= -.66630320E+03  d E =-.608307E-04  mag=    79.8418
       N       E                     dE             d eps       ncg     rms          rms(c)
DAV:   1    -0.666721705102E+03   -0.78155E-04   -0.21731E-03 26592   0.594E-02    0.248E-02
RMM:   2    -0.666721714195E+03   -0.90930E-05   -0.53791E-05 14542   0.119E-02    0.180E-02
RMM:   3    -0.666721719260E+03   -0.50655E-05   -0.86473E-06 13288   0.580E-03    0.186E-02
RMM:   4    -0.666721718302E+03    0.95833E-06   -0.25693E-06 11492   0.340E-03    0.971E-03
RMM:   5    -0.666721719376E+03   -0.10738E-05   -0.21075E-07  6100   0.207E-03    0.826E-03
RMM:   6    -0.666721720735E+03   -0.13593E-05   -0.25882E-08  5281   0.200E-03    0.529E-03
RMM:   7    -0.666721722508E+03   -0.17732E-05   -0.22149E-08  5144   0.197E-03    0.272E-03
RMM:   8    -0.666721724016E+03   -0.15078E-05   -0.75776E-08  5481   0.205E-03
  76 F= -.66672172E+03 E0= -.66630331E+03  d E =-.156516E-03  mag=    79.8417
       N       E                     dE             d eps       ncg     rms          rms(c)
DAV:   1    -0.666721608880E+03    0.11363E-03   -0.86680E-03 27312   0.119E-01    0.498E-02
RMM:   2    -0.666721640754E+03   -0.31874E-04   -0.20822E-04 16267   0.233E-02    0.346E-02
RMM:   3    -0.666721657717E+03   -0.16963E-04   -0.34262E-05 14369   0.111E-02    0.346E-02
RMM:   4    -0.666721653523E+03    0.41937E-05   -0.10355E-05 13234   0.635E-03    0.195E-02
RMM:   5    -0.666721653632E+03   -0.10896E-06   -0.37945E-06 11736   0.350E-03    0.172E-02
RMM:   6    -0.666721652376E+03    0.12559E-05   -0.21750E-06 11318   0.309E-03    0.898E-03
RMM:   7    -0.666721652096E+03    0.28033E-06   -0.79313E-07  8339   0.250E-03    0.499E-03
RMM:   8    -0.666721651258E+03    0.83819E-06   -0.85189E-08  5836   0.214E-03
  77 F= -.66672165E+03 E0= -.66630326E+03  d E =-.837576E-04  mag=    79.8416
       N       E                     dE             d eps       ncg     rms          rms(c)
DAV:   1    -0.666721715872E+03   -0.63776E-04   -0.42960E-03 27056   0.835E-02    0.350E-02
RMM:   2    -0.666721730776E+03   -0.14903E-04   -0.10169E-04 14949   0.164E-02    0.264E-02
RMM:   3    -0.666721739335E+03   -0.85598E-05   -0.16840E-05 13930   0.803E-03    0.276E-02
RMM:   4    -0.666721736829E+03    0.25067E-05   -0.52801E-06 12513   0.465E-03    0.147E-02
RMM:   5    -0.666721737579E+03   -0.75018E-06   -0.10855E-06  8679   0.255E-03    0.121E-02
RMM:   6    -0.666721738307E+03   -0.72829E-06   -0.62554E-07  7926   0.245E-03    0.570E-03
RMM:   7    -0.666721740055E+03   -0.17476E-05   -0.24366E-07  6064   0.225E-03    0.369E-03
RMM:   8    -0.666721741704E+03   -0.16489E-05   -0.78633E-08  5300   0.208E-03
  78 F= -.66672174E+03 E0= -.66630334E+03  d E =-.174203E-03  mag=    79.8414
       N       E                     dE             d eps       ncg     rms          rms(c)
DAV:   1    -0.666721785041E+03   -0.44986E-04   -0.39654E-04 24928   0.252E-02    0.117E-02
RMM:   2    -0.666721788841E+03   -0.38003E-05   -0.11541E-05 13788   0.562E-03    0.825E-03
RMM:   3    -0.666721790798E+03   -0.19562E-05   -0.84099E-07  8215   0.255E-03    0.563E-03
RMM:   4    -0.666721791698E+03   -0.90012E-06   -0.15759E-07  5698   0.202E-03    0.503E-03
RMM:   5    -0.666721793608E+03   -0.19106E-05   -0.10171E-08  4808   0.191E-03    0.368E-03
RMM:   6    -0.666721794690E+03   -0.10822E-05   -0.97000E-09  4711   0.192E-03    0.259E-03
RMM:   7    -0.666721795492E+03   -0.80140E-06   -0.32005E-09  4570   0.194E-03    0.132E-03
RMM:   8    -0.666721796055E+03   -0.56298E-06   -0.33712E-10  4456   0.193E-03
  79 F= -.66672180E+03 E0= -.66630340E+03  d E =-.543511E-04  mag=    79.8413
       N       E                     dE             d eps       ncg     rms          rms(c)
DAV:   1    -0.666721842327E+03   -0.46835E-04   -0.36011E-03 26576   0.755E-02    0.350E-02
RMM:   2    -0.666721858958E+03   -0.16632E-04   -0.10072E-04 14955   0.157E-02    0.254E-02
RMM:   3    -0.666721867945E+03   -0.89868E-05   -0.15526E-05 14119   0.754E-03    0.230E-02
RMM:   4    -0.666721866825E+03    0.11204E-05   -0.49594E-06 12121   0.454E-03    0.142E-02
RMM:   5    -0.666721868109E+03   -0.12848E-05   -0.12820E-06  9157   0.264E-03    0.125E-02
RMM:   6    -0.666721868283E+03   -0.17323E-06   -0.57734E-07  7581   0.242E-03    0.726E-03
RMM:   7    -0.666721868663E+03   -0.37998E-06   -0.93994E-08  5220   0.213E-03    0.328E-03
RMM:   8    -0.666721868568E+03    0.94529E-07   -0.47579E-08  4902   0.205E-03
  80 F= -.66672187E+03 E0= -.66630349E+03  d E =-.126864E-03  mag=    79.8412
       N       E                     dE             d eps       ncg     rms          rms(c)
DAV:   1    -0.666721919068E+03   -0.50405E-04   -0.46560E-04 25952   0.286E-02    0.119E-02
RMM:   2    -0.666721922059E+03   -0.29914E-05   -0.17855E-05 14153   0.657E-03    0.123E-02
RMM:   3    -0.666721923213E+03   -0.11534E-05   -0.28797E-06 11585   0.350E-03    0.104E-02
RMM:   4    -0.666721923367E+03   -0.15413E-06   -0.34612E-07  6492   0.222E-03    0.423E-03
RMM:   5    -0.666721924116E+03   -0.74971E-06   -0.38947E-08  4629   0.190E-03    0.401E-03
RMM:   6    -0.666721924853E+03   -0.73668E-06   -0.31631E-09  4374   0.181E-03    0.345E-03
RMM:   7    -0.666721925373E+03   -0.52014E-06   -0.43987E-09  4285   0.188E-03    0.255E-03
RMM:   8    -0.666721925520E+03   -0.14668E-06   -0.57796E-10  4190   0.191E-03
  81 F= -.66672193E+03 E0= -.66630356E+03  d E =-.569518E-04  mag=    79.8411
       N       E                     dE             d eps       ncg     rms          rms(c)
DAV:   1    -0.666721970244E+03   -0.44871E-04   -0.25890E-03 26368   0.670E-02    0.276E-02
RMM:   2    -0.666721981118E+03   -0.10874E-04   -0.90169E-05 14967   0.144E-02    0.253E-02
RMM:   3    -0.666721987153E+03   -0.60354E-05   -0.14274E-05 14064   0.722E-03    0.219E-02
RMM:   4    -0.666721986851E+03    0.30268E-06   -0.43319E-06 12227   0.424E-03    0.133E-02
RMM:   5    -0.666721988459E+03   -0.16084E-05   -0.86379E-07  8288   0.248E-03    0.981E-03
RMM:   6    -0.666721989762E+03   -0.13029E-05   -0.46594E-07  7363   0.234E-03    0.833E-03
RMM:   7    -0.666721990914E+03   -0.11516E-05   -0.55831E-08  5134   0.208E-03    0.478E-03
RMM:   8    -0.666721991473E+03   -0.55972E-06   -0.91501E-08  5338   0.200E-03
  82 F= -.66672199E+03 E0= -.66630366E+03  d E =-.122905E-03  mag=    79.8409
       N       E                     dE             d eps       ncg     rms          rms(c)
DAV:   1    -0.666722035351E+03   -0.44438E-04   -0.49759E-04 26160   0.289E-02    0.126E-02
RMM:   2    -0.666722037963E+03   -0.26119E-05   -0.20284E-05 14255   0.645E-03    0.125E-02
RMM:   3    -0.666722039379E+03   -0.14156E-05   -0.27967E-06 11710   0.343E-03    0.107E-02
RMM:   4    -0.666722039216E+03    0.16298E-06   -0.25263E-07  6331   0.219E-03    0.438E-03
RMM:   5    -0.666722039966E+03   -0.75065E-06   -0.32634E-09  4500   0.183E-03    0.598E-03
RMM:   6    -0.666722040049E+03   -0.82888E-07   -0.22793E-09  4632   0.183E-03    0.351E-03
RMM:   7    -0.666722040171E+03   -0.12154E-06   -0.28819E-09  4702   0.193E-03    0.185E-03
RMM:   8    -0.666722040134E+03    0.36322E-07   -0.11786E-09  4532   0.192E-03
  83 F= -.66672204E+03 E0= -.66630374E+03  d E =-.486611E-04  mag=    79.8408
       N       E                     dE             d eps       ncg     rms          rms(c)
DAV:   1    -0.666722096744E+03   -0.56574E-04   -0.45244E-03 25872   0.862E-02    0.373E-02
RMM:   2    -0.666722111664E+03   -0.14919E-04   -0.16472E-04 15274   0.179E-02    0.320E-02
RMM:   3    -0.666722120579E+03   -0.89151E-05   -0.24102E-05 14264   0.916E-03    0.304E-02
RMM:   4    -0.666722117197E+03    0.33816E-05   -0.71964E-06 12791   0.547E-03    0.165E-02
RMM:   5    -0.666722118265E+03   -0.10678E-05   -0.26062E-06 11257   0.307E-03    0.151E-02
RMM:   6    -0.666722117396E+03    0.86939E-06   -0.12792E-06  9320   0.268E-03    0.120E-02
RMM:   7    -0.666722115994E+03    0.14016E-05   -0.33224E-07  6689   0.233E-03    0.601E-03
RMM:   8    -0.666722114942E+03    0.10524E-05   -0.34465E-08  5122   0.213E-03
  84 F= -.66672211E+03 E0= -.66630384E+03  d E =-.123468E-03  mag=    79.8407
       N       E                     dE             d eps       ncg     rms          rms(c)
DAV:   1    -0.666722170185E+03   -0.54191E-04   -0.56449E-04 26464   0.298E-02    0.146E-02
RMM:   2    -0.666722171397E+03   -0.12126E-05   -0.24957E-05 14365   0.697E-03    0.149E-02
RMM:   3    -0.666722172055E+03   -0.65751E-06   -0.37764E-06 12225   0.387E-03    0.129E-02
RMM:   4    -0.666722170783E+03    0.12717E-05   -0.70509E-07  8261   0.247E-03    0.564E-03
RMM:   5    -0.666722170010E+03    0.77300E-06   -0.10514E-08  4658   0.187E-03    0.610E-03
RMM:   6    -0.666722168665E+03    0.13448E-05   -0.46028E-09  4666   0.182E-03    0.449E-03
RMM:   7    -0.666722167194E+03    0.14710E-05   -0.10120E-08  4741   0.180E-03    0.295E-03
RMM:   8    -0.666722166309E+03    0.88522E-06   -0.55321E-09  4634   0.185E-03
  85 F= -.66672217E+03 E0= -.66630390E+03  d E =-.513676E-04  mag=    79.8405
       N       E                     dE             d eps       ncg     rms          rms(c)
DAV:   1    -0.666722268137E+03   -0.10094E-03   -0.51430E-03 25952   0.889E-02    0.427E-02
RMM:   2    -0.666722285238E+03   -0.17101E-04   -0.19987E-04 15332   0.190E-02    0.365E-02
RMM:   3    -0.666722293618E+03   -0.83805E-05   -0.29218E-05 14300   0.985E-03    0.343E-02
RMM:   4    -0.666722288183E+03    0.54352E-05   -0.89213E-06 12931   0.604E-03    0.174E-02
RMM:   5    -0.666722286991E+03    0.11916E-05   -0.32669E-06 11676   0.340E-03    0.140E-02
RMM:   6    -0.666722283956E+03    0.30352E-05   -0.20483E-06 10480   0.297E-03    0.103E-02
RMM:   7    -0.666722281327E+03    0.26287E-05   -0.10067E-06  8533   0.265E-03    0.675E-03
RMM:   8    -0.666722279338E+03    0.19893E-05   -0.80959E-08  5357   0.207E-03
  86 F= -.66672228E+03 E0= -.66630402E+03  d E =-.164397E-03  mag=    79.8403
       N       E                     dE             d eps       ncg     rms          rms(c)
DAV:   1    -0.666722224984E+03    0.56344E-04   -0.20552E-02 25552   0.178E-01    0.858E-02
RMM:   2    -0.666722298789E+03   -0.73805E-04   -0.79406E-04 20051   0.379E-02    0.719E-02
RMM:   3    -0.666722327936E+03   -0.29147E-04   -0.11698E-04 15070   0.186E-02    0.695E-02
RMM:   4    -0.666722309150E+03    0.18787E-04   -0.40270E-05 14382   0.126E-02    0.358E-02
RMM:   5    -0.666722309460E+03   -0.31013E-06   -0.14437E-05 13683   0.647E-03    0.320E-02
RMM:   6    -0.666722303540E+03    0.59204E-05   -0.98239E-06 12856   0.544E-03    0.277E-02
RMM:   7    -0.666722295777E+03    0.77621E-05   -0.54775E-06 12334   0.433E-03    0.170E-02
RMM:   8    -0.666722290011E+03    0.57663E-05   -0.12819E-06  9410   0.268E-03
  87 F= -.66672229E+03 E0= -.66630406E+03  d E =-.175070E-03  mag=    79.8401
       N       E                     dE             d eps       ncg     rms          rms(c)
DAV:   1    -0.666722296547E+03   -0.76974E-06   -0.31198E-03 27920   0.693E-02    0.338E-02
RMM:   2    -0.666722302697E+03   -0.61495E-05   -0.11851E-04 15053   0.149E-02    0.293E-02
RMM:   3    -0.666722305104E+03   -0.24070E-05   -0.18188E-05 14069   0.794E-03    0.290E-02
RMM:   4    -0.666722300309E+03    0.47949E-05   -0.55851E-06 12187   0.491E-03    0.138E-02
RMM:   5    -0.666722298894E+03    0.14151E-05   -0.18882E-06  9753   0.287E-03    0.137E-02
RMM:   6    -0.666722296343E+03    0.25504E-05   -0.11438E-06  8825   0.265E-03    0.940E-03
RMM:   7    -0.666722295044E+03    0.12987E-05   -0.21816E-07  6146   0.222E-03    0.584E-03
RMM:   8    -0.666722294633E+03    0.41118E-06   -0.11118E-08  4785   0.200E-03
  88 F= -.66672229E+03 E0= -.66630405E+03  d E =-.179692E-03  mag=    79.8399
       N       E                     dE             d eps       ncg     rms          rms(c)
DAV:   1    -0.666722352139E+03   -0.57095E-04   -0.10584E-03 27488   0.384E-02    0.205E-02
RMM:   2    -0.666722355224E+03   -0.30845E-05   -0.40139E-05 14331   0.804E-03    0.154E-02
RMM:   3    -0.666722357976E+03   -0.27521E-05   -0.46585E-06 12480   0.397E-03    0.149E-02
RMM:   4    -0.666722357417E+03    0.55833E-06   -0.13213E-06  9717   0.281E-03    0.888E-03
RMM:   5    -0.666722358222E+03   -0.80466E-06   -0.34210E-08  5045   0.192E-03    0.869E-03
RMM:   6    -0.666722358642E+03   -0.42003E-06   -0.25975E-08  5025   0.190E-03    0.618E-03
RMM:   7    -0.666722359128E+03   -0.48568E-06   -0.93460E-09  4749   0.179E-03    0.294E-03
RMM:   8    -0.666722359478E+03   -0.35018E-06   -0.44186E-09  4672   0.185E-03
  89 F= -.66672236E+03 E0= -.66630412E+03  d E =-.648447E-04  mag=    79.8396
       N       E                     dE             d eps       ncg     rms          rms(c)
DAV:   1    -0.666722428533E+03   -0.69405E-04   -0.94177E-03 25904   0.115E-01    0.610E-02
RMM:   2    -0.666722464700E+03   -0.36167E-04   -0.36624E-04 16147   0.242E-02    0.507E-02
RMM:   3    -0.666722482793E+03   -0.18093E-04   -0.54310E-05 14638   0.129E-02    0.489E-02
RMM:   4    -0.666722475078E+03    0.77151E-05   -0.17488E-05 13770   0.834E-03    0.247E-02
RMM:   5    -0.666722479914E+03   -0.48364E-05   -0.66569E-06 12244   0.454E-03    0.226E-02
RMM:   6    -0.666722482531E+03   -0.26170E-05   -0.49068E-06 11806   0.414E-03    0.192E-02
RMM:   7    -0.666722483428E+03   -0.89686E-06   -0.25084E-06 11114   0.320E-03    0.111E-02
RMM:   8    -0.666722484102E+03   -0.67335E-06   -0.12315E-07  5385   0.205E-03
  90 F= -.66672248E+03 E0= -.66630425E+03  d E =-.189468E-03  mag=    79.8394
       N       E                     dE             d eps       ncg     rms          rms(c)
DAV:   1    -0.666722197252E+03    0.28618E-03   -0.37641E-02 25120   0.230E-01    0.122E-01
RMM:   2    -0.666722350266E+03   -0.15301E-03   -0.14791E-03 22913   0.484E-02    0.100E-01
RMM:   3    -0.666722411054E+03   -0.60788E-04   -0.20574E-04 16001   0.235E-02    0.990E-02
RMM:   4    -0.666722378945E+03    0.32110E-04   -0.77016E-05 14686   0.173E-02    0.519E-02
RMM:   5    -0.666722394864E+03   -0.15920E-04   -0.28036E-05 14406   0.879E-03    0.506E-02
RMM:   6    -0.666722396737E+03   -0.18729E-05   -0.20244E-05 13906   0.786E-03    0.411E-02
RMM:   7    -0.666722396179E+03    0.55786E-06   -0.11467E-05 13284   0.584E-03    0.214E-02
RMM:   8    -0.666722397048E+03   -0.86892E-06   -0.35045E-06 11999   0.356E-03
  91 F= -.66672240E+03 E0= -.66630418E+03  d E =-.102415E-03  mag=    79.8393
       N       E                     dE             d eps       ncg     rms          rms(c)
DAV:   1    -0.666722427910E+03   -0.31731E-04   -0.19635E-02 25952   0.166E-01    0.886E-02
RMM:   2    -0.666722505999E+03   -0.78089E-04   -0.76138E-04 18829   0.348E-02    0.737E-02
RMM:   3    -0.666722538344E+03   -0.32345E-04   -0.11010E-04 15042   0.181E-02    0.726E-02
RMM:   4    -0.666722518688E+03    0.19656E-04   -0.39193E-05 14295   0.124E-02    0.377E-02
RMM:   5    -0.666722525469E+03   -0.67814E-05   -0.14817E-05 13475   0.656E-03    0.387E-02
RMM:   6    -0.666722520749E+03    0.47199E-05   -0.10083E-05 12670   0.576E-03    0.279E-02
RMM:   7    -0.666722518636E+03    0.21132E-05   -0.54997E-06 12280   0.419E-03    0.154E-02
RMM:   8    -0.666722517643E+03    0.99326E-06   -0.12349E-06  9285   0.266E-03
  92 F= -.66672252E+03 E0= -.66630430E+03  d E =-.223009E-03  mag=    79.8391
       N       E                     dE             d eps       ncg     rms          rms(c)
DAV:   1    -0.666722608432E+03   -0.89796E-04   -0.27998E-03 27504   0.664E-02    0.311E-02
RMM:   2    -0.666722616813E+03   -0.83810E-05   -0.96782E-05 14813   0.139E-02    0.253E-02
RMM:   3    -0.666722624203E+03   -0.73900E-05   -0.14814E-05 13913   0.729E-03    0.266E-02
RMM:   4    -0.666722622335E+03    0.18673E-05   -0.47071E-06 11971   0.449E-03    0.120E-02
RMM:   5    -0.666722625331E+03   -0.29951E-05   -0.13362E-06  8620   0.266E-03    0.121E-02
RMM:   6    -0.666722627311E+03   -0.19809E-05   -0.76247E-07  8205   0.248E-03    0.770E-03
RMM:   7    -0.666722629466E+03   -0.21541E-05   -0.47770E-08  5359   0.204E-03    0.530E-03
RMM:   8    -0.666722630607E+03   -0.11413E-05   -0.20671E-08  4975   0.202E-03
  93 F= -.66672263E+03 E0= -.66630442E+03  d E =-.112964E-03  mag=    79.8390
       N       E                     dE             d eps       ncg     rms          rms(c)
DAV:   1    -0.666722651639E+03   -0.22173E-04   -0.66412E-03 25856   0.102E-01    0.475E-02
RMM:   2    -0.666722675331E+03   -0.23693E-04   -0.23587E-04 15690   0.214E-02    0.400E-02
RMM:   3    -0.666722690421E+03   -0.15090E-04   -0.35946E-05 14351   0.111E-02    0.378E-02
RMM:   4    -0.666722686875E+03    0.35465E-05   -0.10639E-05 13265   0.659E-03    0.183E-02
RMM:   5    -0.666722692522E+03   -0.56471E-05   -0.39523E-06 11963   0.366E-03    0.167E-02
RMM:   6    -0.666722696616E+03   -0.40941E-05   -0.25717E-06 11183   0.325E-03    0.150E-02
RMM:   7    -0.666722698962E+03   -0.23465E-05   -0.10756E-06  9051   0.262E-03    0.803E-03
RMM:   8    -0.666722701192E+03   -0.22296E-05   -0.81222E-08  5433   0.203E-03
  94 F= -.66672270E+03 E0= -.66630451E+03  d E =-.183549E-03  mag=    79.8390
       N       E                     dE             d eps       ncg     rms          rms(c)
DAV:   1    -0.666722769315E+03   -0.70353E-04   -0.23574E-03 28128   0.619E-02    0.283E-02
RMM:   2    -0.666722779140E+03   -0.98250E-05   -0.76590E-05 14820   0.130E-02    0.223E-02
RMM:   3    -0.666722787236E+03   -0.80960E-05   -0.11306E-05 13884   0.636E-03    0.194E-02
RMM:   4    -0.666722787268E+03   -0.31199E-07   -0.33586E-06 11941   0.383E-03    0.112E-02
RMM:   5    -0.666722789917E+03   -0.26491E-05   -0.45217E-07  7384   0.234E-03    0.863E-03
RMM:   6    -0.666722792380E+03   -0.24633E-05   -0.18182E-07  5987   0.220E-03    0.865E-03
RMM:   7    -0.666722794165E+03   -0.17849E-05   -0.37727E-08  5097   0.202E-03    0.386E-03
RMM:   8    -0.666722795837E+03   -0.16717E-05   -0.50119E-08  5179   0.208E-03
  95 F= -.66672280E+03 E0= -.66630463E+03  d E =-.946447E-04  mag=    79.8389
