 ----------------------------------------------------
    OOO  PPPP  EEEEE N   N M   M PPPP
   O   O P   P E     NN  N MM MM P   P
   O   O PPPP  EEEEE N N N M M M PPPP   -- VERSION
   O   O P     E     N  NN M   M P
    OOO  P     EEEEE N   N M   M P
 ----------------------------------------------------
 running   16 mpi-ranks, with    4 threads/rank
 distrk:  each k-point on   16 cores,    1 groups
 distr:  one band on    1 cores,   16 groups
 vasp.6.2.1 16May21 (build Jul 28 2021 23:24:15) complex                        
  
 POSCAR found type information on POSCAR H IrO 
 POSCAR found :  3 types and     112 ions
 scaLAPACK will be used
 -----------------------------------------------------------------------------
|                                                                             |
|           W    W    AA    RRRRR   N    N  II  N    N   GGGG   !!!           |
|           W    W   A  A   R    R  NN   N  II  NN   N  G    G  !!!           |
|           W    W  A    A  R    R  N N  N  II  N N  N  G       !!!           |
|           W WW W  AAAAAA  RRRRR   N  N N  II  N  N N  G  GGG   !            |
|           WW  WW  A    A  R   R   N   NN  II  N   NN  G    G                |
|           W    W  A    A  R    R  N    N  II  N    N   GGGG   !!!           |
|                                                                             |
|     The real-space projection scheme for the treatment of the non-local     |
|     pseudopotentials has been switched on but on file POTCAR I have not     |
|     found any entries, signalling me that you have never performed a        |
|     real-space optimization of all non-local projectors! BE WARNED that     |
|     a calculation using the real-space projection scheme together with      |
|     non-local projectors which were not real-space optimized (according     |
|     to the plane-wave cutoff used in this calculation) might give more      |
|     or less inaccurate results. I hope you know what you are doing.         |
|                                                                             |
 -----------------------------------------------------------------------------

 LDA part: xc-table for Pade appr. of Perdew
 POSCAR, INCAR and KPOINTS ok, starting setup
 FFT: planning ...
 WAVECAR not read
 WARNING: random wavefunctions but no delay for mixing, default for NELMDL
 entering main loop
       N       E                     dE             d eps       ncg     rms          rms(c)
DAV:   1     0.781042660649E+04    0.78104E+04   -0.31240E+05 13648   0.127E+03
DAV:   2     0.585515204110E+03   -0.72249E+04   -0.65351E+04 14512   0.374E+02
DAV:   3    -0.805102838592E+03   -0.13906E+04   -0.13354E+04 16720   0.165E+02
DAV:   4    -0.882191735858E+03   -0.77089E+02   -0.75235E+02 18528   0.434E+01
DAV:   5    -0.883886109975E+03   -0.16944E+01   -0.16726E+01 17424   0.600E+00    0.191E+02
RMM:   6    -0.748501244857E+03    0.13538E+03   -0.67170E+02 13488   0.409E+01    0.196E+02
RMM:   7    -0.106615974005E+04   -0.31766E+03   -0.22236E+02 14218   0.229E+01    0.351E+02
RMM:   8    -0.880659806783E+03    0.18550E+03   -0.53618E+01 16202   0.868E+00    0.277E+02
RMM:   9    -0.101792471911E+04   -0.13726E+03   -0.18493E+02 17361   0.184E+01    0.302E+02
RMM:  10    -0.756972883138E+03    0.26095E+03   -0.99334E+01 15461   0.141E+01    0.115E+02
RMM:  11    -0.650415841709E+03    0.10656E+03   -0.70136E+01 14428   0.143E+01    0.606E+01
RMM:  12    -0.667141116745E+03   -0.16725E+02   -0.26328E+01 13530   0.824E+00    0.706E+01
RMM:  13    -0.657915394898E+03    0.92257E+01   -0.19360E+01 13589   0.764E+00    0.288E+01
RMM:  14    -0.663954094516E+03   -0.60387E+01   -0.71671E+00 14381   0.378E+00    0.297E+01
RMM:  15    -0.670465449750E+03   -0.65114E+01   -0.37262E+00 13619   0.312E+00    0.213E+01
RMM:  16    -0.682740758271E+03   -0.12275E+02   -0.95540E+00 15423   0.415E+00    0.191E+01
RMM:  17    -0.698752022518E+03   -0.16011E+02   -0.86972E+00 15223   0.402E+00    0.162E+01
RMM:  18    -0.705258244269E+03   -0.65062E+01   -0.46485E+00 14671   0.292E+00    0.143E+01
RMM:  19    -0.708935069992E+03   -0.36768E+01   -0.19058E+00 13729   0.199E+00    0.112E+01
RMM:  20    -0.713497648224E+03   -0.45626E+01   -0.17626E+00 14477   0.190E+00    0.978E+00
RMM:  21    -0.715843723069E+03   -0.23461E+01   -0.98629E-01 13831   0.145E+00    0.927E+00
RMM:  22    -0.720067531249E+03   -0.42238E+01   -0.11605E+00 14870   0.142E+00    0.747E+00
RMM:  23    -0.725492425362E+03   -0.54249E+01   -0.16504E+00 15576   0.156E+00    0.774E+00
RMM:  24    -0.727560768633E+03   -0.20683E+01   -0.79487E-01 14651   0.115E+00    0.631E+00
RMM:  25    -0.728704748777E+03   -0.11440E+01   -0.71442E-01 14961   0.104E+00    0.703E+00
RMM:  26    -0.729601098924E+03   -0.89635E+00   -0.18363E-01 13941   0.585E-01    0.664E+00
RMM:  27    -0.730417193857E+03   -0.81609E+00   -0.12939E-01 13984   0.456E-01    0.592E+00
RMM:  28    -0.731995957417E+03   -0.15788E+01   -0.28530E-01 15590   0.617E-01    0.492E+00
RMM:  29    -0.732901256688E+03   -0.90530E+00   -0.90447E-02 14019   0.406E-01    0.360E+00
RMM:  30    -0.733430809594E+03   -0.52955E+00   -0.62626E-02 14037   0.322E-01    0.317E+00
RMM:  31    -0.733992351388E+03   -0.56154E+00   -0.54764E-02 14473   0.280E-01    0.258E+00
RMM:  32    -0.734332526436E+03   -0.34018E+00   -0.47496E-02 14959   0.265E-01    0.187E+00
RMM:  33    -0.734602143653E+03   -0.26962E+00   -0.98656E-02 16686   0.341E-01    0.168E+00
RMM:  34    -0.734681222522E+03   -0.79079E-01   -0.31355E-02 14740   0.210E-01    0.164E+00
RMM:  35    -0.734817460634E+03   -0.13624E+00   -0.12305E-02 13908   0.148E-01    0.170E+00
RMM:  36    -0.734949069712E+03   -0.13161E+00   -0.73579E-03 14110   0.115E-01    0.170E+00
RMM:  37    -0.734999514219E+03   -0.50445E-01   -0.36989E-03 14081   0.846E-02    0.155E+00
RMM:  38    -0.735047767638E+03   -0.48253E-01   -0.18167E-03 13282   0.618E-02    0.129E+00
RMM:  39    -0.735124498635E+03   -0.76731E-01   -0.15863E-03 13483   0.566E-02    0.102E+00
RMM:  40    -0.735187277503E+03   -0.62779E-01   -0.11768E-03 13174   0.475E-02    0.816E-01
RMM:  41    -0.735253148557E+03   -0.65871E-01   -0.14354E-03 13661   0.477E-02    0.555E-01
RMM:  42    -0.735317308291E+03   -0.64160E-01   -0.19634E-03 14269   0.522E-02    0.303E-01
RMM:  43    -0.735357573970E+03   -0.40266E-01   -0.14491E-03 13681   0.440E-02    0.201E-01
RMM:  44    -0.735384495735E+03   -0.26922E-01   -0.70955E-04 12291   0.322E-02    0.173E-01
RMM:  45    -0.735409967319E+03   -0.25472E-01   -0.49305E-04 11084   0.261E-02    0.175E-01
RMM:  46    -0.735429452685E+03   -0.19485E-01   -0.33507E-04 10065   0.213E-02    0.167E-01
RMM:  47    -0.735446924659E+03   -0.17472E-01   -0.22284E-04  9153   0.175E-02    0.145E-01
RMM:  48    -0.735462182749E+03   -0.15258E-01   -0.16938E-04  8596   0.148E-02    0.142E-01
RMM:  49    -0.735470234003E+03   -0.80513E-02   -0.93119E-05  7801   0.119E-02    0.134E-01
RMM:  50    -0.735474701688E+03   -0.44677E-02   -0.63049E-05  7910   0.103E-02    0.107E-01
RMM:  51    -0.735477513907E+03   -0.28122E-02   -0.87791E-05  8193   0.127E-02    0.554E-02
RMM:  52    -0.735478701210E+03   -0.11873E-02   -0.43660E-05  7679   0.940E-03    0.331E-02
RMM:  53    -0.735478910304E+03   -0.20909E-03   -0.25009E-05  7515   0.724E-03    0.267E-02
RMM:  54    -0.735479450092E+03   -0.53979E-03   -0.21756E-05  6525   0.599E-03    0.170E-02
RMM:  55    -0.735479594107E+03   -0.14402E-03   -0.11224E-05  5795   0.518E-03    0.136E-02
RMM:  56    -0.735480232846E+03   -0.63874E-03   -0.21768E-05  6633   0.513E-03    0.109E-02
RMM:  57    -0.735480367778E+03   -0.13493E-03   -0.67661E-06  5367   0.446E-03    0.959E-03
RMM:  58    -0.735480593444E+03   -0.22567E-03   -0.43015E-06  4482   0.353E-03    0.766E-03
RMM:  59    -0.735480706457E+03   -0.11301E-03   -0.33983E-06  4505   0.350E-03    0.734E-03
RMM:  60    -0.735480896755E+03   -0.19030E-03   -0.34382E-06  4499   0.336E-03    0.797E-03
RMM:  61    -0.735481006736E+03   -0.10998E-03   -0.36377E-06  4654   0.343E-03    0.727E-03
RMM:  62    -0.735481172384E+03   -0.16565E-03   -0.30230E-06  4683   0.343E-03    0.769E-03
RMM:  63    -0.735481221386E+03   -0.49001E-04   -0.14596E-06  3757   0.310E-03
   1 F= -.73548122E+03 E0= -.73485209E+03  d E =-.735481E+03  mag=     0.2828
 curvature:   0.00 expect dE= 0.000E+00 dE for cont linesearch  0.000E+00
 trial: gam= 0.00000 g(F)=  0.142E+02 g(S)=  0.000E+00 ort = 0.000E+00 (trialstep = 0.100E+01)
 search vector abs. value=  0.142E+02
 bond charge predicted
       N       E                     dE             d eps       ncg     rms          rms(c)
DAV:   1    -0.719621906073E+03    0.15859E+02   -0.26240E+03 13600   0.780E+01    0.174E+01
RMM:   2    -0.760437451188E+03   -0.40816E+02   -0.97981E+01 13440   0.144E+01    0.749E+01
RMM:   3    -0.728370645491E+03    0.32067E+02   -0.16661E+01 13873   0.686E+00    0.170E+01
RMM:   4    -0.730348846993E+03   -0.19782E+01   -0.48973E+00 13926   0.379E+00    0.265E+01
RMM:   5    -0.727815180512E+03    0.25337E+01   -0.12536E+00 13448   0.226E+00    0.165E+01
RMM:   6    -0.726733082092E+03    0.10821E+01   -0.77940E-01 13596   0.129E+00    0.942E+00
RMM:   7    -0.726449362926E+03    0.28372E+00   -0.10012E+00 14479   0.150E+00    0.548E+00
RMM:   8    -0.726299209453E+03    0.15015E+00   -0.26500E-01 13482   0.956E-01    0.290E+00
RMM:   9    -0.726270748199E+03    0.28461E-01   -0.66080E-02 13848   0.496E-01    0.191E+00
RMM:  10    -0.726270917715E+03   -0.16952E-03   -0.29980E-02 13881   0.287E-01    0.166E+00
RMM:  11    -0.726256088165E+03    0.14830E-01   -0.24805E-02 13522   0.227E-01    0.673E-01
RMM:  12    -0.726257357026E+03   -0.12689E-02   -0.72997E-03 14069   0.128E-01    0.512E-01
RMM:  13    -0.726259173588E+03   -0.18166E-02   -0.39485E-03 14427   0.887E-02    0.248E-01
RMM:  14    -0.726260980675E+03   -0.18071E-02   -0.10941E-03 13036   0.444E-02    0.216E-01
RMM:  15    -0.726262778597E+03   -0.17979E-02   -0.29323E-04  9411   0.271E-02    0.191E-01
RMM:  16    -0.726265431607E+03   -0.26530E-02   -0.37736E-04  9723   0.273E-02    0.125E-01
RMM:  17    -0.726267704352E+03   -0.22727E-02   -0.27639E-04  9253   0.231E-02    0.749E-02
RMM:  18    -0.726268524443E+03   -0.82009E-03   -0.69828E-05  8107   0.142E-02    0.698E-02
RMM:  19    -0.726268791173E+03   -0.26673E-03   -0.24664E-05  7612   0.844E-03    0.665E-02
RMM:  20    -0.726268755065E+03    0.36108E-04   -0.78610E-06  6641   0.549E-03
   2 F= -.72626876E+03 E0= -.72563064E+03  d E =0.921247E+01  mag=     0.1554
 trial-energy change:    9.212466  1 .order   15.771824  -14.230866   45.774515
 step:   0.3937(harm=  0.2372)  dis= 0.06968  next Energy=  -738.683053 (dE=-0.320E+01)
 bond charge predicted
       N       E                     dE             d eps       ncg     rms          rms(c)
DAV:   1    -0.738384318451E+03   -0.12116E+02   -0.99324E+02 13840   0.489E+01    0.184E+01
RMM:   2    -0.794785295462E+03   -0.56401E+02   -0.68124E+01 13504   0.110E+01    0.710E+01
RMM:   3    -0.753258722401E+03    0.41527E+02   -0.90906E+00 13522   0.603E+00    0.294E+01
RMM:   4    -0.747467966563E+03    0.57908E+01   -0.39916E+00 13446   0.342E+00    0.258E+01
RMM:   5    -0.739910416065E+03    0.75576E+01   -0.29372E+00 13616   0.277E+00    0.111E+01
RMM:   6    -0.739648389647E+03    0.26203E+00   -0.15566E+00 14346   0.169E+00    0.127E+01
RMM:   7    -0.738550627600E+03    0.10978E+01   -0.12568E+00 14763   0.131E+00    0.417E+00
RMM:   8    -0.738555871453E+03   -0.52439E-02   -0.29622E-01 14027   0.805E-01    0.357E+00
RMM:   9    -0.738556288112E+03   -0.41666E-03   -0.19129E-01 13610   0.628E-01    0.309E+00
RMM:  10    -0.738530991097E+03    0.25297E-01   -0.76493E-02 13582   0.503E-01    0.239E+00
RMM:  11    -0.738495822244E+03    0.35169E-01   -0.40965E-02 15022   0.290E-01    0.115E+00
RMM:  12    -0.738495626502E+03    0.19574E-03   -0.10745E-02 16122   0.127E-01    0.118E+00
RMM:  13    -0.738497692127E+03   -0.20656E-02   -0.20849E-03 13394   0.659E-02    0.123E+00
RMM:  14    -0.738494716653E+03    0.29755E-02   -0.24304E-03 13146   0.674E-02    0.103E+00
RMM:  15    -0.738491661030E+03    0.30556E-02   -0.26650E-03 13871   0.674E-02    0.730E-01
RMM:  16    -0.738490964971E+03    0.69606E-03   -0.60565E-04 12135   0.446E-02    0.658E-01
RMM:  17    -0.738489895665E+03    0.10693E-02   -0.25176E-04  9262   0.244E-02    0.538E-01
RMM:  18    -0.738489395604E+03    0.50006E-03   -0.10119E-04  8166   0.182E-02    0.469E-01
RMM:  19    -0.738489051840E+03    0.34376E-03   -0.14844E-04  8314   0.170E-02    0.380E-01
RMM:  20    -0.738488699130E+03    0.35271E-03   -0.14055E-04  8287   0.167E-02    0.239E-01
RMM:  21    -0.738488737348E+03   -0.38218E-04   -0.11602E-04  8130   0.166E-02
   3 F= -.73848874E+03 E0= -.73785979E+03  d E =-.300752E+01  mag=     0.0981
 curvature:  -0.11 expect dE=-0.715E+00 dE for cont linesearch -0.113E-01
 trial: gam= 0.52595 g(F)=  0.630E+01 g(S)=  0.000E+00 ort =-0.119E+01 (trialstep = 0.879E+00)
 search vector abs. value=  0.898E+01
 bond charge predicted
       N       E                     dE             d eps       ncg     rms          rms(c)
DAV:   1    -0.736092020748E+03    0.23967E+01   -0.13274E+03 13472   0.556E+01    0.107E+01
RMM:   2    -0.740645078615E+03   -0.45531E+01   -0.38820E+01 13440   0.108E+01    0.143E+01
RMM:   3    -0.744912913413E+03   -0.42678E+01   -0.65475E+00 14156   0.442E+00    0.301E+01
RMM:   4    -0.739625486816E+03    0.52874E+01   -0.15323E+00 14163   0.221E+00    0.587E+00
RMM:   5    -0.739524379439E+03    0.10111E+00   -0.48640E-01 13768   0.120E+00    0.604E+00
RMM:   6    -0.739410278141E+03    0.11410E+00   -0.22250E-01 13555   0.812E-01    0.471E+00
RMM:   7    -0.739355966867E+03    0.54311E-01   -0.18333E-01 13715   0.638E-01    0.272E+00
RMM:   8    -0.739325271469E+03    0.30695E-01   -0.14568E-01 13982   0.593E-01    0.189E+00
RMM:   9    -0.739302074143E+03    0.23197E-01   -0.50022E-02 13831   0.375E-01    0.640E-01
RMM:  10    -0.739300541028E+03    0.15331E-02   -0.18302E-02 15714   0.178E-01    0.474E-01
RMM:  11    -0.739298981227E+03    0.15598E-02   -0.29923E-03 13076   0.841E-02    0.367E-01
RMM:  12    -0.739298508145E+03    0.47308E-03   -0.32596E-03 13180   0.807E-02    0.324E-01
RMM:  13    -0.739298548928E+03   -0.40782E-04   -0.31685E-03 13649   0.751E-02    0.213E-01
RMM:  14    -0.739298634112E+03   -0.85184E-04   -0.82682E-04 12401   0.441E-02
   4 F= -.73929863E+03 E0= -.73867770E+03  d E =-.809897E+00  mag=     0.0658
 trial-energy change:   -0.809897  1 .order   -2.092502   -4.981904    0.796899
 step:   0.4661(harm=  0.7576)  dis= 0.07415  next Energy=  -739.618563 (dE=-0.113E+01)
 bond charge predicted
       N       E                     dE             d eps       ncg     rms          rms(c)
DAV:   1    -0.739063794596E+03    0.23475E+00   -0.29841E+02 13536   0.260E+01    0.434E+00
RMM:   2    -0.739989517383E+03   -0.92572E+00   -0.57771E+00 13440   0.421E+00    0.828E+00
RMM:   3    -0.740455292911E+03   -0.46578E+00   -0.11052E+00 14114   0.183E+00    0.122E+01
RMM:   4    -0.739626143150E+03    0.82915E+00   -0.28006E-01 14484   0.914E-01    0.326E+00
RMM:   5    -0.739618854261E+03    0.72889E-02   -0.77903E-02 13586   0.487E-01    0.359E+00
RMM:   6    -0.739573982506E+03    0.44872E-01   -0.44673E-02 13550   0.367E-01    0.249E+00
RMM:   7    -0.739564541436E+03    0.94411E-02   -0.55910E-02 14266   0.357E-01    0.150E+00
RMM:   8    -0.739552780135E+03    0.11761E-01   -0.20714E-02 13473   0.248E-01    0.907E-01
RMM:   9    -0.739549302091E+03    0.34780E-02   -0.92317E-03 13997   0.164E-01    0.344E-01
RMM:  10    -0.739549345281E+03   -0.43190E-04   -0.27096E-03 14735   0.696E-02    0.279E-01
RMM:  11    -0.739549206545E+03    0.13874E-03   -0.65921E-04 12169   0.406E-02    0.279E-01
RMM:  12    -0.739549068342E+03    0.13820E-03   -0.11299E-03 13010   0.470E-02    0.116E-01
RMM:  13    -0.739549155099E+03   -0.86756E-04   -0.32749E-04 10067   0.267E-02
   5 F= -.73954916E+03 E0= -.73892518E+03  d E =-.106042E+01  mag=     0.0436
 curvature:   2.87 expect dE= 0.178E+02 dE for cont linesearch  0.148E+00
 trial: gam= 0.75576 g(F)=  0.620E+01 g(S)=  0.000E+00 ort = 0.680E+00 (trialstep = 0.579E+00)
 search vector abs. value=  0.124E+02
 bond charge predicted
       N       E                     dE             d eps       ncg     rms          rms(c)
DAV:   1    -0.737347641206E+03    0.22014E+01   -0.85326E+02 13472   0.466E+01    0.124E+01
RMM:   2    -0.752421434088E+03   -0.15074E+02   -0.35611E+01 13445   0.936E+00    0.400E+01
RMM:   3    -0.743432714788E+03    0.89887E+01   -0.61280E+00 13906   0.470E+00    0.218E+01
RMM:   4    -0.740577029524E+03    0.28557E+01   -0.16461E+00 13449   0.243E+00    0.139E+01
RMM:   5    -0.739005228839E+03    0.15718E+01   -0.12109E+00 13786   0.168E+00    0.775E+00
RMM:   6    -0.738824319981E+03    0.18091E+00   -0.75867E-01 14950   0.113E+00    0.584E+00
RMM:   7    -0.738722335447E+03    0.10198E+00   -0.16863E-01 15328   0.533E-01    0.331E+00
RMM:   8    -0.738722963013E+03   -0.62757E-03   -0.11630E-01 13642   0.467E-01    0.400E+00
RMM:   9    -0.738679225535E+03    0.43737E-01   -0.67397E-02 13797   0.459E-01    0.152E+00
RMM:  10    -0.738663043117E+03    0.16182E-01   -0.22787E-02 13477   0.264E-01    0.718E-01
RMM:  11    -0.738661450870E+03    0.15922E-02   -0.88529E-03 15333   0.134E-01    0.350E-01
RMM:  12    -0.738661845619E+03   -0.39475E-03   -0.14367E-03 13662   0.542E-02    0.371E-01
RMM:  13    -0.738661345324E+03    0.50029E-03   -0.39458E-04 10742   0.324E-02    0.242E-01
RMM:  14    -0.738661420560E+03   -0.75236E-04   -0.48114E-04 11164   0.330E-02
   6 F= -.73866142E+03 E0= -.73803914E+03  d E =0.887735E+00  mag=     0.0266
 trial-energy change:    0.887735  1 .order    0.040301   -3.883974    3.964576
 step:   0.2014(harm=  0.2864)  dis= 0.03013  next Energy=  -740.189079 (dE=-0.640E+00)
 bond charge predicted
       N       E                     dE             d eps       ncg     rms          rms(c)
DAV:   1    -0.739409825658E+03   -0.74848E+00   -0.36683E+02 13440   0.303E+01    0.622E+00
RMM:   2    -0.745506368795E+03   -0.60965E+01   -0.83939E+00 13440   0.513E+00    0.288E+01
RMM:   3    -0.740756086847E+03    0.47503E+01   -0.14785E+00 13451   0.235E+00    0.114E+01
RMM:   4    -0.740050214873E+03    0.70587E+00   -0.53142E-01 13579   0.134E+00    0.420E+00
RMM:   5    -0.739989600434E+03    0.60614E-01   -0.14875E-01 13846   0.720E-01    0.339E+00
RMM:   6    -0.739937318388E+03    0.52282E-01   -0.54055E-02 13781   0.401E-01    0.162E+00
RMM:   7    -0.739960255366E+03   -0.22937E-01   -0.55112E-02 13808   0.382E-01    0.221E+00
RMM:   8    -0.739938749942E+03    0.21505E-01   -0.26144E-02 13489   0.312E-01    0.118E+00
RMM:   9    -0.739932116840E+03    0.66331E-02   -0.11500E-02 13806   0.173E-01    0.386E-01
RMM:  10    -0.739931592581E+03    0.52426E-03   -0.29927E-03 14339   0.880E-02    0.309E-01
RMM:  11    -0.739931294232E+03    0.29835E-03   -0.84402E-04 12591   0.436E-02    0.164E-01
RMM:  12    -0.739931231510E+03    0.62723E-04   -0.61858E-04 12309   0.357E-02
   7 F= -.73993123E+03 E0= -.73930874E+03  d E =-.382076E+00  mag=     0.0169
 curvature:  -0.24 expect dE=-0.124E+01 dE for cont linesearch -0.112E-01
 trial: gam= 1.03744 g(F)=  0.514E+01 g(S)=  0.000E+00 ort =-0.758E+00 (trialstep = 0.369E+00)
 search vector abs. value=  0.169E+02
 bond charge predicted
       N       E                     dE             d eps       ncg     rms          rms(c)
DAV:   1    -0.738355735598E+03    0.15756E+01   -0.43800E+02 13472   0.324E+01    0.810E+00
RMM:   2    -0.747676013639E+03   -0.93203E+01   -0.14775E+01 13440   0.625E+00    0.349E+01
RMM:   3    -0.740525337019E+03    0.71507E+01   -0.25075E+00 13730   0.307E+00    0.109E+01
RMM:   4    -0.739670531794E+03    0.85481E+00   -0.80822E-01 13460   0.159E+00    0.960E+00
RMM:   5    -0.739065470543E+03    0.60506E+00   -0.46439E-01 14037   0.105E+00    0.393E+00
RMM:   6    -0.739022080039E+03    0.43391E-01   -0.27766E-01 14550   0.691E-01    0.285E+00
RMM:   7    -0.739010178735E+03    0.11901E-01   -0.58798E-02 13996   0.380E-01    0.195E+00
RMM:   8    -0.739016645711E+03   -0.64670E-02   -0.58950E-02 13895   0.331E-01    0.218E+00
RMM:   9    -0.738997961274E+03    0.18684E-01   -0.19535E-02 13546   0.234E-01    0.836E-01
RMM:  10    -0.738994952901E+03    0.30084E-02   -0.54263E-03 13744   0.131E-01    0.556E-01
RMM:  11    -0.738995031946E+03   -0.79045E-04   -0.25265E-03 14447   0.632E-02    0.518E-01
RMM:  12    -0.738994837201E+03    0.19474E-03   -0.49230E-04 11118   0.330E-02    0.440E-01
RMM:  13    -0.738994386228E+03    0.45097E-03   -0.35750E-04 10324   0.294E-02    0.296E-01
RMM:  14    -0.738994252170E+03    0.13406E-03   -0.41119E-04 10091   0.269E-02    0.223E-01
RMM:  15    -0.738994246801E+03    0.53695E-05   -0.10953E-04  8121   0.192E-02
   8 F= -.73899425E+03 E0= -.73837034E+03  d E =0.936985E+00  mag=     0.0095
 trial-energy change:    0.936985  1 .order    0.397430   -1.606258    2.401118
 step:   0.0920(harm=  0.1478)  dis= 0.01816  next Energy=  -740.123261 (dE=-0.192E+00)
 bond charge predicted
       N       E                     dE             d eps       ncg     rms          rms(c)
DAV:   1    -0.739737542234E+03   -0.74329E+00   -0.24927E+02 13440   0.244E+01    0.488E+00
RMM:   2    -0.744800299827E+03   -0.50628E+01   -0.53661E+00 13440   0.393E+00    0.268E+01
RMM:   3    -0.740377500942E+03    0.44228E+01   -0.91091E-01 13440   0.185E+00    0.657E+00
RMM:   4    -0.740204411399E+03    0.17309E+00   -0.38225E-01 13674   0.106E+00    0.455E+00
RMM:   5    -0.740116615846E+03    0.87796E-01   -0.10044E-01 13864   0.583E-01    0.236E+00
RMM:   6    -0.740099834349E+03    0.16781E-01   -0.38653E-02 13922   0.317E-01    0.161E+00
RMM:   7    -0.740105965393E+03   -0.61310E-02   -0.44350E-02 13917   0.330E-01    0.164E+00
RMM:   8    -0.740091704405E+03    0.14261E-01   -0.13309E-02 13442   0.231E-01    0.590E-01
RMM:   9    -0.740089789341E+03    0.19151E-02   -0.48938E-03 13885   0.108E-01    0.363E-01
RMM:  10    -0.740089924662E+03   -0.13532E-03   -0.12528E-03 13280   0.557E-02    0.375E-01
RMM:  11    -0.740089763929E+03    0.16073E-03   -0.43578E-04 10958   0.337E-02    0.316E-01
RMM:  12    -0.740089402107E+03    0.36182E-03   -0.41501E-04 10955   0.304E-02    0.170E-01
RMM:  13    -0.740089321800E+03    0.80308E-04   -0.15490E-04  8415   0.212E-02
   9 F= -.74008932E+03 E0= -.73946719E+03  d E =-.158090E+00  mag=     0.0058
 curvature:  -0.27 expect dE=-0.990E+00 dE for cont linesearch -0.942E-03
 trial: gam= 0.17989 g(F)=  0.370E+01 g(S)=  0.000E+00 ort = 0.244E+00 (trialstep = 0.313E+00)
 search vector abs. value=  0.433E+01
 bond charge predicted
       N       E                     dE             d eps       ncg     rms          rms(c)
DAV:   1    -0.740014269989E+03    0.75132E-01   -0.81579E+01 13632   0.150E+01    0.225E+00
RMM:   2    -0.740218799459E+03   -0.20453E+00   -0.18502E+00 13440   0.281E+00    0.416E+00
RMM:   3    -0.740217327633E+03    0.14718E-02   -0.33319E-01 14445   0.109E+00    0.214E+00
RMM:   4    -0.740436514772E+03   -0.21919E+00   -0.91528E-02 14169   0.536E-01    0.657E+00
RMM:   5    -0.740227151449E+03    0.20936E+00   -0.27229E-02 13559   0.328E-01    0.284E+00
RMM:   6    -0.740209561633E+03    0.17590E-01   -0.18903E-02 13575   0.232E-01    0.170E+00
RMM:   7    -0.740200381105E+03    0.91805E-02   -0.17105E-02 13783   0.205E-01    0.796E-01
RMM:   8    -0.740199465156E+03    0.91595E-03   -0.48138E-03 13863   0.117E-01    0.657E-01
RMM:   9    -0.740198346580E+03    0.11186E-02   -0.16086E-03 14228   0.619E-02    0.472E-01
RMM:  10    -0.740197761265E+03    0.58532E-03   -0.61169E-04 12073   0.375E-02    0.396E-01
RMM:  11    -0.740197488489E+03    0.27278E-03   -0.93446E-04 13109   0.481E-02    0.278E-01
RMM:  12    -0.740197203069E+03    0.28542E-03   -0.47125E-04 12120   0.367E-02    0.132E-01
RMM:  13    -0.740197196985E+03    0.60846E-05   -0.13694E-04  8151   0.205E-02
  10 F= -.74019720E+03 E0= -.73957438E+03  d E =-.107875E+00  mag=     0.0034
 trial-energy change:   -0.107875  1 .order   -0.292825   -1.172447    0.586798
 step:   0.1594(harm=  0.2088)  dis= 0.01150  next Energy=  -740.363233 (dE=-0.274E+00)
 bond charge predicted
       N       E                     dE             d eps       ncg     rms          rms(c)
DAV:   1    -0.740342437027E+03   -0.14523E+00   -0.19652E+01 13808   0.737E+00    0.115E+00
RMM:   2    -0.740391796126E+03   -0.49359E-01   -0.45261E-01 13440   0.138E+00    0.192E+00
RMM:   3    -0.740388535694E+03    0.32604E-02   -0.79357E-02 14309   0.537E-01    0.877E-01
RMM:   4    -0.740443430455E+03   -0.54895E-01   -0.22347E-02 14012   0.267E-01    0.320E+00
RMM:   5    -0.740391390144E+03    0.52040E-01   -0.63687E-03 13873   0.152E-01    0.119E+00
RMM:   6    -0.740390419359E+03    0.97078E-03   -0.44432E-03 13567   0.109E-01    0.897E-01
RMM:   7    -0.740388041101E+03    0.23783E-02   -0.34538E-03 13615   0.928E-02    0.487E-01
RMM:   8    -0.740387254124E+03    0.78698E-03   -0.11811E-03 12890   0.614E-02    0.295E-01
RMM:   9    -0.740387050980E+03    0.20314E-03   -0.42014E-04 10726   0.345E-02    0.207E-01
RMM:  10    -0.740386992745E+03    0.58235E-04   -0.12858E-04  8191   0.202E-02
  11 F= -.74038699E+03 E0= -.73976457E+03  d E =-.297671E+00  mag=     0.0023
 curvature:  -0.09 expect dE=-0.323E+00 dE for cont linesearch -0.409E-05
 trial: gam= 0.97568 g(F)=  0.344E+01 g(S)=  0.000E+00 ort =-0.137E-01 (trialstep = 0.162E+00)
 search vector abs. value=  0.754E+01
 bond charge predicted
       N       E                     dE             d eps       ncg     rms          rms(c)
DAV:   1    -0.740518512178E+03   -0.13146E+00   -0.29878E+01 13552   0.869E+00    0.158E+00
RMM:   2    -0.740679298447E+03   -0.16079E+00   -0.67993E-01 13440   0.165E+00    0.611E+00
RMM:   3    -0.740606099473E+03    0.73199E-01   -0.14220E-01 15130   0.658E-01    0.341E+00
RMM:   4    -0.740707353501E+03   -0.10125E+00   -0.32891E-02 14063   0.315E-01    0.536E+00
RMM:   5    -0.740604941108E+03    0.10241E+00   -0.17119E-02 13462   0.235E-01    0.310E+00
RMM:   6    -0.740582610761E+03    0.22330E-01   -0.11710E-02 13523   0.165E-01    0.186E+00
RMM:   7    -0.740583747418E+03   -0.11367E-02   -0.83146E-03 13870   0.152E-01    0.172E+00
RMM:   8    -0.740581454623E+03    0.22928E-02   -0.42791E-03 13497   0.114E-01    0.135E+00
RMM:   9    -0.740577360480E+03    0.40941E-02   -0.18506E-03 13065   0.753E-02    0.842E-01
RMM:  10    -0.740576522651E+03    0.83783E-03   -0.74806E-04 12324   0.369E-02    0.652E-01
RMM:  11    -0.740576132588E+03    0.39006E-03   -0.45771E-04 11098   0.323E-02    0.530E-01
RMM:  12    -0.740575807884E+03    0.32470E-03   -0.49693E-04 11296   0.332E-02    0.353E-01
RMM:  13    -0.740575726462E+03    0.81421E-04   -0.10385E-04  8079   0.198E-02
  12 F= -.74057573E+03 E0= -.73995322E+03  d E =-.188734E+00  mag=     0.0013
 trial-energy change:   -0.188734  1 .order   -0.159371   -0.556626    0.237884
 step:   0.1206(harm=  0.1137)  dis= 0.01569  next Energy=  -740.605803 (dE=-0.219E+00)
 bond charge predicted
       N       E                     dE             d eps       ncg     rms          rms(c)
DAV:   1    -0.740605589416E+03   -0.29782E-01   -0.19723E+00 13888   0.224E+00    0.431E-01
RMM:   2    -0.740617635465E+03   -0.12046E-01   -0.45159E-02 13440   0.421E-01    0.162E+00
RMM:   3    -0.740611145866E+03    0.64896E-02   -0.82880E-03 13912   0.174E-01    0.659E-01
RMM:   4    -0.740614951654E+03   -0.38058E-02   -0.28146E-03 14698   0.893E-02    0.110E+00
RMM:   5    -0.740611376478E+03    0.35752E-02   -0.85480E-04 12645   0.547E-02    0.758E-01
RMM:   6    -0.740610079921E+03    0.12966E-02   -0.82068E-04 12666   0.441E-02    0.461E-01
RMM:   7    -0.740609806170E+03    0.27375E-03   -0.52996E-04 11796   0.379E-02    0.333E-01
RMM:   8    -0.740609444029E+03    0.36214E-03   -0.26337E-04  9413   0.299E-02    0.186E-01
RMM:   9    -0.740609425394E+03    0.18634E-04   -0.75136E-05  7900   0.170E-02
  13 F= -.74060943E+03 E0= -.73998682E+03  d E =-.222433E+00  mag=     0.0009
 curvature:  -0.12 expect dE=-0.483E+00 dE for cont linesearch -0.473E-05
 trial: gam= 0.72574 g(F)=  0.395E+01 g(S)=  0.000E+00 ort =-0.171E-01 (trialstep = 0.147E+00)
 search vector abs. value=  0.789E+01
 bond charge predicted
       N       E                     dE             d eps       ncg     rms          rms(c)
DAV:   1    -0.740774499683E+03   -0.16506E+00   -0.24498E+01 13504   0.790E+00    0.130E+00
RMM:   2    -0.740915243315E+03   -0.14074E+00   -0.53827E-01 13440   0.147E+00    0.462E+00
RMM:   3    -0.740835835577E+03    0.79408E-01   -0.10542E-01 14674   0.595E-01    0.166E+00
RMM:   4    -0.740857000657E+03   -0.21165E-01   -0.20852E-02 14233   0.274E-01    0.244E+00
RMM:   5    -0.740839539230E+03    0.17461E-01   -0.93724E-03 13440   0.186E-01    0.189E+00
RMM:   6    -0.740835190407E+03    0.43488E-02   -0.81000E-03 13575   0.151E-01    0.127E+00
RMM:   7    -0.740831189962E+03    0.40004E-02   -0.64314E-03 13886   0.129E-01    0.665E-01
RMM:   8    -0.740829494458E+03    0.16955E-02   -0.31104E-03 13341   0.933E-02    0.461E-01
RMM:   9    -0.740829295366E+03    0.19909E-03   -0.98021E-04 12917   0.507E-02    0.380E-01
RMM:  10    -0.740829089194E+03    0.20617E-03   -0.26138E-04  9379   0.242E-02    0.360E-01
RMM:  11    -0.740828755544E+03    0.33365E-03   -0.65763E-04 11780   0.362E-02    0.258E-01
RMM:  12    -0.740828577235E+03    0.17831E-03   -0.33556E-04 10337   0.287E-02    0.133E-01
RMM:  13    -0.740828523712E+03    0.53523E-04   -0.55898E-05  8019   0.162E-02
  14 F= -.74082852E+03 E0= -.74020598E+03  d E =-.219098E+00  mag=     0.0006
 trial-energy change:   -0.219098  1 .order   -0.223985   -0.578626    0.130656
 step:   0.1191(harm=  0.1200)  dis= 0.01476  next Energy=  -740.841008 (dE=-0.232E+00)
 bond charge predicted
       N       E                     dE             d eps       ncg     rms          rms(c)
DAV:   1    -0.740839981459E+03   -0.11404E-01   -0.89045E-01 14000   0.151E+00    0.263E-01
RMM:   2    -0.740849661898E+03   -0.96804E-02   -0.20276E-02 13440   0.283E-01    0.124E+00
RMM:   3    -0.740842096871E+03    0.75650E-02   -0.36496E-03 13838   0.118E-01    0.321E-01
RMM:   4    -0.740842478067E+03   -0.38120E-03   -0.98745E-04 13652   0.568E-02    0.371E-01
RMM:   5    -0.740842375236E+03    0.10283E-03   -0.33319E-04 10286   0.337E-02    0.371E-01
RMM:   6    -0.740842359944E+03    0.15292E-04   -0.26132E-04  9383   0.299E-02    0.296E-01
RMM:   7    -0.740842146564E+03    0.21338E-03   -0.26145E-04  9162   0.277E-02    0.174E-01
RMM:   8    -0.740841998379E+03    0.14819E-03   -0.13081E-04  7960   0.207E-02    0.823E-02
RMM:   9    -0.740841984391E+03    0.13988E-04   -0.37934E-05  7407   0.131E-02
  15 F= -.74084198E+03 E0= -.74021930E+03  d E =-.232559E+00  mag=     0.0004
 curvature:  -0.12 expect dE=-0.300E+00 dE for cont linesearch -0.485E-04
 trial: gam= 0.38047 g(F)=  0.249E+01 g(S)=  0.000E+00 ort =-0.564E-01 (trialstep = 0.141E+00)
 search vector abs. value=  0.359E+01
 bond charge predicted
       N       E                     dE             d eps       ncg     rms          rms(c)
DAV:   1    -0.740976104163E+03   -0.13411E+00   -0.11266E+01 13536   0.556E+00    0.902E-01
RMM:   2    -0.741013693446E+03   -0.37589E-01   -0.25157E-01 13440   0.994E-01    0.253E+00
RMM:   3    -0.741004494328E+03    0.91991E-02   -0.41023E-02 13803   0.408E-01    0.101E+00
RMM:   4    -0.741048569199E+03   -0.44075E-01   -0.13931E-02 14058   0.203E-01    0.301E+00
RMM:   5    -0.741008968199E+03    0.39601E-01   -0.40705E-03 13456   0.132E-01    0.149E+00
RMM:   6    -0.741002965724E+03    0.60025E-02   -0.29718E-03 13441   0.833E-02    0.909E-01
RMM:   7    -0.741001082842E+03    0.18829E-02   -0.16347E-03 12951   0.704E-02    0.598E-01
RMM:   8    -0.741000743037E+03    0.33980E-03   -0.97140E-04 12748   0.528E-02    0.432E-01
RMM:   9    -0.741000599529E+03    0.14351E-03   -0.32346E-04  9767   0.295E-02    0.368E-01
RMM:  10    -0.741000464361E+03    0.13517E-03   -0.10806E-04  8152   0.188E-02    0.279E-01
RMM:  11    -0.741000316069E+03    0.14829E-03   -0.80930E-05  8121   0.150E-02    0.198E-01
RMM:  12    -0.741000262289E+03    0.53779E-04   -0.64029E-05  7975   0.131E-02
  16 F= -.74100026E+03 E0= -.74037829E+03  d E =-.158278E+00  mag=     0.0002
 trial-energy change:   -0.158278  1 .order   -0.154229   -0.349792    0.041333
 step:   0.1273(harm=  0.1265)  dis= 0.01109  next Energy=  -741.002327 (dE=-0.160E+00)
 bond charge predicted
       N       E                     dE             d eps       ncg     rms          rms(c)
DAV:   1    -0.741002376377E+03   -0.20603E-02   -0.11211E-01 14144   0.554E-01    0.136E-01
RMM:   2    -0.741003241418E+03   -0.86504E-03   -0.27797E-03 13436   0.103E-01    0.425E-01
RMM:   3    -0.741002904864E+03    0.33655E-03   -0.49292E-04 12060   0.485E-02    0.207E-01
RMM:   4    -0.741002836108E+03    0.68757E-04   -0.17206E-04  7919   0.242E-02    0.230E-01
RMM:   5    -0.741002737035E+03    0.99073E-04   -0.48255E-05  7397   0.166E-02    0.171E-01
RMM:   6    -0.741002631871E+03    0.10516E-03   -0.26836E-05  7207   0.841E-03    0.105E-01
RMM:   7    -0.741002599542E+03    0.32329E-04   -0.22161E-05  7064   0.926E-03    0.318E-02
RMM:   8    -0.741002604596E+03   -0.50540E-05   -0.10144E-05  6629   0.617E-03
  17 F= -.74100260E+03 E0= -.74038063E+03  d E =-.160620E+00  mag=     0.0002
 curvature:  -0.09 expect dE=-0.133E+00 dE for cont linesearch -0.420E-04
 trial: gam= 0.54498 g(F)=  0.145E+01 g(S)=  0.000E+00 ort =-0.406E-01 (trialstep = 0.139E+00)
 search vector abs. value=  0.247E+01
 bond charge predicted
       N       E                     dE             d eps       ncg     rms          rms(c)
DAV:   1    -0.741109865527E+03   -0.10727E+00   -0.55232E+00 13504   0.387E+00    0.642E-01
RMM:   2    -0.741126166619E+03   -0.16301E-01   -0.12542E-01 13440   0.716E-01    0.151E+00
RMM:   3    -0.741122864174E+03    0.33024E-02   -0.21309E-02 14180   0.282E-01    0.643E-01
RMM:   4    -0.741123434075E+03   -0.56990E-03   -0.54797E-03 14499   0.131E-01    0.739E-01
RMM:   5    -0.741125399143E+03   -0.19651E-02   -0.20585E-03 13440   0.782E-02    0.735E-01
RMM:   6    -0.741125112720E+03    0.28642E-03   -0.99792E-04 12598   0.521E-02    0.794E-01
RMM:   7    -0.741122609473E+03    0.25032E-02   -0.73430E-04 12669   0.477E-02    0.297E-01
RMM:   8    -0.741122447870E+03    0.16160E-03   -0.32003E-04  9972   0.306E-02    0.234E-01
RMM:   9    -0.741122390330E+03    0.57540E-04   -0.10007E-04  8130   0.195E-02
  18 F= -.74112239E+03 E0= -.74050162E+03  d E =-.119786E+00  mag=     0.0001
 trial-energy change:   -0.119786  1 .order   -0.120185   -0.197814   -0.042555
 step:   0.1767(harm=  0.1767)  dis= 0.01574  next Energy=  -741.128621 (dE=-0.126E+00)
 bond charge predicted
       N       E                     dE             d eps       ncg     rms          rms(c)
DAV:   1    -0.741127295046E+03   -0.48472E-02   -0.41536E-01 14096   0.106E+00    0.216E-01
RMM:   2    -0.741128555884E+03   -0.12608E-02   -0.96126E-03 13440   0.198E-01    0.352E-01
RMM:   3    -0.741128379569E+03    0.17632E-03   -0.18106E-03 14162   0.773E-02    0.180E-01
RMM:   4    -0.741129589478E+03   -0.12099E-02   -0.50287E-04 12196   0.396E-02    0.468E-01
RMM:   5    -0.741128635108E+03    0.95437E-03   -0.23302E-04  8684   0.297E-02    0.244E-01
RMM:   6    -0.741128380396E+03    0.25471E-03   -0.13739E-04  8022   0.244E-02    0.135E-01
RMM:   7    -0.741128374820E+03    0.55760E-05   -0.70014E-05  7889   0.154E-02    0.646E-02
RMM:   8    -0.741128371370E+03    0.34498E-05   -0.27326E-05  7582   0.106E-02
  19 F= -.74112837E+03 E0= -.74050788E+03  d E =-.125767E+00  mag=     0.0001
 curvature:  -0.15 expect dE=-0.271E+00 dE for cont linesearch -0.315E-07
 trial: gam= 1.05068 g(F)=  0.177E+01 g(S)=  0.000E+00 ort = 0.713E-03 (trialstep = 0.803E-01)
 search vector abs. value=  0.450E+01
 bond charge predicted
       N       E                     dE             d eps       ncg     rms          rms(c)
DAV:   1    -0.741200023655E+03   -0.71649E-01   -0.37288E+00 13536   0.321E+00    0.478E-01
RMM:   2    -0.741215411422E+03   -0.15388E-01   -0.80292E-02 13440   0.569E-01    0.128E+00
RMM:   3    -0.741209415747E+03    0.59957E-02   -0.14707E-02 14473   0.226E-01    0.596E-01
RMM:   4    -0.741209040392E+03    0.37535E-03   -0.29646E-03 14249   0.104E-01    0.455E-01
RMM:   5    -0.741209600228E+03   -0.55984E-03   -0.14879E-03 13314   0.698E-02    0.638E-01
RMM:   6    -0.741208504159E+03    0.10961E-02   -0.63384E-04 12463   0.482E-02    0.322E-01
RMM:   7    -0.741208535070E+03   -0.30911E-04   -0.63143E-04 12206   0.410E-02    0.215E-01
RMM:   8    -0.741208254090E+03    0.28098E-03   -0.28837E-04  9655   0.305E-02    0.948E-02
RMM:   9    -0.741208232199E+03    0.21891E-04   -0.76111E-05  8032   0.173E-02
  20 F= -.74120823E+03 E0= -.74058877E+03  d E =-.798608E-01  mag=     0.0001
 trial-energy change:   -0.079861  1 .order   -0.078865   -0.142336   -0.015394
 step:   0.0896(harm=  0.0900)  dis= 0.00977  next Energy=  -741.209121 (dE=-0.807E-01)
 bond charge predicted
       N       E                     dE             d eps       ncg     rms          rms(c)
DAV:   1    -0.741208748573E+03   -0.49448E-03   -0.49559E-02 13984   0.370E-01    0.879E-02
RMM:   2    -0.741209521925E+03   -0.77335E-03   -0.12892E-03 13370   0.709E-02    0.315E-01
RMM:   3    -0.741208924369E+03    0.59756E-03   -0.26867E-04  8672   0.318E-02    0.131E-01
RMM:   4    -0.741208887834E+03    0.36535E-04   -0.87811E-05  7798   0.204E-02    0.986E-02
RMM:   5    -0.741208873085E+03    0.14749E-04   -0.21520E-05  7599   0.952E-03    0.728E-02
RMM:   6    -0.741208932846E+03   -0.59761E-04   -0.16854E-05  7153   0.654E-03    0.956E-02
RMM:   7    -0.741208864572E+03    0.68275E-04   -0.10568E-05  6820   0.592E-03    0.384E-02
RMM:   8    -0.741208868833E+03   -0.42612E-05   -0.50156E-06  5953   0.478E-03
  21 F= -.74120887E+03 E0= -.74058945E+03  d E =-.804975E-01  mag=     0.0001
 curvature:  -0.11 expect dE=-0.113E+00 dE for cont linesearch -0.682E-04
 trial: gam= 0.43157 g(F)=  0.994E+00 g(S)=  0.000E+00 ort =-0.519E-01 (trialstep = 0.822E-01)
 search vector abs. value=  0.179E+01
 bond charge predicted
       N       E                     dE             d eps       ncg     rms          rms(c)
DAV:   1    -0.741257385248E+03   -0.48521E-01   -0.14983E+00 13568   0.204E+00    0.278E-01
RMM:   2    -0.741260908295E+03   -0.35230E-02   -0.31591E-02 13440   0.359E-01    0.515E-01
RMM:   3    -0.741261002802E+03   -0.94506E-04   -0.56229E-03 14728   0.140E-01    0.317E-01
RMM:   4    -0.741263641578E+03   -0.26388E-02   -0.11816E-03 13848   0.649E-02    0.702E-01
RMM:   5    -0.741261133058E+03    0.25085E-02   -0.41598E-04 11676   0.404E-02    0.336E-01
RMM:   6    -0.741260994530E+03    0.13853E-03   -0.25669E-04  9024   0.300E-02    0.245E-01
RMM:   7    -0.741261029294E+03   -0.34764E-04   -0.25822E-04  9065   0.290E-02    0.166E-01
RMM:   8    -0.741260994526E+03    0.34768E-04   -0.11530E-04  8018   0.216E-02
  22 F= -.74126099E+03 E0= -.74064197E+03  d E =-.521257E-01  mag=     0.0000
 trial-energy change:   -0.052126  1 .order   -0.051481   -0.079804   -0.023158
 step:   0.1129(harm=  0.1157)  dis= 0.00661  next Energy=  -741.265356 (dE=-0.565E-01)
 bond charge predicted
       N       E                     dE             d eps       ncg     rms          rms(c)
DAV:   1    -0.741265056566E+03   -0.40273E-02   -0.20901E-01 13888   0.765E-01    0.186E-01
RMM:   2    -0.741265741267E+03   -0.68470E-03   -0.48160E-03 13440   0.139E-01    0.238E-01
RMM:   3    -0.741266301618E+03   -0.56035E-03   -0.90963E-04 13338   0.585E-02    0.360E-01
RMM:   4    -0.741265689113E+03    0.61250E-03   -0.27688E-04  8864   0.318E-02    0.194E-01
RMM:   5    -0.741265598429E+03    0.90684E-04   -0.10421E-04  7922   0.233E-02    0.746E-02
RMM:   6    -0.741265724143E+03   -0.12571E-03   -0.91719E-05  7917   0.162E-02    0.139E-01
RMM:   7    -0.741265613488E+03    0.11066E-03   -0.65594E-05  7808   0.177E-02    0.529E-02
RMM:   8    -0.741265604740E+03    0.87477E-05   -0.12598E-05  7103   0.703E-03
  23 F= -.74126560E+03 E0= -.74064666E+03  d E =-.567359E-01  mag=     0.0000
 curvature:  -0.11 expect dE=-0.658E-01 dE for cont linesearch -0.340E-04
 trial: gam= 0.36186 g(F)=  0.622E+00 g(S)=  0.000E+00 ort = 0.240E-01 (trialstep = 0.883E-01)
 search vector abs. value=  0.874E+00
 bond charge predicted
       N       E                     dE             d eps       ncg     rms          rms(c)
DAV:   1    -0.741297725244E+03   -0.32112E-01   -0.10880E+00 13680   0.172E+00    0.253E-01
RMM:   2    -0.741300555655E+03   -0.28304E-02   -0.23964E-02 13440   0.317E-01    0.425E-01
RMM:   3    -0.741300834934E+03   -0.27928E-03   -0.45539E-03 14730   0.124E-01    0.327E-01
RMM:   4    -0.741300875542E+03   -0.40608E-04   -0.91921E-04 13652   0.568E-02    0.317E-01
RMM:   5    -0.741300545602E+03    0.32994E-03   -0.37856E-04 11126   0.371E-02    0.256E-01
RMM:   6    -0.741300418256E+03    0.12735E-03   -0.22610E-04  8741   0.295E-02    0.130E-01
RMM:   7    -0.741300399467E+03    0.18788E-04   -0.17039E-04  8254   0.228E-02    0.932E-02
RMM:   8    -0.741300375139E+03    0.24329E-04   -0.68727E-05  7938   0.171E-02
  24 F= -.74130038E+03 E0= -.74068124E+03  d E =-.347704E-01  mag=     0.0000
 trial-energy change:   -0.034770  1 .order   -0.034946   -0.055723   -0.014169
 step:   0.1184(harm=  0.1184)  dis= 0.00440  next Energy=  -741.302966 (dE=-0.374E-01)
 bond charge predicted
       N       E                     dE             d eps       ncg     rms          rms(c)
DAV:   1    -0.741302540196E+03   -0.21407E-02   -0.12590E-01 13888   0.584E-01    0.115E-01
RMM:   2    -0.741303779539E+03   -0.12393E-02   -0.29896E-03 13440   0.111E-01    0.395E-01
RMM:   3    -0.741302868928E+03    0.91061E-03   -0.55139E-04 12919   0.460E-02    0.118E-01
RMM:   4    -0.741302862446E+03    0.64818E-05   -0.15207E-04  7996   0.232E-02    0.715E-02
RMM:   5    -0.741302877233E+03   -0.14788E-04   -0.57347E-05  7846   0.172E-02    0.777E-02
RMM:   6    -0.741302877321E+03   -0.87930E-07   -0.37357E-05  7706   0.109E-02    0.599E-02
RMM:   7    -0.741302861540E+03    0.15781E-04   -0.18103E-05  7065   0.874E-03    0.230E-02
RMM:   8    -0.741302860522E+03    0.10182E-05   -0.53724E-06  6236   0.479E-03
  25 F= -.74130286E+03 E0= -.74068366E+03  d E =-.372558E-01  mag=     0.0000
 curvature:  -0.08 expect dE=-0.347E-01 dE for cont linesearch -0.283E-05
 trial: gam= 0.66135 g(F)=  0.423E+00 g(S)=  0.000E+00 ort = 0.550E-02 (trialstep = 0.943E-01)
 search vector abs. value=  0.813E+00
 bond charge predicted
       N       E                     dE             d eps       ncg     rms          rms(c)
DAV:   1    -0.741323648592E+03   -0.20787E-01   -0.10193E+00 13536   0.162E+00    0.264E-01
RMM:   2    -0.741330621732E+03   -0.69731E-02   -0.22022E-02 13440   0.295E-01    0.100E+00
RMM:   3    -0.741326052845E+03    0.45689E-02   -0.41260E-03 14300   0.121E-01    0.326E-01
RMM:   4    -0.741326433118E+03   -0.38027E-03   -0.10314E-03 13815   0.580E-02    0.363E-01
RMM:   5    -0.741326223928E+03    0.20919E-03   -0.34473E-04 10652   0.344E-02    0.336E-01
RMM:   6    -0.741326088223E+03    0.13571E-03   -0.23555E-04  8667   0.298E-02    0.256E-01
RMM:   7    -0.741325968858E+03    0.11936E-03   -0.26304E-04  9160   0.285E-02    0.136E-01
RMM:   8    -0.741325844037E+03    0.12482E-03   -0.14809E-04  8168   0.220E-02    0.565E-02
RMM:   9    -0.741325849571E+03   -0.55345E-05   -0.30727E-05  7798   0.121E-02
  26 F= -.74132585E+03 E0= -.74070671E+03  d E =-.229890E-01  mag=     0.0000
 trial-energy change:   -0.022989  1 .order   -0.021407   -0.040251   -0.002563
 step:   0.0994(harm=  0.1007)  dis= 0.00415  next Energy=  -741.325919 (dE=-0.231E-01)
 bond charge predicted
       N       E                     dE             d eps       ncg     rms          rms(c)
DAV:   1    -0.741325912785E+03   -0.68748E-04   -0.29406E-03 13920   0.875E-02    0.374E-02
RMM:   2    -0.741325971081E+03   -0.58295E-04   -0.10342E-04  7645   0.187E-02    0.953E-02
RMM:   3    -0.741325961638E+03    0.94430E-05   -0.30862E-05  7256   0.122E-02    0.896E-02
RMM:   4    -0.741325921161E+03    0.40477E-04   -0.12406E-05  6923   0.659E-03    0.458E-02
RMM:   5    -0.741325919132E+03    0.20291E-05   -0.39969E-06  5912   0.464E-03    0.231E-02
RMM:   6    -0.741325920619E+03   -0.14870E-05   -0.15268E-06  3092   0.306E-03    0.257E-02
RMM:   7    -0.741325918854E+03    0.17647E-05   -0.32689E-07  2448   0.289E-03    0.158E-02
RMM:   8    -0.741325917679E+03    0.11756E-05   -0.40668E-08  1688   0.270E-03
  27 F= -.74132592E+03 E0= -.74070674E+03  d E =-.230572E-01  mag=     0.0000
 curvature:  -0.09 expect dE=-0.211E-01 dE for cont linesearch -0.740E-06
 trial: gam= 0.34991 g(F)=  0.230E+00 g(S)=  0.000E+00 ort = 0.256E-02 (trialstep = 0.953E-01)
 search vector abs. value=  0.331E+00
 bond charge predicted
       N       E                     dE             d eps       ncg     rms          rms(c)
DAV:   1    -0.741338608395E+03   -0.12690E-01   -0.39109E-01 13760   0.101E+00    0.180E-01
RMM:   2    -0.741340030496E+03   -0.14221E-02   -0.84287E-03 13442   0.180E-01    0.439E-01
RMM:   3    -0.741339490125E+03    0.54037E-03   -0.15487E-03 14376   0.738E-02    0.163E-01
RMM:   4    -0.741340547592E+03   -0.10575E-02   -0.47061E-04 12274   0.383E-02    0.460E-01
RMM:   5    -0.741339682043E+03    0.86555E-03   -0.18292E-04  8310   0.271E-02    0.280E-01
RMM:   6    -0.741339409372E+03    0.27267E-03   -0.92996E-05  7913   0.194E-02    0.136E-01
RMM:   7    -0.741339372487E+03    0.36885E-04   -0.71244E-05  7762   0.158E-02    0.101E-01
RMM:   8    -0.741339354691E+03    0.17796E-04   -0.40230E-05  7600   0.128E-02
  28 F= -.74133935E+03 E0= -.74072032E+03  d E =-.134370E-01  mag=     0.0000
 trial-energy change:   -0.013437  1 .order   -0.013257   -0.022013   -0.004501
 step:   0.1198(harm=  0.1198)  dis= 0.00208  next Energy=  -741.339753 (dE=-0.138E-01)
 bond charge predicted
       N       E                     dE             d eps       ncg     rms          rms(c)
DAV:   1    -0.741339798662E+03   -0.42617E-03   -0.25711E-02 13968   0.261E-01    0.594E-02
RMM:   2    -0.741340018256E+03   -0.21959E-03   -0.59567E-04 12444   0.476E-02    0.150E-01
RMM:   3    -0.741339985450E+03    0.32806E-04   -0.13117E-04  7698   0.223E-02    0.167E-01
RMM:   4    -0.741339903900E+03    0.81550E-04   -0.34769E-05  7407   0.141E-02    0.991E-02
RMM:   5    -0.741339873901E+03    0.29999E-04   -0.10209E-05  7016   0.635E-03    0.753E-02
RMM:   6    -0.741339861053E+03    0.12848E-04   -0.84389E-06  6528   0.555E-03    0.360E-02
RMM:   7    -0.741339860715E+03    0.33798E-06   -0.57283E-06  6125   0.496E-03    0.330E-02
RMM:   8    -0.741339858555E+03    0.21599E-05   -0.17723E-06  4434   0.369E-03
  29 F= -.74133986E+03 E0= -.74072086E+03  d E =-.139409E-01  mag=     0.0000
 curvature:  -0.09 expect dE=-0.144E-01 dE for cont linesearch -0.904E-05
 trial: gam= 0.67361 g(F)=  0.167E+00 g(S)=  0.000E+00 ort =-0.590E-02 (trialstep = 0.100E+00)
 search vector abs. value=  0.310E+00
 bond charge predicted
       N       E                     dE             d eps       ncg     rms          rms(c)
DAV:   1    -0.741351178314E+03   -0.11318E-01   -0.30656E-01 13696   0.854E-01    0.141E-01
RMM:   2    -0.741352019604E+03   -0.84129E-03   -0.61561E-03 13440   0.161E-01    0.322E-01
RMM:   3    -0.741351873893E+03    0.14571E-03   -0.13501E-03 14113   0.640E-02    0.174E-01
RMM:   4    -0.741352625554E+03   -0.75166E-03   -0.28527E-04  8819   0.314E-02    0.388E-01
RMM:   5    -0.741351989944E+03    0.63561E-03   -0.14144E-04  7966   0.259E-02    0.219E-01
RMM:   6    -0.741351871491E+03    0.11845E-03   -0.96974E-05  7920   0.182E-02    0.141E-01
RMM:   7    -0.741351828497E+03    0.42994E-04   -0.66362E-05  7850   0.150E-02    0.683E-02
RMM:   8    -0.741351833481E+03   -0.49836E-05   -0.31954E-05  7600   0.114E-02
  30 F= -.74135183E+03 E0= -.74073289E+03  d E =-.119749E-01  mag=     0.0000
 trial-energy change:   -0.011975  1 .order   -0.011902   -0.016366   -0.007439
 step:   0.1838(harm=  0.1838)  dis= 0.00428  next Energy=  -741.354860 (dE=-0.150E-01)
 bond charge predicted
       N       E                     dE             d eps       ncg     rms          rms(c)
DAV:   1    -0.741353666756E+03   -0.18383E-02   -0.21289E-01 13808   0.713E-01    0.135E-01
RMM:   2    -0.741354204904E+03   -0.53815E-03   -0.43345E-03 13440   0.135E-01    0.240E-01
RMM:   3    -0.741354155978E+03    0.48925E-04   -0.95863E-04 13233   0.537E-02    0.135E-01
RMM:   4    -0.741354910918E+03   -0.75494E-03   -0.22283E-04  8234   0.277E-02    0.366E-01
RMM:   5    -0.741354356186E+03    0.55473E-03   -0.12720E-04  7956   0.247E-02    0.223E-01
RMM:   6    -0.741354182237E+03    0.17395E-03   -0.64011E-05  7866   0.160E-02    0.122E-01
RMM:   7    -0.741354158267E+03    0.23970E-04   -0.45333E-05  7771   0.117E-02    0.626E-02
RMM:   8    -0.741354160865E+03   -0.25984E-05   -0.23209E-05  7482   0.100E-02
  31 F= -.74135416E+03 E0= -.74073527E+03  d E =-.143023E-01  mag=     0.0000
 curvature:  -0.17 expect dE=-0.326E-01 dE for cont linesearch -0.165E-03
 trial: gam= 1.11888 g(F)=  0.187E+00 g(S)=  0.000E+00 ort =-0.171E-01 (trialstep = 0.675E-01)
 search vector abs. value=  0.536E+00
 bond charge predicted
       N       E                     dE             d eps       ncg     rms          rms(c)
DAV:   1    -0.741362094738E+03   -0.79365E-02   -0.22831E-01 13520   0.658E-01    0.133E-01
RMM:   2    -0.741362966644E+03   -0.87191E-03   -0.40159E-03 13440   0.128E-01    0.310E-01
RMM:   3    -0.741362851788E+03    0.11486E-03   -0.11417E-03 13777   0.548E-02    0.245E-01
RMM:   4    -0.741362541001E+03    0.31079E-03   -0.19100E-04  8228   0.263E-02    0.116E-01
RMM:   5    -0.741362511555E+03    0.29446E-04   -0.87971E-05  7950   0.206E-02    0.842E-02
RMM:   6    -0.741362520119E+03   -0.85637E-05   -0.74407E-05  7821   0.154E-02    0.840E-02
RMM:   7    -0.741362494926E+03    0.25192E-04   -0.42977E-05  7626   0.129E-02    0.354E-02
RMM:   8    -0.741362496065E+03   -0.11386E-05   -0.20543E-05  7152   0.817E-03
  32 F= -.74136250E+03 E0= -.74074375E+03  d E =-.833520E-02  mag=     0.0000
 trial-energy change:   -0.008335  1 .order   -0.008225   -0.011340   -0.005110
 step:   0.1228(harm=  0.1228)  dis= 0.00365  next Energy=  -741.364481 (dE=-0.103E-01)
 bond charge predicted
       N       E                     dE             d eps       ncg     rms          rms(c)
DAV:   1    -0.741364334664E+03   -0.18397E-02   -0.15355E-01 14032   0.539E-01    0.110E-01
RMM:   2    -0.741364833280E+03   -0.49862E-03   -0.26706E-03 13440   0.105E-01    0.217E-01
RMM:   3    -0.741364864836E+03   -0.31556E-04   -0.74660E-04 12653   0.442E-02    0.204E-01
RMM:   4    -0.741364636982E+03    0.22785E-03   -0.12430E-04  8002   0.223E-02    0.915E-02
RMM:   5    -0.741364632889E+03    0.40928E-05   -0.62572E-05  7908   0.170E-02    0.829E-02
RMM:   6    -0.741364619082E+03    0.13807E-04   -0.50912E-05  7696   0.131E-02    0.581E-02
RMM:   7    -0.741364616692E+03    0.23900E-05   -0.26363E-05  7478   0.989E-03    0.429E-02
RMM:   8    -0.741364609852E+03    0.68399E-05   -0.10194E-05  6537   0.647E-03
  33 F= -.74136461E+03 E0= -.74074599E+03  d E =-.104490E-01  mag=     0.0000
 curvature:  -0.20 expect dE=-0.287E-01 dE for cont linesearch -0.128E-05
 trial: gam= 0.47870 g(F)=  0.146E+00 g(S)=  0.000E+00 ort =-0.187E-02 (trialstep = 0.786E-01)
 search vector abs. value=  0.268E+00
 bond charge predicted
       N       E                     dE             d eps       ncg     rms          rms(c)
DAV:   1    -0.741372323269E+03   -0.77066E-02   -0.28125E-01 13792   0.755E-01    0.149E-01
RMM:   2    -0.741373044248E+03   -0.72098E-03   -0.57247E-03 13440   0.154E-01    0.308E-01
RMM:   3    -0.741372909961E+03    0.13429E-03   -0.13426E-03 14024   0.635E-02    0.144E-01
RMM:   4    -0.741373359463E+03   -0.44950E-03   -0.28105E-04  9026   0.293E-02    0.299E-01
RMM:   5    -0.741372851426E+03    0.50804E-03   -0.11789E-04  7990   0.228E-02    0.139E-01
RMM:   6    -0.741372839236E+03    0.12190E-04   -0.12154E-04  7948   0.189E-02    0.735E-02
RMM:   7    -0.741372830614E+03    0.86224E-05   -0.60950E-05  7740   0.142E-02    0.484E-02
RMM:   8    -0.741372832609E+03   -0.19952E-05   -0.23855E-05  7474   0.103E-02
  34 F= -.74137283E+03 E0= -.74075424E+03  d E =-.822276E-02  mag=     0.0000
 trial-energy change:   -0.008223  1 .order   -0.007993   -0.011434   -0.004553
 step:   0.1305(harm=  0.1305)  dis= 0.00349  next Energy=  -741.374109 (dE=-0.950E-02)
 bond charge predicted
       N       E                     dE             d eps       ncg     rms          rms(c)
DAV:   1    -0.741373862249E+03   -0.10316E-02   -0.12286E-01 13920   0.500E-01    0.102E-01
RMM:   2    -0.741374139570E+03   -0.27732E-03   -0.25394E-03 13440   0.103E-01    0.178E-01
RMM:   3    -0.741374103375E+03    0.36195E-04   -0.59459E-04 12219   0.417E-02    0.757E-02
RMM:   4    -0.741374146135E+03   -0.42760E-04   -0.10503E-04  8002   0.208E-02    0.126E-01
RMM:   5    -0.741374284585E+03   -0.13845E-03   -0.51875E-05  7890   0.145E-02    0.181E-01
RMM:   6    -0.741374105540E+03    0.17905E-03   -0.41869E-05  7669   0.117E-02    0.599E-02
RMM:   7    -0.741374107042E+03   -0.15020E-05   -0.23482E-05  7367   0.911E-03    0.398E-02
RMM:   8    -0.741374101488E+03    0.55539E-05   -0.12094E-05  6603   0.679E-03
  35 F= -.74137410E+03 E0= -.74075563E+03  d E =-.949164E-02  mag=     0.0000
 curvature:  -0.12 expect dE=-0.100E-01 dE for cont linesearch -0.344E-04
 trial: gam= 0.57092 g(F)=  0.833E-01 g(S)=  0.000E+00 ort =-0.875E-02 (trialstep = 0.890E-01)
 search vector abs. value=  0.161E+00
 bond charge predicted
       N       E                     dE             d eps       ncg     rms          rms(c)
DAV:   1    -0.741377838441E+03   -0.37314E-02   -0.22336E-01 13824   0.641E-01    0.129E-01
RMM:   2    -0.741378920071E+03   -0.10816E-02   -0.43065E-03 13440   0.132E-01    0.369E-01
RMM:   3    -0.741378407994E+03    0.51208E-03   -0.11915E-03 13881   0.563E-02    0.172E-01
RMM:   4    -0.741378304711E+03    0.10328E-03   -0.18202E-04  8118   0.265E-02    0.140E-01
RMM:   5    -0.741378258456E+03    0.46254E-04   -0.88028E-05  7942   0.204E-02    0.112E-01
RMM:   6    -0.741378228119E+03    0.30337E-04   -0.86807E-05  7896   0.160E-02    0.708E-02
RMM:   7    -0.741378215010E+03    0.13109E-04   -0.43724E-05  7626   0.130E-02    0.402E-02
RMM:   8    -0.741378213151E+03    0.18589E-05   -0.19427E-05  7165   0.852E-03
  36 F= -.74137821E+03 E0= -.74075975E+03  d E =-.411166E-02  mag=     0.0000
 trial-energy change:   -0.004112  1 .order   -0.004137   -0.006969   -0.001304
 step:   0.1094(harm=  0.1094)  dis= 0.00285  next Energy=  -741.378389 (dE=-0.429E-02)
 bond charge predicted
       N       E                     dE             d eps       ncg     rms          rms(c)
DAV:   1    -0.741378333704E+03   -0.11869E-03   -0.11764E-02 14112   0.148E-01    0.335E-02
RMM:   2    -0.741378358515E+03   -0.24812E-04   -0.25344E-04  8342   0.312E-02    0.411E-02
RMM:   3    -0.741378365846E+03   -0.73307E-05   -0.47071E-05  7322   0.159E-02    0.425E-02
RMM:   4    -0.741378375177E+03   -0.93313E-05   -0.14757E-05  7154   0.756E-03    0.572E-02
RMM:   5    -0.741378359154E+03    0.16023E-04   -0.54540E-06  6210   0.503E-03    0.221E-02
RMM:   6    -0.741378359782E+03   -0.62806E-06   -0.21610E-06  4196   0.348E-03    0.160E-02
RMM:   7    -0.741378359317E+03    0.46469E-06   -0.92748E-07  3361   0.318E-03    0.114E-02
RMM:   8    -0.741378359705E+03   -0.38738E-06   -0.15036E-07  1886   0.285E-03
  37 F= -.74137836E+03 E0= -.74075988E+03  d E =-.425822E-02  mag=     0.0000
 curvature:  -0.11 expect dE=-0.341E-02 dE for cont linesearch -0.309E-06
 trial: gam= 0.15438 g(F)=  0.304E-01 g(S)=  0.000E+00 ort =-0.665E-03 (trialstep = 0.931E-01)
 search vector abs. value=  0.340E-01
 bond charge predicted
       N       E                     dE             d eps       ncg     rms          rms(c)
DAV:   1    -0.741379832129E+03   -0.14728E-02   -0.60461E-02 13984   0.381E-01    0.637E-02
RMM:   2    -0.741379978726E+03   -0.14660E-03   -0.12804E-03 13438   0.734E-02    0.109E-01
RMM:   3    -0.741379983783E+03   -0.50574E-05   -0.25857E-04  8469   0.294E-02    0.718E-02
RMM:   4    -0.741380057924E+03   -0.74141E-04   -0.67745E-05  7602   0.190E-02    0.137E-01
RMM:   5    -0.741379972154E+03    0.85770E-04   -0.20871E-05  7336   0.942E-03    0.576E-02
RMM:   6    -0.741379971370E+03    0.78374E-06   -0.16499E-05  6961   0.730E-03    0.530E-02
RMM:   7    -0.741379967539E+03    0.38310E-05   -0.11045E-05  6374   0.678E-03    0.280E-02
RMM:   8    -0.741379967441E+03    0.98124E-07   -0.62378E-06  6598   0.467E-03
  38 F= -.74137997E+03 E0= -.74076154E+03  d E =-.160774E-02  mag=     0.0000
 trial-energy change:   -0.001608  1 .order   -0.001584   -0.002816   -0.000351
 step:   0.1063(harm=  0.1063)  dis= 0.00168  next Energy=  -741.379968 (dE=-0.161E-02)
 bond charge predicted
       N       E                     dE             d eps       ncg     rms          rms(c)
DAV:   1    -0.741379990117E+03   -0.22578E-04   -0.12202E-03 13248   0.545E-02    0.243E-02
RMM:   2    -0.741380098848E+03   -0.10873E-03   -0.43164E-05  7200   0.125E-02    0.126E-01
RMM:   3    -0.741379996441E+03    0.10241E-03   -0.16304E-05  7204   0.899E-03    0.460E-02
RMM:   4    -0.741379996577E+03   -0.13529E-06   -0.40823E-06  5864   0.426E-03    0.283E-02
RMM:   5    -0.741379992653E+03    0.39233E-05   -0.28382E-07  2570   0.273E-03    0.161E-02
RMM:   6    -0.741379993471E+03   -0.81774E-06   -0.20021E-07  2019   0.266E-03    0.146E-02
RMM:   7    -0.741379993080E+03    0.39088E-06   -0.73523E-08  1773   0.256E-03    0.982E-03
RMM:   8    -0.741379992864E+03    0.21599E-06    0.00000E+00  1251   0.246E-03
  39 F= -.74137999E+03 E0= -.74076160E+03  d E =-.163316E-02  mag=     0.0000
 curvature:  -0.06 expect dE=-0.700E-03 dE for cont linesearch -0.605E-07
 trial: gam= 0.36987 g(F)=  0.117E-01 g(S)=  0.000E+00 ort = 0.186E-03 (trialstep = 0.957E-01)
 search vector abs. value=  0.165E-01
 bond charge predicted
       N       E                     dE             d eps       ncg     rms          rms(c)
DAV:   1    -0.741380720273E+03   -0.72719E-03   -0.23766E-02 13952   0.216E-01    0.436E-02
RMM:   2    -0.741380770784E+03   -0.50511E-04   -0.45290E-04 12079   0.441E-02    0.714E-02
RMM:   3    -0.741380765779E+03    0.50044E-05   -0.97364E-05  7322   0.188E-02    0.416E-02
RMM:   4    -0.741380809786E+03   -0.44007E-04   -0.30879E-05  7222   0.125E-02    0.976E-02
RMM:   5    -0.741380759596E+03    0.50191E-04   -0.94573E-06  6920   0.638E-03    0.335E-02
RMM:   6    -0.741380758735E+03    0.86091E-06   -0.83131E-06  6536   0.488E-03    0.189E-02
RMM:   7    -0.741380760578E+03   -0.18438E-05   -0.34372E-06  5317   0.403E-03    0.177E-02
RMM:   8    -0.741380760502E+03    0.76361E-07   -0.13021E-06  3539   0.309E-03
  40 F= -.74138076E+03 E0= -.74076238E+03  d E =-.767638E-03  mag=     0.0000
 trial-energy change:   -0.000768  1 .order   -0.000770   -0.001129   -0.000411
 step:   0.1505(harm=  0.1505)  dis= 0.00116  next Energy=  -741.380880 (dE=-0.887E-03)
 bond charge predicted
       N       E                     dE             d eps       ncg     rms          rms(c)
DAV:   1    -0.741380853132E+03   -0.92553E-04   -0.77474E-03 14144   0.124E-01    0.261E-02
RMM:   2    -0.741380873112E+03   -0.19980E-04   -0.15364E-04  7343   0.254E-02    0.399E-02
RMM:   3    -0.741380892571E+03   -0.19460E-04   -0.30427E-05  7178   0.125E-02    0.706E-02
RMM:   4    -0.741380866872E+03    0.25699E-04   -0.82455E-06  6958   0.625E-03    0.265E-02
RMM:   5    -0.741380866690E+03    0.18252E-06   -0.32589E-06  5882   0.393E-03    0.205E-02
RMM:   6    -0.741380868070E+03   -0.13801E-05   -0.19011E-06  4127   0.350E-03    0.161E-02
RMM:   7    -0.741380867734E+03    0.33550E-06   -0.12556E-06  3645   0.328E-03    0.965E-03
RMM:   8    -0.741380867858E+03   -0.12334E-06   -0.14349E-07  1784   0.287E-03
  41 F= -.74138087E+03 E0= -.74076251E+03  d E =-.874994E-03  mag=     0.0000
 curvature:  -0.11 expect dE=-0.104E-02 dE for cont linesearch -0.766E-06
 trial: gam= 0.88589 g(F)=  0.989E-02 g(S)=  0.000E+00 ort =-0.347E-03 (trialstep = 0.792E-01)
 search vector abs. value=  0.222E-01
 bond charge predicted
       N       E                     dE             d eps       ncg     rms          rms(c)
DAV:   1    -0.741381304676E+03   -0.43694E-03   -0.20717E-02 13792   0.197E-01    0.412E-02
RMM:   2    -0.741381344632E+03   -0.39956E-04   -0.38817E-04 10667   0.407E-02    0.636E-02
RMM:   3    -0.741381340886E+03    0.37467E-05   -0.80229E-05  7230   0.183E-02    0.274E-02
RMM:   4    -0.741381398606E+03   -0.57721E-04   -0.26734E-05  7204   0.110E-02    0.102E-01
RMM:   5    -0.741381337800E+03    0.60807E-04   -0.87240E-06  6704   0.636E-03    0.293E-02
RMM:   6    -0.741381340655E+03   -0.28556E-05   -0.70480E-06  6568   0.445E-03    0.181E-02
RMM:   7    -0.741381341886E+03   -0.12305E-05   -0.23270E-06  4532   0.369E-03    0.177E-02
RMM:   8    -0.741381341714E+03    0.17136E-06   -0.54475E-07  2792   0.283E-03
  42 F= -.74138134E+03 E0= -.74076304E+03  d E =-.473857E-03  mag=     0.0000
 trial-energy change:   -0.000474  1 .order   -0.000474   -0.000759   -0.000189
 step:   0.1054(harm=  0.1054)  dis= 0.00088  next Energy=  -741.381373 (dE=-0.505E-03)
 bond charge predicted
       N       E                     dE             d eps       ncg     rms          rms(c)
DAV:   1    -0.741381369722E+03   -0.27836E-04   -0.22576E-03 13536   0.651E-02    0.165E-02
RMM:   2    -0.741381375141E+03   -0.54194E-05   -0.45702E-05  7040   0.139E-02    0.238E-02
RMM:   3    -0.741381373910E+03    0.12314E-05   -0.91329E-06  6978   0.718E-03    0.143E-02
RMM:   4    -0.741381374919E+03   -0.10092E-05   -0.16403E-06  4322   0.344E-03    0.136E-02
RMM:   5    -0.741381381572E+03   -0.66525E-05   -0.61569E-07  2891   0.303E-03    0.348E-02
RMM:   6    -0.741381373103E+03    0.84691E-05   -0.39619E-08  1812   0.272E-03    0.651E-03
RMM:   7    -0.741381374304E+03   -0.12016E-05   -0.84534E-08  1605   0.270E-03    0.655E-03
RMM:   8    -0.741381374179E+03    0.12523E-06   -0.25196E-08  1201   0.268E-03
  43 F= -.74138137E+03 E0= -.74076310E+03  d E =-.506321E-03  mag=     0.0000
 curvature:  -0.12 expect dE=-0.516E-03 dE for cont linesearch -0.178E-07
 trial: gam= 0.36275 g(F)=  0.422E-02 g(S)=  0.000E+00 ort =-0.570E-04 (trialstep = 0.844E-01)
 search vector abs. value=  0.710E-02
 bond charge predicted
       N       E                     dE             d eps       ncg     rms          rms(c)
DAV:   1    -0.741381592682E+03   -0.21838E-03   -0.73965E-03 14016   0.131E-01    0.236E-02
RMM:   2    -0.741381608524E+03   -0.15842E-04   -0.15408E-04  7286   0.253E-02    0.410E-02
RMM:   3    -0.741381607731E+03    0.79283E-06   -0.25890E-05  7082   0.123E-02    0.188E-02
RMM:   4    -0.741381627808E+03   -0.20077E-04   -0.86477E-06  7122   0.581E-03    0.577E-02
RMM:   5    -0.741381607090E+03    0.20718E-04   -0.36947E-06  6140   0.431E-03    0.197E-02
RMM:   6    -0.741381608925E+03   -0.18342E-05   -0.38168E-07  2451   0.280E-03    0.139E-02
RMM:   7    -0.741381608565E+03    0.35993E-06   -0.14270E-07  2063   0.279E-03    0.880E-03
RMM:   8    -0.741381608510E+03    0.55057E-07   -0.12385E-07  1672   0.287E-03
  44 F= -.74138161E+03 E0= -.74076335E+03  d E =-.234331E-03  mag=     0.0000
 trial-energy change:   -0.000234  1 .order   -0.000231   -0.000354   -0.000108
 step:   0.1214(harm=  0.1214)  dis= 0.00047  next Energy=  -741.381629 (dE=-0.255E-03)
 reached required accuracy - stopping structural energy minimisation
 writing wavefunctions
